/*--------------------------------*- C++ -*----------------------------------*\
  =========                 |
  \\      /  F ield         | OpenFOAM: The Open Source CFD Toolbox
   \\    /   O peration     | Website:  https://openfoam.org
    \\  /    A nd           | Version:  11
     \\/     M anipulation  |
\*---------------------------------------------------------------------------*/
FoamFile
{
    format      ascii;
    class       volScalarField;
    location    "4.6";
    object      p;
}
// * * * * * * * * * * * * * * * * * * * * * * * * * * * * * * * * * * * * * //

dimensions      [0 2 -2 0 0 0 0];

internalField   nonuniform List<scalar> 
12600
(
0.0872573
0.0871207
0.0870562
0.0870365
0.0870185
0.086994
0.0869664
0.0869373
0.086906
0.0868713
0.0868323
0.0867877
0.0867363
0.0866765
0.0866066
0.0865243
0.0864264
0.0863097
0.0861704
0.0860037
0.0858023
0.0855588
0.0852643
0.084907
0.0844729
0.0839442
0.0832995
0.0825088
0.0815386
0.0802806
0.0871819
0.0871119
0.0870586
0.0870357
0.0870168
0.086993
0.086966
0.0869372
0.0869061
0.0868718
0.0868331
0.0867889
0.086738
0.0866788
0.0866095
0.086528
0.0864313
0.0863158
0.0861778
0.086013
0.085814
0.0855737
0.0852824
0.0849291
0.0844999
0.0839773
0.0833433
0.0825646
0.0816575
0.0806241
0.0871466
0.0871133
0.087067
0.0870379
0.0870175
0.0869947
0.0869684
0.0869399
0.0869092
0.0868752
0.086837
0.0867934
0.0867433
0.0866851
0.0866171
0.0865374
0.0864431
0.0863299
0.0861952
0.086033
0.085838
0.0856027
0.0853178
0.0849721
0.0845524
0.0840419
0.0834224
0.0826699
0.0817835
0.0807267
0.0871221
0.0871013
0.0870647
0.0870359
0.0870152
0.0869936
0.0869684
0.0869406
0.0869107
0.0868777
0.0868404
0.086798
0.0867492
0.0866924
0.0866261
0.0865487
0.0864566
0.0863478
0.0862172
0.0860601
0.0858713
0.0856436
0.0853678
0.0850335
0.0846274
0.0841338
0.0835347
0.0828082
0.0819352
0.0808823
0.0871044
0.0870908
0.0870634
0.0870373
0.0870165
0.0869956
0.0869714
0.0869445
0.0869154
0.0868833
0.0868472
0.0868061
0.0867589
0.0867043
0.0866407
0.0865655
0.0864771
0.0863724
0.0862471
0.0860968
0.0859161
0.0856981
0.0854344
0.0851147
0.0847264
0.0842543
0.0836805
0.0829835
0.0821358
0.08111
0.0870917
0.0870821
0.087061
0.0870376
0.0870169
0.0869964
0.0869733
0.0869475
0.0869194
0.0868884
0.0868536
0.0868141
0.0867688
0.0867168
0.0866561
0.0865847
0.0865007
0.0864013
0.0862826
0.0861405
0.0859696
0.0857637
0.0855146
0.0852127
0.0848461
0.0844002
0.083857
0.0831957
0.0823849
0.0813987
0.0870824
0.0870752
0.0870584
0.0870378
0.087018
0.0869983
0.0869765
0.086952
0.0869251
0.0868954
0.0868623
0.0868248
0.0867818
0.0867325
0.0866752
0.0866082
0.0865293
0.0864361
0.0863252
0.0861925
0.0860332
0.0858413
0.0856094
0.0853285
0.0849873
0.0845719
0.0840651
0.0834462
0.0826827
0.0817495
0.0870757
0.08707
0.0870563
0.0870382
0.0870197
0.0870008
0.08698
0.0869568
0.0869312
0.086903
0.0868716
0.0868362
0.0867959
0.0867497
0.0866963
0.0866341
0.0865611
0.086475
0.0863728
0.0862508
0.0861046
0.0859288
0.0857165
0.0854594
0.0851471
0.0847667
0.0843018
0.0837323
0.0830262
0.082159
0.0870711
0.0870663
0.0870548
0.087039
0.0870217
0.0870037
0.0869841
0.0869622
0.0869381
0.0869115
0.0868821
0.0868491
0.0868117
0.0867691
0.0867201
0.0866632
0.0865967
0.0865185
0.086426
0.0863159
0.0861843
0.0860262
0.0858356
0.085605
0.085325
0.0849838
0.0845661
0.0840531
0.083414
0.0826255
0.0870681
0.0870641
0.0870542
0.0870401
0.0870242
0.0870072
0.0869887
0.0869682
0.0869456
0.0869208
0.0868935
0.0868631
0.0868289
0.0867901
0.0867457
0.0866946
0.0866351
0.0865656
0.0864836
0.0863864
0.0862706
0.0861318
0.0859649
0.0857632
0.0855185
0.0852204
0.0848549
0.0844051
0.0838424
0.0831448
0.0870665
0.087063
0.0870544
0.0870417
0.0870271
0.0870111
0.0869938
0.0869747
0.0869537
0.0869308
0.0869058
0.0868781
0.0868472
0.0868126
0.0867732
0.0867282
0.0866763
0.086616
0.0865453
0.0864619
0.086363
0.086245
0.0861034
0.0859328
0.0857261
0.0854744
0.0851658
0.0847854
0.0843076
0.0837128
0.0870661
0.0870631
0.0870553
0.0870439
0.0870304
0.0870155
0.0869993
0.0869816
0.0869623
0.0869414
0.0869187
0.0868939
0.0868666
0.0868363
0.0868022
0.0867637
0.0867197
0.0866691
0.0866102
0.0865414
0.0864603
0.0863642
0.0862494
0.0861116
0.0859452
0.085743
0.0854952
0.0851895
0.0848046
0.0843234
0.0870669
0.0870641
0.0870571
0.0870467
0.0870341
0.0870203
0.0870052
0.0869889
0.0869713
0.0869524
0.0869322
0.0869104
0.0868868
0.0868609
0.0868324
0.0868006
0.0867648
0.0867243
0.0866778
0.0866242
0.0865616
0.0864882
0.0864014
0.0862978
0.0861736
0.0860232
0.0858395
0.0856131
0.0853275
0.0849695
0.0870686
0.087066
0.0870596
0.08705
0.0870383
0.0870254
0.0870115
0.0869966
0.0869807
0.0869639
0.0869461
0.0869274
0.0869075
0.0868863
0.0868634
0.0868385
0.0868112
0.086781
0.0867473
0.0867092
0.0866657
0.0866157
0.0865576
0.0864894
0.0864086
0.0863118
0.0861946
0.0860509
0.0858698
0.0856425
0.0870712
0.0870688
0.0870628
0.0870538
0.0870429
0.0870309
0.087018
0.0870045
0.0869903
0.0869755
0.0869603
0.0869447
0.0869286
0.0869121
0.0868949
0.086877
0.0868584
0.0868387
0.0868179
0.0867956
0.0867715
0.0867453
0.0867163
0.086684
0.0866475
0.0866055
0.0865562
0.0864973
0.0864239
0.0863323
0.0870746
0.0870723
0.0870666
0.087058
0.0870478
0.0870366
0.0870248
0.0870125
0.087
0.0869873
0.0869746
0.0869621
0.0869499
0.086938
0.0869266
0.0869158
0.0869057
0.0868967
0.0868888
0.0868824
0.0868778
0.0868755
0.0868759
0.0868797
0.0868876
0.0869006
0.0869198
0.0869465
0.086982
0.0870282
0.0870788
0.0870766
0.087071
0.0870627
0.0870529
0.0870425
0.0870317
0.0870207
0.0870097
0.086999
0.0869889
0.0869795
0.086971
0.0869638
0.0869581
0.0869543
0.0869529
0.0869543
0.0869593
0.0869687
0.0869835
0.0870049
0.0870344
0.087074
0.0871261
0.0871937
0.0872808
0.0873923
0.0875358
0.0877188
0.0870839
0.0870816
0.087076
0.0870678
0.0870583
0.0870485
0.0870386
0.0870288
0.0870194
0.0870107
0.0870029
0.0869966
0.0869918
0.0869892
0.0869891
0.0869922
0.0869992
0.087011
0.0870287
0.0870536
0.0870874
0.087132
0.0871902
0.0872649
0.0873603
0.0874813
0.0876347
0.0878289
0.0880771
0.0883925
0.0870897
0.0870873
0.0870815
0.0870732
0.0870638
0.0870545
0.0870455
0.0870369
0.0870289
0.087022
0.0870167
0.0870132
0.0870121
0.0870139
0.0870193
0.0870291
0.0870443
0.0870661
0.0870961
0.0871361
0.0871883
0.0872556
0.0873414
0.0874502
0.0875874
0.08776
0.0879772
0.0882505
0.0885984
0.0890387
0.0870963
0.0870938
0.0870875
0.0870788
0.0870694
0.0870606
0.0870523
0.0870447
0.0870381
0.087033
0.0870299
0.0870292
0.0870316
0.0870377
0.0870483
0.0870645
0.0870876
0.0871191
0.0871609
0.0872153
0.0872852
0.0873742
0.0874866
0.0876279
0.087805
0.0880266
0.0883042
0.088652
0.0890924
0.0896476
0.0871039
0.087101
0.087094
0.0870845
0.087075
0.0870665
0.0870589
0.0870522
0.0870468
0.0870434
0.0870425
0.0870445
0.0870501
0.0870602
0.0870758
0.0870982
0.0871287
0.0871693
0.0872223
0.0872904
0.0873771
0.0874865
0.0876239
0.0877959
0.0880105
0.0882781
0.0886119
0.0890285
0.0895533
0.0902113
0.0871125
0.087109
0.0871009
0.0870903
0.0870805
0.0870723
0.0870653
0.0870594
0.0870551
0.0870532
0.0870542
0.0870587
0.0870675
0.0870814
0.0871016
0.0871297
0.0871672
0.0872164
0.0872798
0.0873607
0.0874629
0.0875915
0.0877522
0.0879526
0.088202
0.0885119
0.0888971
0.0893762
0.0899763
0.0907239
0.0871223
0.087118
0.087108
0.087096
0.0870857
0.0870779
0.0870713
0.087066
0.0870628
0.0870623
0.0870651
0.0870719
0.0870834
0.0871007
0.0871252
0.0871585
0.0872025
0.0872595
0.0873325
0.0874251
0.0875416
0.0876876
0.0878697
0.0880961
0.088377
0.0887252
0.0891568
0.0896916
0.0903574
0.0911813
0.0871337
0.087128
0.0871153
0.0871013
0.0870907
0.0870831
0.0870769
0.0870721
0.0870697
0.0870706
0.0870751
0.0870839
0.0870979
0.0871185
0.0871468
0.0871848
0.0872346
0.0872987
0.0873803
0.0874835
0.0876129
0.0877746
0.0879758
0.0882254
0.0885345
0.0889166
0.0893891
0.0899725
0.0906949
0.0915825
0.0871471
0.0871392
0.0871225
0.0871061
0.0870953
0.087088
0.0870818
0.0870773
0.0870757
0.0870776
0.0870835
0.0870941
0.0871103
0.0871336
0.0871654
0.0872075
0.0872623
0.0873327
0.0874219
0.0875344
0.0876751
0.0878506
0.0880685
0.0883383
0.0886718
0.0890834
0.089591
0.090216
0.0909865
0.091927
0.0871633
0.0871515
0.0871288
0.0871101
0.0870998
0.0870929
0.0870867
0.0870824
0.0870815
0.0870844
0.0870915
0.0871036
0.0871218
0.0871474
0.087182
0.0872277
0.0872869
0.0873625
0.0874582
0.0875785
0.0877289
0.0879161
0.0881482
0.0884351
0.0887892
0.0892253
0.089762
0.0904215
0.0912326
0.0922178
0.0871839
0.087165
0.0871333
0.0871123
0.0871025
0.0870957
0.0870893
0.0870853
0.0870849
0.0870886
0.0870968
0.0871102
0.0871299
0.0871575
0.0871946
0.0872432
0.0873059
0.087386
0.087487
0.0876138
0.087772
0.0879688
0.0882123
0.0885132
0.0888838
0.0893396
0.0898994
0.0905861
0.0914316
0.0924553
0.0872106
0.0871794
0.087138
0.0871169
0.0871078
0.0871003
0.0870934
0.0870895
0.0870895
0.0870937
0.0871025
0.0871167
0.0871376
0.0871666
0.0872055
0.0872563
0.0873217
0.0874051
0.0875102
0.0876418
0.087806
0.08801
0.0882624
0.0885737
0.0889567
0.089427
0.0900034
0.0907089
0.0915826
0.0926486
0.0872474
0.0871797
0.0871317
0.0871164
0.0871091
0.087101
0.0870939
0.0870903
0.0870908
0.0870955
0.0871049
0.0871198
0.0871416
0.0871717
0.0872118
0.0872642
0.0873316
0.0874172
0.0875251
0.0876603
0.0878288
0.0880377
0.088296
0.0886144
0.0890059
0.0894857
0.0900722
0.0907869
0.0916694
0.09278
0.0873239
0.0871892
0.0871298
0.0871182
0.087112
0.0871032
0.0870958
0.0870922
0.0870928
0.0870976
0.0871071
0.0871224
0.0871446
0.0871751
0.0872158
0.087269
0.0873373
0.0874241
0.0875335
0.0876706
0.0878413
0.0880527
0.088314
0.0886361
0.0890319
0.0895165
0.0901073
0.0908248
0.0916799
0.0926787
0.0798409
0.0789065
0.0783643
0.0781575
0.0779264
0.0775888
0.0772045
0.0768188
0.0764395
0.0760629
0.0756867
0.0753095
0.0749285
0.0745395
0.0741369
0.0737145
0.0732643
0.0727759
0.0722354
0.0716239
0.0709152
0.0700661
0.069035
0.067626
0.0660443
0.0625994
0.0609572
0.0469093
0.0496218
-0.0256094
0.0803331
0.0794658
0.078846
0.0785648
0.0782783
0.0779179
0.0775443
0.0771922
0.0768553
0.0765222
0.0761899
0.0758578
0.0755238
0.0751846
0.0748362
0.0744739
0.0740919
0.0736825
0.0732354
0.0727366
0.0721657
0.0714929
0.0706736
0.0696026
0.0682852
0.0658005
0.0640569
0.0534172
0.0546853
-0.00865046
0.0799756
0.0794305
0.0790187
0.0787808
0.0785295
0.0782193
0.0779017
0.0776014
0.0773099
0.077019
0.0767287
0.0764406
0.0761536
0.0758654
0.0755732
0.0752741
0.0749644
0.074639
0.0742913
0.0739122
0.0734883
0.0729999
0.0724136
0.0716682
0.0707085
0.0690345
0.0675402
0.0598457
0.0602845
0.00846195
0.0800453
0.0797086
0.0794211
0.0791718
0.0789114
0.078629
0.0783507
0.0780882
0.0778349
0.0775853
0.0773401
0.0771002
0.076865
0.0766331
0.0764032
0.0761742
0.0759445
0.0757121
0.0754742
0.0752269
0.0749641
0.0746765
0.0743451
0.0739393
0.0733982
0.0724729
0.0714728
0.0663784
0.0665063
0.025384
0.0802572
0.0800015
0.0797764
0.0795451
0.0793092
0.0790741
0.078847
0.0786302
0.0784209
0.0782172
0.0780204
0.0778318
0.0776517
0.0774801
0.0773173
0.0771641
0.0770212
0.0768896
0.0767706
0.0766658
0.0765767
0.0765045
0.0764457
0.076395
0.0763135
0.0761009
0.0757818
0.0729782
0.0733134
0.0419855
0.0805646
0.0803683
0.080201
0.0800055
0.0798017
0.0796066
0.0794222
0.0792469
0.0790802
0.0789229
0.0787763
0.0786418
0.0785205
0.0784139
0.0783236
0.0782524
0.0782033
0.0781806
0.0781898
0.0782382
0.0783349
0.0784921
0.0787222
0.0790434
0.0794488
0.0799368
0.0804202
0.0796598
0.0805956
0.0582407
0.0809521
0.0808038
0.0806837
0.0805237
0.0803536
0.0801984
0.0800582
0.0799282
0.0798084
0.0797009
0.0796078
0.079531
0.0794726
0.0794352
0.0794225
0.079439
0.0794903
0.079584
0.07973
0.0799411
0.0802346
0.0806334
0.0811659
0.0818732
0.0827835
0.0839677
0.0853277
0.0863972
0.08825
0.0739963
0.0814105
0.0813057
0.0812296
0.0811077
0.0809752
0.0808616
0.080766
0.0806822
0.0806105
0.0805545
0.080517
0.0805006
0.0805084
0.0805446
0.0806141
0.0807236
0.0808813
0.0810982
0.0813884
0.0817707
0.0822702
0.0829206
0.0837661
0.0848698
0.0862951
0.088171
0.090443
0.0931573
0.096176
0.0890685
0.0819374
0.0818736
0.0818393
0.0817562
0.0816627
0.081591
0.0815404
0.0815041
0.0814826
0.0814804
0.0815011
0.0815482
0.0816257
0.081739
0.0818949
0.082102
0.0823712
0.0827168
0.0831574
0.0837175
0.0844298
0.085339
0.0865041
0.0880093
0.0899522
0.0925099
0.0956981
0.0998908
0.104249
0.103285
0.0825286
0.0825042
0.0825102
0.0824666
0.0824133
0.0823846
0.08238
0.0823924
0.0824227
0.082476
0.082557
0.0826697
0.0828194
0.0830127
0.0832582
0.0835665
0.0839511
0.0844295
0.0850247
0.0857668
0.0866962
0.0878675
0.0893542
0.0912603
0.0937147
0.0969359
0.101019
0.106535
0.112326
0.116486
0.0831805
0.0831939
0.0832383
0.0832344
0.0832224
0.0832373
0.0832792
0.0833412
0.0834243
0.0835345
0.0836771
0.0838572
0.0840809
0.0843563
0.0846935
0.0851051
0.0856073
0.0862208
0.0869725
0.0878983
0.0890453
0.090478
0.0922831
0.0945824
0.0975336
0.101389
0.106323
0.113012
0.120254
0.12853
0.0838864
0.083936
0.0840172
0.084053
0.0840829
0.0841418
0.0842304
0.0843423
0.0844788
0.0846465
0.0848515
0.0850997
0.0853982
0.0857564
0.086186
0.0867016
0.0873217
0.0880701
0.0889777
0.0900853
0.0914469
0.0931354
0.0952497
0.0979274
0.101351
0.105802
0.111522
0.119235
0.127864
0.139275
0.0846384
0.0847225
0.0848381
0.0849133
0.0849854
0.0850881
0.0852232
0.0853846
0.0855744
0.0857994
0.0860665
0.0863824
0.0867553
0.0871957
0.0877167
0.088335
0.0890711
0.0899518
0.0910116
0.0922958
0.0938644
0.0957981
0.0982064
0.10124
0.105104
0.110098
0.116525
0.125107
0.134981
0.148557
0.085426
0.0855426
0.0856903
0.0858038
0.0859177
0.0860638
0.0862442
0.0864543
0.0866963
0.0869775
0.0873053
0.0876874
0.0881327
0.0886531
0.0892629
0.0899803
0.0908282
0.0918358
0.0930408
0.0944926
0.0962564
0.0984195
0.1011
0.104461
0.108721
0.114197
0.121238
0.130532
0.14144
0.156226
0.0862366
0.0863837
0.0865607
0.0867112
0.086866
0.087054
0.0872782
0.087535
0.0878272
0.0881623
0.0885484
0.0889937
0.0895082
0.0901045
0.0907984
0.0916094
0.0925623
0.0936885
0.0950286
0.0966352
0.0985779
0.10095
0.103875
0.107526
0.112133
0.118021
0.125573
0.13542
0.147118
0.162319
0.0870563
0.0872314
0.0874349
0.0876203
0.0878143
0.0880423
0.0883078
0.0886085
0.088948
0.0893338
0.0897743
0.0902786
0.0908573
0.0915239
0.0922953
0.0931922
0.0942409
0.0954747
0.0969364
0.0986814
0.100783
0.103337
0.106475
0.110373
0.11527
0.121493
0.129445
0.139688
0.151946
0.167084
0.0878699
0.0880705
0.0882975
0.0885152
0.088746
0.0890112
0.0893147
0.0896559
0.0900387
0.0904707
0.0909608
0.0915185
0.092155
0.0928847
0.0937251
0.0946981
0.0958312
0.097159
0.0987261
0.10059
0.102826
0.105534
0.108847
0.112944
0.118069
0.124544
0.132781
0.143267
0.155868
0.170475
0.0886621
0.0888856
0.0891331
0.08938
0.0896445
0.0899435
0.0902811
0.0906583
0.0910796
0.0915525
0.0920862
0.0926904
0.0933772
0.0941612
0.0950607
0.0960983
0.0973023
0.0987085
0.100362
0.102323
0.104667
0.107495
0.110943
0.115188
0.120474
0.127116
0.13552
0.146094
0.158788
0.17238
0.0894182
0.089662
0.0899272
0.0901998
0.0904941
0.0908228
0.0911902
0.0915984
0.0920526
0.0925604
0.0931307
0.0937739
0.0945022
0.0953307
0.0962781
0.0973674
0.0986276
0.100095
0.101816
0.103849
0.106272
0.109186
0.112725
0.117065
0.122445
0.129165
0.137616
0.14811
0.160583
0.172922
0.0901255
0.0903871
0.0906672
0.0909618
0.0912816
0.0916356
0.0920278
0.0924617
0.0929427
0.0934786
0.0940782
0.094752
0.0955124
0.0963748
0.0973581
0.0984855
0.0997861
0.101296
0.103063
0.105144
0.107617
0.110581
0.114168
0.11855
0.123955
0.130665
0.13904
0.14928
0.161255
0.172171
0.0907735
0.0910503
0.0913428
0.0916553
0.0919962
0.0923707
0.0927826
0.0932364
0.093738
0.094295
0.0949161
0.0956119
0.0963948
0.0972802
0.098287
0.0994384
0.100763
0.102298
0.104088
0.106193
0.108686
0.111666
0.115259
0.119629
0.124995
0.131609
0.139798
0.149622
0.160955
0.170021
0.0913558
0.0916457
0.0919482
0.092275
0.0926322
0.0930224
0.0934489
0.0939169
0.0944328
0.0950039
0.0956387
0.0963478
0.0971435
0.0980411
0.0990593
0.100221
0.101555
0.103096
0.10489
0.106993
0.109479
0.112441
0.116
0.120312
0.125579
0.13202
0.139925
0.149183
0.159813
0.166346
0.0918675
0.0921682
0.0924789
0.0928164
0.0931855
0.0935867
0.094023
0.0945001
0.0950245
0.0956032
0.0962446
0.0969589
0.0977583
0.0986578
0.0996758
0.100835
0.102162
0.103693
0.105471
0.107552
0.110004
0.112918
0.116408
0.120617
0.125731
0.131928
0.139471
0.148028
0.157921
0.161543
0.0923102
0.0926197
0.0929362
0.0932805
0.0936568
0.0940642
0.0945055
0.0949862
0.0955131
0.0960931
0.0967342
0.0974461
0.0982409
0.099133
0.10014
0.101284
0.102592
0.104097
0.105842
0.107879
0.110275
0.113113
0.116501
0.120568
0.125483
0.131377
0.138497
0.146246
0.155395
0.155983
0.0926862
0.0930023
0.0933218
0.0936696
0.0940502
0.0944614
0.0949043
0.0953846
0.0959094
0.0964853
0.0971199
0.0978225
0.0986047
0.0994806
0.100467
0.101585
0.102861
0.104327
0.106023
0.107999
0.110317
0.113057
0.116316
0.120209
0.124887
0.13043
0.137087
0.143924
0.152363
0.149304
0.0930078
0.0933279
0.0936424
0.0939853
0.0943648
0.0947755
0.095216
0.0956919
0.0962108
0.096779
0.0974032
0.0980917
0.0988558
0.0997088
0.100667
0.10175
0.102984
0.104398
0.106032
0.107932
0.110157
0.112778
0.115887
0.119581
0.123996
0.129148
0.13532
0.141135
0.14892
0.141538
0.0932879
0.0936095
0.0939141
0.0942529
0.0946336
0.0950422
0.0954757
0.0959428
0.0964515
0.097007
0.0976148
0.0982832
0.0990233
0.0998475
0.100771
0.101812
0.102994
0.104348
0.105909
0.107721
0.109839
0.112328
0.115269
0.118745
0.122876
0.127609
0.133287
0.13796
0.145181
0.13301
0.093572
0.0938344
0.0940747
0.0944038
0.0947986
0.0952109
0.0956358
0.0960923
0.0965903
0.0971363
0.0977312
0.0983791
0.0990922
0.0998828
0.100766
0.101757
0.102881
0.104166
0.105645
0.10736
0.10936
0.111706
0.114469
0.117714
0.121553
0.125843
0.131048
0.134459
0.141254
0.123975
0.0940889
0.0942117
0.0943074
0.094596
0.0949966
0.0954181
0.0958391
0.096285
0.096762
0.0972791
0.097846
0.0984683
0.0991524
0.0999097
0.100756
0.101697
0.102758
0.10397
0.105363
0.106976
0.108854
0.111049
0.113628
0.116633
0.120175
0.123998
0.128761
0.130774
0.137268
0.114659
0.0941662
0.0940507
0.0941392
0.0945066
0.0949492
0.0954058
0.0958379
0.0962835
0.0967608
0.0972682
0.0978156
0.0984097
0.0990552
0.0997629
0.100544
0.101421
0.102413
0.103543
0.104841
0.106342
0.108089
0.110128
0.112519
0.115282
0.118544
0.121879
0.126311
0.126768
0.133188
0.105263
0.0970337
0.0887581
0.0796436
0.0703302
0.0614648
0.0534235
0.0465339
0.0411675
0.0377266
0.0366023
0.037859
0.0409246
0.0443048
0.0464005
0.0463915
0.0446388
0.0431308
0.0416205
0.0399407
0.0387776
0.0379576
0.0370291
0.0357756
0.0342723
0.0327301
0.031255
0.0296404
0.0277495
0.0256246
0.0229189
0.129031
0.12318
0.116733
0.110407
0.104043
0.0974116
0.0907038
0.0842767
0.0782963
0.073152
0.0693193
0.0668575
0.0653019
0.0633336
0.0598336
0.0538563
0.0462503
0.0409443
0.0393979
0.0385308
0.0368922
0.0349385
0.0337736
0.0331731
0.0324659
0.0316309
0.0308388
0.0299986
0.0287515
0.0266969
0.123603
0.120111
0.116056
0.111407
0.106051
0.100035
0.093666
0.0871943
0.0809521
0.0754956
0.0711948
0.0677849
0.0646615
0.0609098
0.0557633
0.0504583
0.0457242
0.0418869
0.0398464
0.0381654
0.0362203
0.0358778
0.0373479
0.038574
0.0399926
0.0415735
0.0422145
0.0423085
0.0421554
0.0412837
0.124586
0.122785
0.120382
0.117105
0.113077
0.108365
0.10305
0.0972593
0.0912256
0.0852873
0.0797496
0.0746951
0.070036
0.0655355
0.0610056
0.0567956
0.0525819
0.0477725
0.0442261
0.0420237
0.0404868
0.0409519
0.0430938
0.0461078
0.0499426
0.0528133
0.054526
0.0556414
0.0556785
0.054725
0.120616
0.119793
0.118614
0.116754
0.114076
0.110664
0.106594
0.101888
0.0966306
0.0910406
0.0854313
0.0800798
0.0750983
0.0704373
0.0659659
0.061673
0.0574692
0.0536163
0.050819
0.0486165
0.0472522
0.0477653
0.0499758
0.0533804
0.0571578
0.0598575
0.0612545
0.0608162
0.058554
0.0549769
0.117751
0.117627
0.117234
0.116095
0.11417
0.111551
0.108236
0.104199
0.099492
0.0942888
0.0888545
0.0834723
0.0783283
0.0734667
0.0688265
0.0644077
0.0603241
0.0568916
0.0543997
0.0528489
0.052435
0.0531342
0.0543692
0.0559357
0.0574426
0.0577605
0.0561224
0.0528786
0.0476134
0.0405019
0.114749
0.115018
0.115122
0.114571
0.113357
0.111496
0.10894
0.10562
0.101539
0.0968124
0.0916507
0.0863193
0.0810577
0.0760098
0.0712242
0.066766
0.0627893
0.0595158
0.0571464
0.0557691
0.0553614
0.0556552
0.0562224
0.056437
0.0554102
0.0525192
0.0478031
0.0414374
0.0328209
0.0233457
0.11219
0.11273
0.11318
0.113046
0.112305
0.110988
0.109027
0.106313
0.102808
0.0985719
0.0937609
0.0886099
0.0833766
0.0782702
0.0734224
0.0689495
0.0650139
0.0618055
0.0594799
0.0580568
0.0573733
0.057072
0.0566526
0.0554724
0.0529076
0.0487395
0.0430038
0.0356387
0.0264199
0.0172419
0.109942
0.110641
0.111302
0.111454
0.111076
0.110194
0.108715
0.10651
0.103505
0.0997198
0.0952685
0.0903526
0.0852279
0.0801394
0.075275
0.0707912
0.0668598
0.0636565
0.0612913
0.0597138
0.058676
0.0577536
0.0564097
0.0541075
0.0505
0.0455369
0.0393375
0.0321656
0.0244896
0.0174592
0.108012
0.108809
0.109608
0.109961
0.109853
0.1093
0.108204
0.10642
0.10385
0.100477
0.0963732
0.0917076
0.0867241
0.0816874
0.076827
0.0723348
0.0683929
0.06516
0.0627
0.0609026
0.0594638
0.0579337
0.0558202
0.0527363
0.0485387
0.043353
0.0375213
0.0315793
0.0262447
0.0222603
0.106348
0.107203
0.108085
0.108577
0.108667
0.108371
0.107583
0.10615
0.103956
0.100953
0.097179
0.0927674
0.0879449
0.0829847
0.078146
0.0736506
0.0696899
0.0664045
0.0638179
0.0617739
0.0599393
0.05788
0.0551944
0.0516573
0.0473145
0.04247
0.0376438
0.0334925
0.0306663
0.0295707
0.104912
0.105799
0.106733
0.107322
0.107561
0.107462
0.106919
0.105776
0.103902
0.101227
0.0977563
0.0935917
0.0889386
0.0840701
0.0792655
0.0747698
0.070782
0.0674274
0.0646978
0.0624082
0.0602218
0.0577528
0.054712
0.0510327
0.0469232
0.0428185
0.0393039
0.0369014
0.0360874
0.0367585
0.103666
0.10457
0.105535
0.106192
0.106541
0.106595
0.10625
0.105346
0.103746
0.10136
0.098165
0.0942342
0.0897502
0.08498
0.0802152
0.0757189
0.0716967
0.0682623
0.065386
0.0628695
0.0603944
0.057644
0.0544476
0.0508781
0.0472621
0.044079
0.0418408
0.0408896
0.0414576
0.0429798
0.102577
0.103489
0.104472
0.105178
0.105611
0.105786
0.1056
0.104896
0.103529
0.101396
0.0984501
0.0947375
0.0904172
0.0857466
0.0810237
0.0765252
0.0724632
0.0689447
0.0659272
0.063213
0.0605191
0.0576085
0.0544225
0.0511449
0.0481605
0.0459114
0.0447972
0.0449428
0.046373
0.0482479
0.101618
0.102532
0.103526
0.104269
0.104768
0.105038
0.104982
0.104445
0.103278
0.101367
0.098645
0.0951334
0.0909687
0.0863956
0.0817141
0.0772111
0.0731061
0.0695032
0.0663557
0.0634785
0.0606352
0.0576708
0.0546248
0.0517544
0.0494421
0.0480622
0.047869
0.048784
0.0507036
0.0526504
0.100769
0.101679
0.102679
0.103452
0.104005
0.104353
0.104405
0.104008
0.103013
0.101296
0.0987751
0.0954475
0.0914283
0.086948
0.0823052
0.077795
0.0736446
0.0699599
0.0666972
0.0636932
0.0607646
0.0578356
0.0550236
0.0526152
0.0509634
0.0503457
0.0508631
0.0522793
0.0544291
0.0562777
0.100008
0.100913
0.101917
0.102715
0.103314
0.103728
0.10387
0.103593
0.102747
0.101202
0.0988602
0.0957001
0.0918154
0.0874214
0.0828131
0.0782922
0.0740948
0.0703327
0.0669711
0.063875
0.0609179
0.0580953
0.055576
0.0536483
0.0526106
0.0526296
0.0536646
0.0553759
0.0575773
0.0592363
0.0993189
0.100219
0.101227
0.102047
0.102686
0.103159
0.103379
0.103205
0.10249
0.101097
0.0989157
0.0959073
0.0921455
0.0878303
0.0832512
0.0787153
0.0744698
0.0706355
0.0671915
0.0640355
0.0610983
0.0584351
0.0562407
0.054786
0.0542954
0.0548236
0.0562116
0.0580653
0.0601977
0.0616305
0.0986903
0.0995851
0.100595
0.101436
0.102114
0.102639
0.102929
0.102847
0.102248
0.10099
0.0989532
0.0960819
0.0924316
0.0881868
0.0836304
0.0790748
0.0747801
0.0708794
0.0673685
0.0641809
0.0613036
0.0588361
0.0569809
0.055972
0.0559507
0.0568693
0.0584766
0.0603631
0.0623463
0.0635519
0.0981111
0.0990021
0.100013
0.100873
0.101589
0.102164
0.102517
0.102518
0.102024
0.100889
0.0989821
0.0962345
0.0926842
0.0885009
0.0839599
0.0793791
0.0750342
0.0710728
0.0675093
0.0643143
0.0615293
0.0592808
0.057764
0.0571609
0.0575271
0.0587297
0.0604513
0.0622965
0.0640823
0.0650827
0.0975734
0.0984613
0.0994722
0.100351
0.101103
0.101728
0.102141
0.102219
0.101822
0.100798
0.0990095
0.0963736
0.0929123
0.0887811
0.0842471
0.0796348
0.0752383
0.0712214
0.0676179
0.0644353
0.0617674
0.0597518
0.0585611
0.0583162
0.0589928
0.0603877
0.0621399
0.0638946
0.0654644
0.0663033
0.0970709
0.0979564
0.0989651
0.0998612
0.100651
0.101324
0.101796
0.101948
0.101641
0.100721
0.099041
0.0965058
0.0931229
0.0890344
0.0844989
0.0798482
0.075399
0.0713312
0.0676984
0.0645453
0.0620141
0.0602353
0.0593473
0.0594059
0.0603211
0.0618389
0.0635661
0.0651974
0.0665487
0.0672904
0.0966037
0.0974833
0.0984848
0.0993979
0.100226
0.100948
0.101478
0.101702
0.101481
0.100659
0.0990812
0.0966375
0.0933224
0.0892662
0.0847186
0.0800206
0.0755165
0.0714028
0.0677481
0.0646311
0.0622531
0.0607145
0.060103
0.0604082
0.0614884
0.0630666
0.0647452
0.0662617
0.0674158
0.0681252
0.0961779
0.0970366
0.0980244
0.0989547
0.0998231
0.100594
0.101183
0.101478
0.101343
0.100615
0.0991325
0.0967732
0.0935179
0.0894856
0.0849171
0.0801644
0.0756026
0.0714464
0.0677858
0.0647454
0.062498
0.0611851
0.060813
0.0613157
0.0625078
0.0640857
0.0656723
0.0670917
0.0681299
0.0689152
0.0957819
0.0966203
0.097584
0.0985275
0.0994363
0.100257
0.100905
0.101275
0.101226
0.100591
0.0991982
0.0969135
0.0937057
0.0896838
0.0850791
0.0802602
0.0756403
0.0714389
0.0677578
0.0647714
0.062707
0.0616178
0.0614455
0.0620955
0.0633812
0.064975
0.0664659
0.0677533
0.0686883
0.0696988
0.095426
0.0962408
0.0971647
0.0981167
0.0990632
0.0999332
0.10064
0.101086
0.101125
0.100585
0.0992864
0.0970763
0.0939135
0.0899004
0.0852532
0.0803562
0.075678
0.0714581
0.0677871
0.0648394
0.0629343
0.0620289
0.0619959
0.0627115
0.0640137
0.0656324
0.0671548
0.0684337
0.0693697
0.0706037
0.0951073
0.0958817
0.0967646
0.0977223
0.0987011
0.0996187
0.100386
0.100912
0.101041
0.100591
0.099379
0.0972291
0.0940854
0.0900562
0.0853466
0.0803641
0.075601
0.0713188
0.0675805
0.0648247
0.0631072
0.0623865
0.0624782
0.0632564
0.0645265
0.0660218
0.067433
0.0686902
0.0699442
0.071563
0.0948265
0.0955349
0.0963777
0.0973449
0.098351
0.0993093
0.100134
0.100717
0.10096
0.100619
0.0995103
0.0974501
0.0943607
0.0903098
0.0855145
0.0804476
0.0756761
0.0713205
0.0675381
0.0648524
0.0632869
0.0627097
0.0628568
0.0637222
0.0651913
0.0668841
0.0682896
0.0694859
0.0707406
0.0724594
0.094625
0.0952002
0.0959953
0.0969825
0.0980434
0.099068
0.0999677
0.100639
0.100927
0.10067
0.0996299
0.0975977
0.0944833
0.0903636
0.0854493
0.0802687
0.0755138
0.0711605
0.0674034
0.0648432
0.0634255
0.0628892
0.0629853
0.0636675
0.064971
0.0666559
0.0682886
0.069795
0.0714039
0.0733493
0.0945332
0.0949098
0.0955672
0.0964665
0.0975132
0.098579
0.0995493
0.100338
0.1008
0.100721
0.099852
0.0979771
0.0949457
0.0907544
0.0857261
0.0803879
0.0754058
0.0708433
0.0671182
0.064699
0.0634943
0.0631348
0.0633882
0.0642337
0.0658089
0.0676322
0.0693116
0.0708002
0.0723475
0.0738296
-0.118384
-0.102781
-0.0563748
-0.00435267
0.0149605
0.0378272
0.0458227
0.0539703
0.0578092
0.0603985
0.0617349
0.0623799
0.0626091
0.0626254
0.0625621
0.0625003
0.0624824
0.062534
0.0626569
0.0628404
0.0630871
0.0633565
0.0636913
0.0639982
0.0644195
0.0647855
0.0653845
0.0658956
0.0669527
0.0656967
-0.119953
-0.11024
-0.0633871
-0.00917381
0.0142421
0.0364814
0.0461188
0.0541687
0.0586686
0.0613864
0.0628422
0.0635116
0.0637044
0.0636371
0.0634577
0.0632619
0.0631054
0.0630205
0.0630197
0.0630937
0.0632475
0.0634403
0.0637004
0.0639525
0.0642675
0.0645228
0.0648703
0.065019
0.0654944
0.0649668
-0.120823
-0.115878
-0.0731994
-0.0158101
0.0121284
0.0339915
0.0456399
0.0540498
0.0593097
0.0623948
0.0640631
0.0648111
0.064986
0.0648317
0.0645194
0.0641645
0.063841
0.0635936
0.0634443
0.063392
0.0634352
0.06355
0.0637345
0.063947
0.0641962
0.0644233
0.0646836
0.0648472
0.0651776
0.0653096
-0.121244
-0.118546
-0.082115
-0.0213146
0.0106413
0.0327049
0.0458184
0.0546954
0.0604268
0.0637961
0.0655713
0.0663045
0.0663866
0.0660927
0.0656165
0.0650891
0.0645975
0.0641972
0.0639162
0.063758
0.0637173
0.0637751
0.0639177
0.0641192
0.0643696
0.0646383
0.0649422
0.0652268
0.0655698
0.0658194
-0.121952
-0.118518
-0.0900672
-0.0266892
0.00918589
0.032012
0.0462111
0.0555985
0.0617023
0.0653422
0.0672369
0.0679641
0.0679522
0.0675087
0.0668538
0.0661356
0.0654539
0.0648772
0.0644419
0.0641564
0.0640153
0.0640007
0.064093
0.0642672
0.0645047
0.0647803
0.0650875
0.0653954
0.0657202
0.0659895
-0.123427
-0.119539
-0.0980992
-0.0335615
0.00666478
0.0309603
0.0462864
0.0563304
0.0628784
0.0668628
0.0689638
0.0697558
0.0696936
0.0691162
0.068275
0.0673398
0.0664301
0.0656344
0.0650031
0.0645525
0.0642794
0.0641663
0.0641889
0.0643183
0.0645277
0.0647903
0.0650886
0.065401
0.0657287
0.0660347
-0.125456
-0.124592
-0.10715
-0.0423006
0.00270197
0.0292737
0.0459757
0.0568416
0.0639239
0.0683119
0.0706846
0.0716015
0.0715271
0.0708343
0.0698143
0.0686547
0.0674925
0.0664423
0.0655762
0.0649251
0.0644921
0.0642601
0.0642021
0.0642841
0.0644715
0.0647322
0.0650417
0.0653779
0.0657328
0.0660697
-0.127626
-0.132311
-0.116757
-0.052255
-0.00256084
0.0269124
0.0452758
0.0571197
0.0648127
0.0696326
0.0722961
0.0733783
0.0733514
0.0725852
0.071399
0.070009
0.0685755
0.0672432
0.0661122
0.0652324
0.0646142
0.064242
0.0640899
0.0641204
0.0642901
0.064558
0.0648911
0.0652623
0.0656581
0.0660346
-0.129559
-0.140157
-0.125781
-0.0626652
-0.00897083
0.0236849
0.0439973
0.0569987
0.0654086
0.0707151
0.0736995
0.0749439
0.0749438
0.0741397
0.0728559
0.0712891
0.0695938
0.0679325
0.0664663
0.0653087
0.0644867
0.0639658
0.0637173
0.0637024
0.0638691
0.0641618
0.0645367
0.0649601
0.0654153
0.0658525
-0.130986
-0.146804
-0.133621
-0.0731027
-0.0164635
0.0192774
0.0417661
0.0561451
0.065457
0.071384
0.0747756
0.0762108
0.0762244
0.0753387
0.0739158
0.0721956
0.0703418
0.0684603
0.0666594
0.0651236
0.0640086
0.0632827
0.0629059
0.0628449
0.0630351
0.0633927
0.0638527
0.0643687
0.0649183
0.0654485
-0.131716
-0.151802
-0.140017
-0.0832933
-0.0250027
0.0133723
0.038108
0.0540615