/*--------------------------------*- C++ -*----------------------------------*\
  =========                 |
  \\      /  F ield         | OpenFOAM: The Open Source CFD Toolbox
   \\    /   O peration     | Website:  https://openfoam.org
    \\  /    A nd           | Version:  11
     \\/     M anipulation  |
\*---------------------------------------------------------------------------*/
FoamFile
{
    format      ascii;
    class       surfaceScalarField;
    location    "4.6";
    object      phi;
}
// * * * * * * * * * * * * * * * * * * * * * * * * * * * * * * * * * * * * * //

dimensions      [0 3 -1 0 0 0 0];

internalField   nonuniform List<scalar> 
24840
(
1.53198e-05
1.35269e-08
1.53017e-05
1.81032e-08
1.52851e-05
1.66491e-08
1.52689e-05
1.61079e-08
1.52531e-05
1.5828e-08
1.52378e-05
1.5277e-08
1.52234e-05
1.44153e-08
1.52102e-05
1.32522e-08
1.51984e-05
1.18194e-08
1.51882e-05
1.01633e-08
1.51802e-05
8.02849e-09
1.51747e-05
5.48056e-09
1.51722e-05
2.46971e-09
1.51735e-05
-1.25154e-09
1.51793e-05
-5.80503e-09
1.51907e-05
-1.14418e-08
1.52091e-05
-1.84258e-08
1.52359e-05
-2.67472e-08
1.52731e-05
-3.72507e-08
1.53241e-05
-5.09769e-08
1.53906e-05
-6.64422e-08
1.54753e-05
-8.47143e-08
1.55842e-05
-1.08972e-07
1.57237e-05
-1.39474e-07
1.59007e-05
-1.77019e-07
1.61238e-05
-2.23055e-07
1.64038e-05
-2.7999e-07
1.67491e-05
-3.45277e-07
1.71934e-05
-4.44339e-07
-4.61091e-07
1.76545e-05
1.53394e-05
7.42066e-09
1.53434e-05
1.41389e-08
1.53467e-05
1.3352e-08
1.53499e-05
1.28667e-08
1.53535e-05
1.22921e-08
1.53576e-05
1.11877e-08
1.53624e-05
9.56304e-09
1.53683e-05
7.36535e-09
1.53754e-05
4.67561e-09
1.53841e-05
1.52509e-09
1.53946e-05
-2.48605e-09
1.54073e-05
-7.22126e-09
1.54227e-05
-1.28904e-08
1.54411e-05
-1.9737e-08
1.54634e-05
-2.80342e-08
1.549e-05
-3.81014e-08
1.55218e-05
-5.01451e-08
1.55602e-05
-6.5147e-08
1.56064e-05
-8.34621e-08
1.566e-05
-1.0459e-07
1.57265e-05
-1.32912e-07
1.58129e-05
-1.71116e-07
1.59213e-05
-2.17451e-07
1.60552e-05
-2.73297e-07
1.622e-05
-3.4191e-07
1.64237e-05
-4.26745e-07
1.6676e-05
-5.32291e-07
1.69889e-05
-6.58124e-07
1.73771e-05
-8.32587e-07
-9.41054e-07
1.78571e-05
1.53361e-05
4.61206e-09
1.53398e-05
1.05007e-08
1.53424e-05
1.07636e-08
1.53453e-05
9.90543e-09
1.53486e-05
9.0065e-09
1.53523e-05
7.48025e-09
1.53567e-05
5.19555e-09
1.5362e-05
2.03947e-09
1.53685e-05
-1.77421e-09
1.53764e-05
-6.44062e-09
1.53861e-05
-1.21832e-08
1.5398e-05
-1.90728e-08
1.54124e-05
-2.73316e-08
1.54299e-05
-3.7266e-08
1.54512e-05
-4.92585e-08
1.54769e-05
-6.38023e-08
1.55081e-05
-8.14105e-08
1.55461e-05
-1.03073e-07
1.55924e-05
-1.29761e-07
1.56498e-05
-1.62044e-07
1.57199e-05
-2.03025e-07
1.58047e-05
-2.559e-07
1.59086e-05
-3.21351e-07
1.60368e-05
-4.01444e-07
1.61953e-05
-5.00429e-07
1.63917e-05
-6.2315e-07
1.66358e-05
-7.76439e-07
1.6939e-05
-9.61296e-07
1.73172e-05
-1.21077e-06
-1.41885e-06
1.7795e-05
1.5335e-05
2.95765e-09
1.53381e-05
7.42128e-09
1.53406e-05
8.22167e-09
1.53432e-05
7.26518e-09
1.53463e-05
5.91982e-09
1.53499e-05
3.87098e-09
1.53542e-05
9.68569e-10
1.53593e-05
-3.08627e-09
1.53656e-05
-8.04836e-09
1.53733e-05
-1.41411e-08
1.53827e-05
-2.157e-08
1.53941e-05
-3.05291e-08
1.54081e-05
-4.12775e-08
1.5425e-05
-5.41935e-08
1.54455e-05
-6.97701e-08
1.54703e-05
-8.86455e-08
1.55005e-05
-1.11586e-07
1.55372e-05
-1.39725e-07
1.55818e-05
-1.7439e-07
1.56367e-05
-2.16918e-07
1.57038e-05
-2.70179e-07
1.57855e-05
-3.37574e-07
1.58855e-05
-4.21318e-07
1.60086e-05
-5.24572e-07
1.61608e-05
-6.52632e-07
1.63494e-05
-8.11792e-07
1.65839e-05
-1.01094e-06
1.68764e-05
-1.25372e-06
1.72402e-05
-1.57459e-06
-1.88462e-06
1.7706e-05
1.53344e-05
1.89972e-09
1.53368e-05
5.06077e-09
1.53391e-05
5.8653e-09
1.53415e-05
4.85376e-09
1.53444e-05
3.06181e-09
1.53478e-05
4.10194e-10
1.5352e-05
-3.15002e-09
1.53569e-05
-8.02751e-09
1.53629e-05
-1.40931e-08
1.53703e-05
-2.1528e-08
1.53793e-05
-3.05808e-08
1.53903e-05
-4.15096e-08
1.54037e-05
-5.46267e-08
1.54199e-05
-7.0379e-08
1.54394e-05
-8.93618e-08
1.54632e-05
-1.12353e-07
1.54919e-05
-1.40332e-07
1.55268e-05
-1.7462e-07
1.55693e-05
-2.16852e-07
1.56213e-05
-2.68924e-07
1.56848e-05
-3.33758e-07
1.57622e-05
-4.14982e-07
1.58569e-05
-5.15994e-07
1.59734e-05
-6.41093e-07
1.61174e-05
-7.96589e-07
1.62958e-05
-9.90215e-07
1.65176e-05
-1.23274e-06
1.67949e-05
-1.53101e-06
1.71398e-05
-1.91952e-06
-2.32898e-06
1.75842e-05
1.53341e-05
1.16951e-09
1.53359e-05
3.22432e-09
1.53381e-05
3.7146e-09
1.53404e-05
2.54586e-09
1.53431e-05
3.39041e-10
1.53463e-05
-2.82887e-09
1.53503e-05
-7.08494e-09
1.5355e-05
-1.274e-08
1.53607e-05
-1.98384e-08
1.53677e-05
-2.85403e-08
1.53763e-05
-3.9123e-08
1.53867e-05
-5.1896e-08
1.53993e-05
-6.72318e-08
1.54145e-05
-8.56423e-08
1.5433e-05
-1.07816e-07
1.54553e-05
-1.34661e-07
1.54823e-05
-1.67342e-07
1.5515e-05
-2.07374e-07
1.55549e-05
-2.56657e-07
1.56034e-05
-3.17497e-07
1.56627e-05
-3.93022e-07
1.57349e-05
-4.87168e-07
1.58231e-05
-6.04238e-07
1.59316e-05
-7.4955e-07
1.60654e-05
-9.30421e-07
1.62312e-05
-1.15598e-06
1.64372e-05
-1.43878e-06
1.66952e-05
-1.789e-06
1.70164e-05
-2.24076e-06
-2.74583e-06
1.74333e-05
1.53339e-05
6.24485e-10
1.53353e-05
1.75316e-09
1.53373e-05
1.79591e-09
1.53394e-05
3.94131e-10
1.5342e-05
-2.19296e-09
1.5345e-05
-5.87077e-09
1.53487e-05
-1.07809e-08
1.53531e-05
-1.71849e-08
1.53585e-05
-2.52334e-08
1.53651e-05
-3.51106e-08
1.53731e-05
-4.71124e-08
1.53828e-05
-6.15921e-08
1.53945e-05
-7.89763e-08
1.54087e-05
-9.98379e-08
1.54259e-05
-1.24951e-07
1.54465e-05
-1.55341e-07
1.54715e-05
-1.92333e-07
1.55018e-05
-2.37624e-07
1.55385e-05
-2.93349e-07
1.55831e-05
-3.62132e-07
1.56374e-05
-4.47365e-07
1.57036e-05
-5.53311e-07
1.57843e-05
-6.84974e-07
1.58833e-05
-8.4857e-07
1.60053e-05
-1.05238e-06
1.61562e-05
-1.30683e-06
1.63435e-05
-1.62613e-06
1.65783e-05
-2.0238e-06
1.6871e-05
-2.53347e-06
-3.12886e-06
1.7254e-05
1.53338e-05
1.9255e-10
1.5335e-05
5.44616e-10
1.53367e-05
1.03078e-10
1.53387e-05
-1.5969e-09
1.5341e-05
-4.5463e-09
1.53438e-05
-8.7067e-09
1.53473e-05
-1.42179e-08
1.53514e-05
-2.13262e-08
1.53564e-05
-3.02419e-08
1.53625e-05
-4.11885e-08
1.53699e-05
-5.44816e-08
1.53788e-05
-7.05101e-08
1.53896e-05
-8.97491e-08
1.54026e-05
-1.12827e-07
1.54182e-05
-1.40594e-07
1.5437e-05
-1.74179e-07
1.54598e-05
-2.15043e-07
1.54872e-05
-2.65049e-07
1.55204e-05
-3.26528e-07
1.55606e-05
-4.02366e-07
1.56094e-05
-4.96212e-07
1.56688e-05
-6.1264e-07
1.5741e-05
-7.57217e-07
1.58293e-05
-9.36912e-07
1.59378e-05
-1.16086e-06
1.60717e-05
-1.44069e-06
1.62376e-05
-1.79206e-06
1.64455e-05
-2.23172e-06
1.67049e-05
-2.7928e-06
-3.47135e-06
1.70474e-05
1.53337e-05
-1.65369e-10
1.53347e-05
-4.71778e-10
1.53362e-05
-1.38909e-09
1.5338e-05
-3.41961e-09
1.53402e-05
-6.71379e-09
1.53428e-05
-1.13165e-08
1.5346e-05
-1.73748e-08
1.53498e-05
-2.51286e-08
1.53543e-05
-3.48239e-08
1.53599e-05
-4.67233e-08
1.53666e-05
-6.11648e-08
1.53746e-05
-7.85673e-08
1.53843e-05
-9.9447e-08
1.5396e-05
-1.24482e-07
1.541e-05
-1.54587e-07
1.54268e-05
-1.9098e-07
1.5447e-05
-2.35239e-07
1.54713e-05
-2.89361e-07
1.55006e-05
-3.55846e-07
1.5536e-05
-4.37788e-07
1.55789e-05
-5.39058e-07
1.56307e-05
-6.64502e-07
1.56936e-05
-8.2013e-07
1.57702e-05
-1.01351e-06
1.58639e-05
-1.25449e-06
1.59789e-05
-1.55571e-06
1.61209e-05
-1.9341e-06
1.62985e-05
-2.40933e-06
1.65198e-05
-3.01407e-06
-3.76636e-06
1.68148e-05
1.53336e-05
-4.72614e-10
1.53345e-05
-1.33919e-09
1.53358e-05
-2.70133e-09
1.53375e-05
-5.06867e-09
1.53394e-05
-8.69409e-09
1.53418e-05
-1.36989e-08
1.53447e-05
-2.02448e-08
1.53481e-05
-2.85705e-08
1.53523e-05
-3.8947e-08
1.53572e-05
-5.16714e-08
1.53632e-05
-6.71054e-08
1.53703e-05
-8.56923e-08
1.53788e-05
-1.07982e-07
1.5389e-05
-1.34694e-07
1.54012e-05
-1.66798e-07
1.54158e-05
-2.05584e-07
1.54333e-05
-2.52721e-07
1.54543e-05
-3.1032e-07
1.54794e-05
-3.8101e-07
1.55097e-05
-4.68044e-07
1.55461e-05
-5.7547e-07
1.559e-05
-7.08348e-07
1.56428e-05
-8.73009e-07
1.57068e-05
-1.07746e-06
1.57844e-05
-1.33211e-06
1.5879e-05
-1.65034e-06
1.59951e-05
-2.05013e-06
1.61394e-05
-2.55363e-06
1.63183e-05
-3.19296e-06
-4.00697e-06
1.65589e-05
1.53336e-05
-7.36002e-10
1.53343e-05
-2.0875e-09
1.53355e-05
-3.85736e-09
1.5337e-05
-6.55422e-09
1.53388e-05
-1.04914e-08
1.53409e-05
-1.58503e-08
1.53435e-05
-2.28147e-08
1.53466e-05
-3.16285e-08
1.53502e-05
-4.25803e-08
1.53545e-05
-5.59946e-08
1.53597e-05
-7.22542e-08
1.53658e-05
-9.1823e-08
1.53731e-05
-1.15277e-07
1.53818e-05
-1.43369e-07
1.53921e-05
-1.77112e-07
1.54043e-05
-2.17851e-07
1.5419e-05
-2.67324e-07
1.54364e-05
-3.27727e-07
1.54571e-05
-4.01781e-07
1.54819e-05
-4.9285e-07
1.55116e-05
-6.05104e-07
1.5547e-05
-7.43747e-07
1.55893e-05
-9.15311e-07
1.56399e-05
-1.12808e-06
1.57006e-05
-1.39281e-06
1.57736e-05
-1.72339e-06
1.5862e-05
-2.13846e-06
1.59704e-05
-2.66211e-06
1.61032e-05
-3.3257e-06
-4.18672e-06
1.62829e-05
1.53336e-05
-9.61696e-10
1.53342e-05
-2.74022e-09
1.53352e-05
-4.88066e-09
1.53366e-05
-7.88534e-09
1.53382e-05
-1.21041e-08
1.53401e-05
-1.77649e-08
1.53424e-05
-2.50754e-08
1.5345e-05
-3.42871e-08
1.53481e-05
-4.57011e-08
1.53518e-05
-5.96623e-08
1.53561e-05
-7.65721e-08
1.53612e-05
-9.69103e-08
1.53672e-05
-1.21272e-07
1.53743e-05
-1.50435e-07
1.53826e-05
-1.8544e-07
1.53924e-05
-2.27673e-07
1.5404e-05
-2.7892e-07
1.54177e-05
-3.41427e-07
1.54339e-05
-4.17977e-07
1.54531e-05
-5.11994e-07
1.54757e-05
-6.2771e-07
1.55023e-05
-7.70393e-07
1.55337e-05
-9.46659e-07
1.55705e-05
-1.1649e-06
1.56137e-05
-1.436e-06
1.56643e-05
-1.77404e-06
1.57238e-05
-2.19791e-06
1.57946e-05
-2.73293e-06
1.58782e-05
-3.40935e-06
-4.3001e-06
1.59916e-05
1.53335e-05
-1.15775e-09
1.53341e-05
-3.31453e-09
1.5335e-05
-5.78726e-09
1.53362e-05
-9.06993e-09
1.53376e-05
-1.35341e-08
1.53393e-05
-1.94414e-08
1.53412e-05
-2.70215e-08
1.53435e-05
-3.65348e-08
1.53461e-05
-4.82917e-08
1.53491e-05
-6.26515e-08
1.53525e-05
-8.00294e-08
1.53565e-05
-1.00917e-07
1.53612e-05
-1.25921e-07
1.53666e-05
-1.55833e-07
1.53729e-05
-1.91715e-07
1.53802e-05
-2.34972e-07
1.53887e-05
-2.87415e-07
1.53985e-05
-3.51316e-07
1.541e-05
-4.29478e-07
1.54234e-05
-5.25339e-07
1.54388e-05
-6.43132e-07
1.54565e-05
-7.88108e-07
1.54767e-05
-9.66849e-07
1.54995e-05
-1.18768e-06
1.55249e-05
-1.46138e-06
1.55527e-05
-1.8019e-06
1.55827e-05
-2.22789e-06
1.56149e-05
-2.76509e-06
1.56476e-05
-3.44211e-06
-4.34308e-06
1.56906e-05
1.53335e-05
-1.33026e-09
1.5334e-05
-3.8227e-09
1.53348e-05
-6.59158e-09
1.53359e-05
-1.01183e-08
1.53371e-05
-1.47858e-08
1.53386e-05
-2.088e-08
1.53402e-05
-2.86502e-08
1.5342e-05
-3.83652e-08
1.53441e-05
-5.03413e-08
1.53464e-05
-6.49468e-08
1.53489e-05
-8.26059e-08
1.53518e-05
-1.03817e-07
1.53551e-05
-1.29192e-07
1.53588e-05
-1.59529e-07
1.5363e-05
-1.95893e-07
1.53677e-05
-2.39697e-07
1.5373e-05
-2.92754e-07
1.53791e-05
-3.57332e-07
1.53858e-05
-4.36219e-07
1.53933e-05
-5.32821e-07
1.54015e-05
-6.51313e-07
1.54102e-05
-7.96846e-07
1.54192e-05
-9.7585e-07
1.5428e-05
-1.19642e-06
1.54356e-05
-1.469e-06
1.54407e-05
-1.80705e-06
1.54413e-05
-2.22848e-06
1.54348e-05
-2.75853e-06
1.54162e-05
-3.4235e-06
-4.31369e-06
1.53868e-05
1.53335e-05
-1.48356e-09
1.53339e-05
-4.27581e-09
1.53347e-05
-7.30728e-09
1.53356e-05
-1.10414e-08
1.53367e-05
-1.58655e-08
1.53379e-05
-2.20841e-08
1.53392e-05
-2.99626e-08
1.53406e-05
-3.97766e-08
1.53421e-05
-5.1845e-08
1.53437e-05
-6.65404e-08
1.53454e-05
-8.42914e-08
1.53471e-05
-1.05598e-07
1.5349e-05
-1.3107e-07
1.5351e-05
-1.61503e-07
1.53531e-05
-1.97956e-07
1.53552e-05
-2.41829e-07
1.53574e-05
-2.94919e-07
1.53595e-05
-3.59461e-07
1.53615e-05
-4.38196e-07
1.53631e-05
-5.34454e-07
1.53641e-05
-6.52291e-07
1.53639e-05
-7.96684e-07
1.53619e-05
-9.73804e-07
1.53568e-05
-1.19137e-06
1.5347e-05
-1.45923e-06
1.533e-05
-1.79005e-06
1.5302e-05
-2.20046e-06
1.52577e-05
-2.71426e-06
1.51889e-05
-3.35466e-06
-4.21254e-06
1.50877e-05
1.53335e-05
-1.62144e-09
1.53339e-05
-4.68455e-09
1.53345e-05
-7.94789e-09
1.53353e-05
-1.18512e-08
1.53362e-05
-1.67818e-08
1.53372e-05
-2.30596e-08
1.53382e-05
-3.0963e-08
1.53392e-05
-4.07717e-08
1.53402e-05
-5.28039e-08
1.53411e-05
-6.74323e-08
1.53419e-05
-8.50852e-08
1.53425e-05
-1.06258e-07
1.5343e-05
-1.31555e-07
1.53433e-05
-1.61757e-07
1.53432e-05
-1.97907e-07
1.53428e-05
-2.41378e-07
1.53418e-05
-2.93927e-07
1.534e-05
-3.57735e-07
1.53373e-05
-4.35462e-07
1.53332e-05
-5.30319e-07
1.53271e-05
-6.46196e-07
1.53182e-05
-7.87823e-07
1.53054e-05
-9.61016e-07
1.5287e-05
-1.17297e-06
1.52606e-05
-1.43276e-06
1.52224e-05
-1.7519e-06
1.51672e-05
-2.14529e-06
1.50873e-05
-2.63434e-06
1.49711e-05
-3.23842e-06
-4.04315e-06
1.48017e-05
1.53335e-05
-1.74778e-09
1.53338e-05
-5.06e-09
1.53344e-05
-8.52778e-09
1.53351e-05
-1.2561e-08
1.53359e-05
-1.7545e-08
1.53366e-05
-2.38147e-08
1.53373e-05
-3.16591e-08
1.53379e-05
-4.13578e-08
1.53383e-05
-5.3225e-08
1.53385e-05
-6.76299e-08
1.53385e-05
-8.49961e-08
1.5338e-05
-1.0581e-07
1.53371e-05
-1.30661e-07
1.53357e-05
-1.60311e-07
1.53335e-05
-1.95773e-07
1.53305e-05
-2.38379e-07
1.53264e-05
-2.8983e-07
1.53209e-05
-3.52228e-07
1.53136e-05
-4.2812e-07
1.53038e-05
-5.20567e-07
1.52909e-05
-6.33243e-07
1.52736e-05
-7.70576e-07
1.52506e-05
-9.37939e-07
1.52195e-05
-1.14189e-06
1.51773e-05
-1.39055e-06
1.51194e-05
-1.69405e-06
1.50392e-05
-2.06509e-06
1.49268e-05
-2.52191e-06
1.47677e-05
-3.07928e-06
-3.81212e-06
1.45366e-05
1.53335e-05
-1.86702e-09
1.53338e-05
-5.41468e-09
1.53343e-05
-9.06305e-09
1.5335e-05
-1.31854e-08
1.53356e-05
-1.8167e-08
1.53361e-05
-2.43604e-08
1.53365e-05
-3.2062e-08
1.53367e-05
-4.15464e-08
1.53366e-05
-5.3121e-08
1.53361e-05
-6.71481e-08
1.53352e-05
-8.40424e-08
1.53337e-05
-1.04276e-07
1.53314e-05
-1.28417e-07
1.53283e-05
-1.57201e-07
1.53241e-05
-1.91603e-07
1.53186e-05
-2.32899e-07
1.53115e-05
-2.82715e-07
1.53024e-05
-3.43053e-07
1.52906e-05
-4.16326e-07
1.52754e-05
-5.0541e-07
1.52559e-05
-6.13727e-07
1.52307e-05
-7.45353e-07
1.51979e-05
-9.05157e-07
1.5155e-05
-1.09897e-06
1.50983e-05
-1.33384e-06
1.50225e-05
-1.61829e-06
1.492e-05
-1.96256e-06
1.47791e-05
-2.38101e-06
1.45831e-05
-2.88333e-06
-3.52898e-06
1.43e-05
1.53335e-05
-1.98459e-09
1.53338e-05
-5.76372e-09
1.53343e-05
-9.57245e-09
1.53349e-05
-1.37409e-08
1.53354e-05
-1.86614e-08
1.53357e-05
-2.47098e-08
1.53358e-05
-3.21859e-08
1.53356e-05
-4.13535e-08
1.5335e-05
-5.251e-08
1.53339e-05
-6.60089e-08
1.53321e-05
-8.22516e-08
1.53295e-05
-1.0169e-07
1.5326e-05
-1.24868e-07
1.53212e-05
-1.52484e-07
1.53151e-05
-1.85467e-07
1.53072e-05
-2.25026e-07
1.52972e-05
-2.72697e-07
1.52845e-05
-3.30363e-07
1.52685e-05
-4.0028e-07
1.52482e-05
-4.85115e-07
1.52225e-05
-5.88009e-07
1.51898e-05
-7.1265e-07
1.5148e-05
-8.63364e-07
1.50942e-05
-1.0452e-06
1.50244e-05
-1.26405e-06
1.49328e-05
-1.52673e-06
1.48111e-05
-1.84081e-06
1.46465e-05
-2.21641e-06
1.4421e-05
-2.65784e-06
-3.20568e-06
1.40977e-05
1.53335e-05
-2.10767e-09
1.53338e-05
-6.12656e-09
1.53343e-05
-1.00783e-08
1.53348e-05
-1.4245e-08
1.53352e-05
-1.90428e-08
1.53354e-05
-2.48786e-08
1.53352e-05
-3.20482e-08
1.53347e-05
-4.07987e-08
1.53336e-05
-5.14155e-08
1.53318e-05
-6.42411e-08
1.53292e-05
-7.96598e-08
1.53256e-05
-9.80984e-08
1.53208e-05
-1.20068e-07
1.53146e-05
-1.46231e-07
1.53066e-05
-1.77455e-07
1.52964e-05
-2.14874e-07
1.52836e-05
-2.59921e-07
1.52676e-05
-3.14343e-07
1.52476e-05
-3.80222e-07
1.52225e-05
-4.59997e-07
1.51909e-05
-5.56508e-07
1.51513e-05
-6.73033e-07
1.51013e-05
-8.13333e-07
1.50378e-05
-9.81662e-07
1.49564e-05
-1.18273e-06
1.48513e-05
-1.42162e-06
1.47138e-05
-1.70326e-06
1.45307e-05
-2.03334e-06
1.42838e-05
-2.41094e-06
-2.85582e-06
1.39339e-05
1.53335e-05
-2.24629e-09
1.53339e-05
-6.52926e-09
1.53344e-05
-1.06072e-08
1.53349e-05
-1.47166e-08
1.53352e-05
-1.93272e-08
1.53352e-05
-2.48841e-08
1.53348e-05
-3.16674e-08
1.53339e-05
-3.9903e-08
1.53323e-05
-4.98648e-08
1.533e-05
-6.18817e-08
1.53266e-05
-7.63142e-08
1.53221e-05
-9.35577e-08
1.53161e-05
-1.14089e-07
1.53084e-05
-1.38526e-07
1.52986e-05
-1.67674e-07
1.52863e-05
-2.02579e-07
1.5271e-05
-2.44557e-07
1.52518e-05
-2.95209e-07
1.5228e-05
-3.56427e-07
1.51985e-05
-4.30411e-07
1.51616e-05
-5.19685e-07
1.51157e-05
-6.27115e-07
1.50583e-05
-7.55895e-07
1.49861e-05
-9.09494e-07
1.48949e-05
-1.09149e-06
1.47786e-05
-1.30531e-06
1.46287e-05
-1.55338e-06
1.44325e-05
-1.83715e-06
1.41725e-05
-2.15096e-06
-2.49367e-06
1.38104e-05
1.53335e-05
-2.41546e-09
1.5334e-05
-7.00825e-09
1.53346e-05
-1.11911e-08
1.5335e-05
-1.51741e-08
1.53352e-05
-1.95274e-08
1.53351e-05
-2.47432e-08
1.53345e-05
-3.10719e-08
1.53333e-05
-3.87009e-08
1.53313e-05
-4.78937e-08
1.53284e-05
-5.89698e-08
1.53243e-05
-7.22619e-08
1.53189e-05
-8.81282e-08
1.53118e-05
-1.07008e-07
1.53028e-05
-1.2947e-07
1.52914e-05
-1.5625e-07
1.52771e-05
-1.88294e-07
1.52593e-05
-2.26798e-07
1.52373e-05
-2.73202e-07
1.52101e-05
-3.29201e-07
1.51764e-05
-3.96745e-07
1.51348e-05
-4.78041e-07
1.50832e-05
-5.75545e-07
1.50192e-05
-6.91909e-07
1.49396e-05
-8.29862e-07
1.484e-05
-9.91943e-07
1.47148e-05
-1.18009e-06
1.4556e-05
-1.39454e-06
1.43518e-05
-1.633e-06
1.40868e-05
-1.88594e-06
-2.133e-06
1.37261e-05
1.53336e-05
-2.63858e-09
1.53342e-05
-7.61691e-09
1.53348e-05
-1.18665e-08
1.53353e-05
-1.56316e-08
1.53354e-05
-1.96675e-08
1.53352e-05
-2.44886e-08
1.53344e-05
-3.02812e-08
1.53329e-05
-3.72105e-08
1.53305e-05
-4.55346e-08
1.53271e-05
-5.55528e-08
1.53224e-05
-6.75642e-08
1.53162e-05
-8.18858e-08
1.53081e-05
-9.89184e-08
1.52978e-05
-1.19179e-07
1.52849e-05
-1.43323e-07
1.52688e-05
-1.72195e-07
1.52488e-05
-2.06858e-07
1.52242e-05
-2.48588e-07
1.51939e-05
-2.98872e-07
1.51566e-05
-3.59408e-07
1.51106e-05
-4.32093e-07
1.5054e-05
-5.18986e-07
1.49844e-05
-6.22235e-07
1.48984e-05
-7.43904e-07
1.47921e-05
-8.85628e-07
1.46601e-05
-1.04808e-06
1.44954e-05
-1.2298e-06
1.42878e-05
-1.42549e-06
1.40248e-05
-1.62293e-06
-1.78593e-06
1.36778e-05
1.53336e-05
-2.9545e-09
1.53345e-05
-8.4319e-09
1.53353e-05
-1.26711e-08
1.53357e-05
-1.61053e-08
1.53358e-05
-1.97672e-08
1.53355e-05
-2.41397e-08
1.53345e-05
-2.93206e-08
1.53328e-05
-3.54642e-08
1.53301e-05
-4.2826e-08
1.53262e-05
-5.16793e-08
1.53209e-05
-6.22836e-08
1.53139e-05
-7.49084e-08
1.53049e-05
-8.99176e-08
1.52935e-05
-1.07773e-07
1.52793e-05
-1.29044e-07
1.52615e-05
-1.54468e-07
1.52396e-05
-1.84968e-07
1.52127e-05
-2.21649e-07
1.51796e-05
-2.65789e-07
1.5139e-05
-3.18835e-07
1.50893e-05
-3.82378e-07
1.50285e-05
-4.58109e-07
1.49539e-05
-5.4772e-07
1.48627e-05
-6.52704e-07
1.47511e-05
-7.73959e-07
1.46142e-05
-9.11177e-07
1.44461e-05
-1.06177e-06
1.4239e-05
-1.21835e-06
1.39836e-05
-1.36753e-06
-1.4619e-06
1.36596e-05
1.53338e-05
-3.43562e-09
1.53349e-05
-9.56255e-09
1.53359e-05
-1.36257e-08
1.53364e-05
-1.66058e-08
1.53365e-05
-1.9861e-08
1.53361e-05
-2.37294e-08
1.5335e-05
-2.82203e-08
1.5333e-05
-3.35e-08
1.533e-05
-3.98154e-08
1.53257e-05
-4.74085e-08
1.53199e-05
-5.6495e-08
1.53123e-05
-6.72868e-08
1.53025e-05
-8.01168e-08
1.52901e-05
-9.53888e-08
1.52747e-05
-1.13579e-07
1.52555e-05
-1.35313e-07
1.52319e-05
-1.61372e-07
1.5203e-05
-1.92682e-07
1.51675e-05
-2.30313e-07
1.51241e-05
-2.75461e-07
1.50712e-05
-3.29428e-07
1.50066e-05
-3.93565e-07
1.49281e-05
-4.69165e-07
1.48326e-05
-5.57252e-07
1.47168e-05
-6.58163e-07
1.45765e-05
-7.70907e-07
1.44072e-05
-8.92409e-07
1.42031e-05
-1.01425e-06
1.39592e-05
-1.1236e-06
-1.16748e-06
1.36647e-05
1.53341e-05
-4.22361e-09
1.53357e-05
-1.11743e-08
1.53368e-05
-1.47147e-08
1.53373e-05
-1.71324e-08
1.53375e-05
-1.99664e-08
1.5337e-05
-2.32642e-08
1.53358e-05
-2.69928e-08
1.53336e-05
-3.13482e-08
1.53303e-05
-3.6549e-08
1.53257e-05
-4.27997e-08
1.53195e-05
-5.02717e-08
1.53113e-05
-5.91113e-08
1.53009e-05
-6.96343e-08
1.52876e-05
-8.21716e-08
1.52712e-05
-9.71039e-08
1.52508e-05
-1.14945e-07
1.52257e-05
-1.3633e-07
1.51951e-05
-1.62004e-07
1.51576e-05
-1.92825e-07
1.51119e-05
-2.29747e-07
1.50562e-05
-2.73796e-07
1.49887e-05
-3.26014e-07
1.49069e-05
-3.87363e-07
1.48081e-05
-4.58502e-07
1.46893e-05
-5.39374e-07
1.4547e-05
-6.28577e-07
1.43779e-05
-7.23309e-07
1.41788e-05
-8.15138e-07
1.39493e-05
-8.94072e-07
-9.05581e-07
1.36874e-05
1.53347e-05
-5.57631e-09
1.5337e-05
-1.34776e-08
1.53382e-05
-1.59348e-08
1.53388e-05
-1.77668e-08
1.5339e-05
-2.01384e-08
1.53385e-05
-2.27636e-08
1.53372e-05
-2.56618e-08
1.53349e-05
-2.90417e-08
1.53314e-05
-3.30708e-08
1.53265e-05
-3.79255e-08
1.532e-05
-4.37064e-08
1.53113e-05
-5.04751e-08
1.53003e-05
-5.85917e-08
1.52864e-05
-6.82763e-08
1.52691e-05
-7.98141e-08
1.52478e-05
-9.36069e-08
1.52216e-05
-1.10139e-07
1.51895e-05
-1.29976e-07
1.51505e-05
-1.53766e-07
1.5103e-05
-1.82229e-07
1.50453e-05
-2.16133e-07
1.49755e-05
-2.56245e-07
1.48914e-05
-3.0327e-07
1.47906e-05
-3.57636e-07
1.46703e-05
-4.19082e-07
1.45278e-05
-4.86125e-07
1.43614e-05
-5.56927e-07
1.41699e-05
-6.23579e-07
1.39579e-05
-6.82121e-07
-6.75504e-07
1.37279e-05
1.53358e-05
-8.01024e-09
1.53387e-05
-1.63694e-08
1.53399e-05
-1.71895e-08
1.53408e-05
-1.863e-08
1.5341e-05
-2.04054e-08
1.53405e-05
-2.22481e-08
1.53391e-05
-2.42763e-08
1.53367e-05
-2.66413e-08
1.53331e-05
-2.94228e-08
1.5328e-05
-3.28298e-08
1.53212e-05
-3.69041e-08
1.53122e-05
-4.1507e-08
1.53008e-05
-4.71358e-08
1.52864e-05
-5.38699e-08
1.52685e-05
-6.19116e-08
1.52464e-05
-7.15479e-08
1.52194e-05
-8.31083e-08
1.51864e-05
-9.69832e-08
1.51462e-05
-1.13622e-07
1.50975e-05
-1.33529e-07
1.50387e-05
-1.57249e-07
1.49677e-05
-1.8534e-07
1.48828e-05
-2.18323e-07
1.47817e-05
-2.56534e-07
1.46624e-05
-2.99756e-07
1.45232e-05
-3.46937e-07
1.43633e-05
-3.97053e-07
1.4182e-05
-4.42256e-07
1.39847e-05
-4.8481e-07
-4.62134e-07
1.37713e-05
1.53394e-05
-1.40291e-08
1.53424e-05
-1.94233e-08
1.53437e-05
-1.84574e-08
1.5344e-05
-1.90003e-08
1.53437e-05
-2.0018e-08
1.53424e-05
-2.09962e-08
1.53402e-05
-2.20434e-08
1.53368e-05
-2.3274e-08
1.53321e-05
-2.47227e-08
1.53258e-05
-2.65321e-08
1.53176e-05
-2.87025e-08
1.53072e-05
-3.1083e-08
1.52941e-05
-3.40793e-08
1.52779e-05
-3.7684e-08
1.5258e-05
-4.20101e-08
1.52337e-05
-4.72315e-08
1.52042e-05
-5.35425e-08
1.51683e-05
-6.11759e-08
1.51251e-05
-7.04024e-08
1.50731e-05
-8.15283e-08
1.50108e-05
-9.48896e-08
1.49363e-05
-1.10836e-07
1.48476e-05
-1.29688e-07
1.47427e-05
-1.51655e-07
1.46197e-05
-1.76661e-07
1.44767e-05
-2.03946e-07
1.43115e-05
-2.31867e-07
1.4123e-05
-2.5378e-07
1.3908e-05
-2.69837e-07
-1.94043e-07
1.36399e-05
1.53193e-05
1.52999e-05
1.52814e-05
1.52624e-05
1.52424e-05
1.52214e-05
1.51994e-05
1.51761e-05
1.51514e-05
1.51248e-05
1.50961e-05
1.50651e-05
1.5031e-05
1.49933e-05
1.49513e-05
1.4904e-05
1.48505e-05
1.47893e-05
1.47189e-05
1.46374e-05
1.45425e-05
1.44317e-05
1.4302e-05
1.41503e-05
1.39737e-05
1.37697e-05
1.35379e-05
1.32841e-05
1.30142e-05
1.28202e-05
1.74021e-05
-8.10092e-06
8.35331e-06
1.7161e-05
-8.24342e-06
8.48451e-06
1.68892e-05
-8.38374e-06
8.65551e-06
1.65845e-05
-8.5157e-06
8.82041e-06
1.62531e-05
-8.64746e-06
8.97887e-06
1.59008e-05
-8.78339e-06
9.13573e-06
1.5531e-05
-8.92496e-06
9.29472e-06
1.5146e-05
-9.07305e-06
9.45807e-06
1.47468e-05
-9.2284e-06
9.62756e-06
1.43337e-05
-9.39144e-06
9.80457e-06
1.3906e-05
-9.5623e-06
9.98999e-06
1.34628e-05
-9.74112e-06
1.01844e-05
1.30029e-05
-9.92825e-06
1.03881e-05
1.25253e-05
-1.01244e-05
1.0602e-05
1.20291e-05
-1.03305e-05
1.08268e-05
1.1513e-05
-1.0548e-05
1.10641e-05
1.09758e-05
-1.07785e-05
1.13157e-05
1.04161e-05
-1.1024e-05
1.15837e-05
9.83167e-06
-1.12868e-05
1.18712e-05
9.22023e-06
-1.15703e-05
1.21817e-05
8.57857e-06
-1.18781e-05
1.25197e-05
7.90265e-06
-1.22152e-05
1.28912e-05
7.1871e-06
-1.25881e-05
1.33036e-05
6.42495e-06
-1.30047e-05
1.37668e-05
5.60607e-06
-1.34753e-05
1.42942e-05
4.71773e-06
-1.4014e-05
1.49023e-05
3.7498e-06
-1.46352e-05
1.56031e-05
2.61882e-06
-1.53904e-05
1.65214e-05
1.47339e-06
-1.61325e-05
1.7278e-05
-1.75433e-05
1.90167e-05
1.75817e-05
-7.82556e-06
1.72713e-05
-7.93298e-06
1.69348e-05
-8.04725e-06
1.65821e-05
-8.16303e-06
1.62177e-05
-8.28302e-06
1.58435e-05
-8.40915e-06
1.546e-05
-8.54147e-06
1.50667e-05
-8.67978e-06
1.46624e-05
-8.82413e-06
1.42456e-05
-8.97466e-06
1.38149e-05
-9.13157e-06
1.3369e-05
-9.29522e-06
1.2907e-05
-9.46624e-06
1.2428e-05
-9.64541e-06
1.19312e-05
-9.83371e-06
1.14154e-05
-1.00323e-05
1.08794e-05
-1.02425e-05
1.03215e-05
-1.0466e-05
9.73959e-06
-1.0705e-05
9.13121e-06
-1.09619e-05
8.49312e-06
-1.124e-05
7.82119e-06
-1.15433e-05
7.11004e-06
-1.18769e-05
6.35263e-06
-1.22473e-05
5.53952e-06
-1.26622e-05
4.65838e-06
-1.31328e-05
3.69238e-06
-1.36692e-05
2.60442e-06
-1.43025e-05
1.43254e-06
-1.49606e-05
-1.61108e-05
1.74764e-05
-7.50699e-06
1.71438e-05
-7.60031e-06
1.67987e-05
-7.70215e-06
1.64454e-05
-7.80982e-06
1.60848e-05
-7.92236e-06
1.57153e-05
-8.03965e-06
1.53355e-05
-8.16166e-06
1.49441e-05
-8.28844e-06
1.45402e-05
-8.4202e-06
1.41229e-05
-8.5573e-06
1.36914e-05
-8.70014e-06
1.32454e-05
-8.84917e-06
1.27841e-05
-9.00496e-06
1.23068e-05
-9.16813e-06
1.18126e-05
-9.33944e-06
1.13001e-05
-9.51982e-06
1.0768e-05
-9.71039e-06
1.02145e-05
-9.91252e-06
9.63741e-06
-1.01279e-05
9.03419e-06
-1.03587e-05
8.40152e-06
-1.06073e-05
7.73518e-06
-1.0877e-05
7.02981e-06
-1.11715e-05
6.27836e-06
-1.14958e-05
5.47171e-06
-1.18555e-05
4.59758e-06
-1.22587e-05
3.63992e-06
-1.27115e-05
2.57295e-06
-1.32355e-05
1.39622e-06
-1.37839e-05
-1.47146e-05
1.73776e-05
-7.17866e-06
1.70405e-05
-7.2632e-06
1.66936e-05
-7.35522e-06
1.63378e-05
-7.45404e-06
1.5973e-05
-7.55755e-06
1.55981e-05
-7.66477e-06
1.52124e-05
-7.77591e-06
1.48153e-05
-7.89137e-06
1.44066e-05
-8.01145e-06
1.39856e-05
-8.13638e-06
1.3552e-05
-8.26647e-06
1.31048e-05
-8.40204e-06
1.26434e-05
-8.54352e-06
1.21667e-05
-8.69142e-06
1.16736e-05
-8.84635e-06
1.11629e-05
-9.00908e-06
1.0633e-05
-9.18051e-06
1.00822e-05
-9.36175e-06
9.50838e-06
-9.55409e-06
8.90884e-06
-9.75913e-06
8.28028e-06
-9.97874e-06
7.61854e-06
-1.02152e-05
6.91831e-06
-1.04713e-05
6.17282e-06
-1.07503e-05
5.3733e-06
-1.1056e-05
4.50824e-06
-1.13937e-05
3.56282e-06
-1.17661e-05
2.51632e-06
-1.2189e-05
1.35426e-06
-1.26218e-05
-1.33603e-05
1.72478e-05
-6.84225e-06
1.69036e-05
-6.91902e-06
1.65506e-05
-7.00219e-06
1.6189e-05
-7.09243e-06
1.58187e-05
-7.18725e-06
1.54391e-05
-7.28521e-06
1.50497e-05
-7.38651e-06
1.465e-05
-7.49165e-06
1.42394e-05
-7.60088e-06
1.38173e-05
-7.71432e-06
1.3383e-05
-7.83217e-06
1.29357e-05
-7.95473e-06
1.24746e-05
-8.08236e-06
1.19986e-05
-8.21547e-06
1.15068e-05
-8.35455e-06
1.09979e-05
-8.50017e-06
1.04704e-05
-8.65302e-06
9.92255e-06
-8.81388e-06
9.35213e-06
-8.98368e-06
8.75652e-06
-9.16352e-06
8.13244e-06
-9.35466e-06
7.47581e-06
-9.5586e-06
6.78153e-06
-9.77703e-06
6.04313e-06
-1.00119e-05
5.25238e-06
-1.02653e-05
4.39864e-06
-1.05399e-05
3.46848e-06
-1.0836e-05
2.44352e-06
-1.1164e-05
1.30546e-06
-1.14838e-05
-1.20548e-05
1.70904e-05
-6.49933e-06
1.67404e-05
-6.56904e-06
1.63824e-05
-6.64422e-06
1.60165e-05
-6.72645e-06
1.56422e-05
-6.81302e-06
1.52592e-05
-6.90216e-06
1.48667e-05
-6.99406e-06
1.44644e-05
-7.08929e-06
1.40515e-05
-7.18806e-06
1.36277e-05
-7.29043e-06
1.3192e-05
-7.39656e-06
1.2744e-05
-7.50667e-06
1.22827e-05
-7.62104e-06
1.18072e-05
-7.73997e-06
1.13164e-05
-7.86378e-06
1.08091e-05
-7.99286e-06
1.02837e-05
-8.12766e-06
9.73852e-06
-8.26868e-06
9.17134e-06
-8.4165e-06
8.57957e-06
-8.57175e-06
7.96004e-06
-8.73513e-06
7.30884e-06
-8.9074e-06
6.62113e-06
-9.08931e-06
5.89085e-06
-9.28164e-06
5.1104e-06
-9.48483e-06
4.27014e-06
-9.69965e-06
3.35801e-06
-9.92383e-06
2.35775e-06
-1.01638e-05
1.25135e-06
-1.03774e-05
-1.08035e-05
1.69053e-05
-6.15059e-06
1.655e-05
-6.21379e-06
1.61874e-05
-6.28159e-06
1.58172e-05
-6.35622e-06
1.5439e-05
-6.43485e-06
1.50524e-05
-6.51558e-06
1.46569e-05
-6.59855e-06
1.4252e-05
-6.68437e-06
1.38371e-05
-6.7732e-06
1.34118e-05
-6.86506e-06
1.29752e-05
-6.96002e-06
1.25268e-05
-7.05824e-06
1.20657e-05
-7.15989e-06
1.15908e-05
-7.26514e-06
1.11013e-05
-7.37419e-06
1.05956e-05
-7.48725e-06
1.00725e-05
-7.60455e-06
9.53018e-06
-7.72632e-06
8.96648e-06
-7.8528e-06
8.37894e-06
-7.9842e-06
7.76451e-06
-8.1207e-06
7.11951e-06
-8.2624e-06
6.43942e-06
-8.40922e-06
5.71867e-06
-8.56088e-06
4.95037e-06
-8.71653e-06
4.12589e-06
-8.87517e-06
3.23463e-06
-9.03257e-06
2.26251e-06
-9.19164e-06
1.19354e-06
-9.30842e-06
-9.60996e-06
1.66934e-05
-5.7966e-06
1.63334e-05
-5.85378e-06
1.59665e-05
-5.91473e-06
1.55924e-05
-5.98216e-06
1.52108e-05
-6.05324e-06
1.48212e-05
-6.12597e-06
1.44231e-05
-6.20047e-06
1.40161e-05
-6.27733e-06
1.35996e-05
-6.3567e-06
1.31731e-05
-6.43852e-06
1.27358e-05
-6.52278e-06
1.22872e-05
-6.60958e-06
1.18263e-05
-6.699e-06
1.13522e-05
-6.79109e-06
1.08639e-05
-6.88591e-06
1.03602e-05
-6.98352e-06
9.83955e-06
-7.08391e-06
9.30032e-06
-7.18709e-06
8.7405e-06
-7.29298e-06
8.15769e-06
-7.4014e-06
7.54906e-06
-7.51207e-06
6.91117e-06
-7.62451e-06
6.23988e-06
-7.73793e-06
5.53016e-06
-7.85116e-06
4.77586e-06
-7.96224e-06
3.96942e-06
-8.06873e-06
3.10172e-06
-8.16487e-06
2.1608e-06
-8.25072e-06
1.13356e-06
-8.28118e-06
-8.4764e-06
1.64561e-05
-5.43794e-06
1.60919e-05
-5.48952e-06
1.57213e-05
-5.54413e-06
1.53439e-05
-5.60474e-06
1.49592e-05
-5.66861e-06
1.4567e-05
-5.73373e-06
1.41667e-05
-5.80019e-06
1.37579e-05
-5.86853e-06
1.33401e-05
-5.93887e-06
1.29126e-05
-6.01109e-06
1.2475e-05
-6.08513e-06
1.20264e-05
-6.161e-06
1.15661e-05
-6.23868e-06
1.10932e-05
-6.31814e-06
1.06065e-05
-6.3993e-06
1.01051e-05
-6.48204e-06
9.58734e-06
-6.56619e-06
9.05176e-06
-6.65151e-06
8.49642e-06
-6.73764e-06
7.91911e-06
-6.82408e-06
7.31718e-06
-6.91014e-06
6.6875e-06
-6.99484e-06
6.02635e-06
-7.07678e-06
5.32924e-06
-7.15404e-06
4.59082e-06
-7.22382e-06
3.80455e-06
-7.28246e-06
2.96281e-06
-7.32314e-06
2.05561e-06
-7.34352e-06
1.07291e-06
-7.29848e-06
-7.40349e-06
1.61961e-05
-5.07516e-06
1.58281e-05
-5.12157e-06
1.54543e-05
-5.1703e-06
1.5074e-05
-5.22445e-06
1.46869e-05
-5.28146e-06
1.42925e-05
-5.33935e-06
1.38905e-05
-5.39816e-06
1.34803e-05
-5.4584e-06
1.30616e-05
-5.52014e-06
1.26337e-05
-5.58321e-06
1.21961e-05
-5.64749e-06
1.1748e-05
-5.71291e-06
1.12887e-05
-5.77938e-06
1.08173e-05
-5.84675e-06
1.03329e-05
-5.91482e-06
9.83415e-06
-5.98334e-06
9.31991e-06
-6.05195e-06
8.78862e-06
-6.12022e-06
8.23852e-06
-6.18754e-06
7.66757e-06
-6.25313e-06
7.07336e-06
-6.31593e-06
6.45307e-06
-6.37455e-06
5.80341e-06