/*--------------------------------*- C++ -*----------------------------------*\
  =========                 |
  \\      /  F ield         | OpenFOAM: The Open Source CFD Toolbox
   \\    /   O peration     | Website:  https://openfoam.org
    \\  /    A nd           | Version:  11
     \\/     M anipulation  |
\*---------------------------------------------------------------------------*/
FoamFile
{
    format      ascii;
    class       volVectorField;
    location    "4.6";
    object      U;
}
// * * * * * * * * * * * * * * * * * * * * * * * * * * * * * * * * * * * * * //

dimensions      [0 1 -1 0 0 0 0];

internalField   nonuniform List<vector> 
12600
(
(0.412281 6.52151e-05 0)
(0.412161 0.000125228 0)
(0.41195 0.000146678 0)
(0.411688 0.000154403 0)
(0.411422 0.000158736 0)
(0.411164 0.00015898 0)
(0.410913 0.000154747 0)
(0.410677 0.000146411 0)
(0.410464 0.000135036 0)
(0.410285 0.000122378 0)
(0.410149 0.000107535 0)
(0.410064 8.70974e-05 0)
(0.410045 5.13435e-05 0)
(0.410106 6.53837e-06 0)
(0.41026 -3.80097e-05 0)
(0.41052 -7.60483e-05 0)
(0.4109 -0.000120584 0)
(0.411418 -0.000169401 0)
(0.412091 -0.000226302 0)
(0.412952 -0.000301389 0)
(0.414043 -0.000397931 0)
(0.415406 -0.000514681 0)
(0.417091 -0.000653505 0)
(0.419155 -0.000818299 0)
(0.421669 -0.0010136 0)
(0.424712 -0.00124026 0)
(0.428372 -0.00151279 0)
(0.432727 -0.00177803 0)
(0.43792 -0.00225537 0)
(0.44461 -0.00200148 0)
(0.41248 8.98237e-05 0)
(0.412557 0.000203908 0)
(0.412648 0.000208948 0)
(0.412676 0.000212227 0)
(0.412694 0.000214921 0)
(0.412714 0.000213144 0)
(0.412738 0.000203678 0)
(0.412768 0.000183372 0)
(0.41281 0.000152943 0)
(0.412872 0.000111874 0)
(0.412964 5.94182e-05 0)
(0.413095 -4.3027e-06 0)
(0.413275 -7.701e-05 0)
(0.413512 -0.000161173 0)
(0.413819 -0.000262841 0)
(0.414213 -0.000387002 0)
(0.414716 -0.000534875 0)
(0.415353 -0.00070883 0)
(0.416193 -0.000911281 0)
(0.417223 -0.00114469 0)
(0.418438 -0.00141553 0)
(0.419881 -0.0017343 0)
(0.421596 -0.0021123 0)
(0.423634 -0.00256073 0)
(0.426057 -0.00309167 0)
(0.428939 -0.00371287 0)
(0.432368 -0.00444617 0)
(0.436432 -0.00523413 0)
(0.441275 -0.00635585 0)
(0.446766 -0.00652378 0)
(0.412469 4.67341e-05 0)
(0.412503 0.000101173 0)
(0.412552 0.00012265 0)
(0.412588 0.000136743 0)
(0.412608 0.000145753 0)
(0.412624 0.000146112 0)
(0.412642 0.00013465 0)
(0.412664 0.000109415 0)
(0.412696 6.96895e-05 0)
(0.41275 1.41512e-05 0)
(0.412834 -5.84017e-05 0)
(0.41296 -0.000149885 0)
(0.41314 -0.00026434 0)
(0.413386 -0.000404061 0)
(0.413712 -0.00057021 0)
(0.414131 -0.000765586 0)
(0.414658 -0.000998446 0)
(0.415304 -0.00127927 0)
(0.416082 -0.00160749 0)
(0.417018 -0.00197704 0)
(0.418148 -0.00239916 0)
(0.419506 -0.00289595 0)
(0.42113 -0.00348641 0)
(0.423071 -0.00418849 0)
(0.425386 -0.00502268 0)
(0.428159 -0.00600702 0)
(0.431455 -0.007174 0)
(0.435447 -0.00847633 0)
(0.440043 -0.0101817 0)
(0.446072 -0.0110714 0)
(0.412465 2.90483e-05 0)
(0.412486 8.26216e-05 0)
(0.412521 0.000121244 0)
(0.41255 0.000148994 0)
(0.412568 0.000161331 0)
(0.412581 0.000161027 0)
(0.412594 0.000153675 0)
(0.412612 0.000125379 0)
(0.412642 7.36144e-05 0)
(0.41269 -2.05005e-06 0)
(0.412768 -0.000104502 0)
(0.412888 -0.000235185 0)
(0.413058 -0.000395912 0)
(0.413291 -0.000588821 0)
(0.413599 -0.000817267 0)
(0.413993 -0.00108611 0)
(0.414487 -0.00140179 0)
(0.415093 -0.00177131 0)
(0.415827 -0.00219996 0)
(0.416709 -0.00269473 0)
(0.417769 -0.00327115 0)
(0.419041 -0.00395076 0)
(0.420563 -0.00475724 0)
(0.422383 -0.00571705 0)
(0.424561 -0.00686096 0)
(0.42718 -0.00821711 0)
(0.430304 -0.00983157 0)
(0.434134 -0.0116628 0)
(0.438536 -0.0139963 0)
(0.444548 -0.0156692 0)
(0.412463 2.0568e-05 0)
(0.412476 6.45438e-05 0)
(0.412498 0.000100659 0)
(0.41252 0.000125408 0)
(0.412535 0.00013998 0)
(0.412545 0.000142129 0)
(0.412554 0.000126995 0)
(0.41257 8.92139e-05 0)
(0.412597 2.48243e-05 0)
(0.412643 -6.93675e-05 0)
(0.412716 -0.000195943 0)
(0.412825 -0.000358098 0)
(0.412982 -0.000558658 0)
(0.413197 -0.00080056 0)
(0.413479 -0.00108731 0)
(0.413841 -0.00142354 0)
(0.414294 -0.00181574 0)
(0.41485 -0.00227202 0)
(0.415523 -0.00280125 0)
(0.416332 -0.0034148 0)
(0.417303 -0.00413065 0)
(0.418466 -0.00497389 0)
(0.419857 -0.00597492 0)
(0.421522 -0.00716889 0)
(0.423517 -0.00859705 0)
(0.425928 -0.0103004 0)
(0.428817 -0.0123384 0)
(0.432407 -0.0146928 0)
(0.436528 -0.0176399 0)
(0.442405 -0.0201666 0)
(0.412462 1.53075e-05 0)
(0.41247 5.11588e-05 0)
(0.412486 8.7097e-05 0)
(0.412502 0.000116579 0)
(0.412513 0.000134598 0)
(0.412522 0.000137162 0)
(0.412531 0.000124034 0)
(0.412544 8.3826e-05 0)
(0.412566 1.06995e-05 0)
(0.412606 -9.94856e-05 0)
(0.41267 -0.000249311 0)
(0.412769 -0.000441794 0)
(0.41291 -0.000679735 0)
(0.413103 -0.000966088 0)
(0.413357 -0.0013046 0)
(0.413681 -0.00170039 0)
(0.414087 -0.00216038 0)
(0.414583 -0.00269355 0)
(0.415183 -0.0033112 0)
(0.415904 -0.00402865 0)
(0.416765 -0.00486778 0)
(0.417794 -0.00585802 0)
(0.419022 -0.00703599 0)
(0.420493 -0.00844552 0)
(0.422259 -0.0101389 0)
(0.424405 -0.0121714 0)
(0.426989 -0.0146184 0)
(0.430256 -0.0174902 0)
(0.433998 -0.0210536 0)
(0.439624 -0.0244663 0)
(0.412461 1.17772e-05 0)
(0.412467 4.24095e-05 0)
(0.412478 7.77006e-05 0)
(0.412489 0.000109016 0)
(0.412498 0.000128312 0)
(0.412505 0.000131104 0)
(0.412511 0.000115502 0)
(0.412521 6.88622e-05 0)
(0.412539 -1.53782e-05 0)
(0.412572 -0.000140779 0)
(0.412628 -0.000311591 0)
(0.412714 -0.000531146 0)
(0.412837 -0.000802373 0)
(0.413005 -0.00112843 0)
(0.413227 -0.00151326 0)
(0.413508 -0.00196216 0)
(0.413859 -0.00248236 0)
(0.414288 -0.00308365 0)
(0.414804 -0.0037792 0)
(0.415422 -0.0045871 0)
(0.416156 -0.0055324 0)
(0.41703 -0.00664854 0)
(0.418069 -0.00797819 0)
(0.419312 -0.00957378 0)
(0.420805 -0.0114992 0)
(0.42263 -0.0138256 0)
(0.424838 -0.0166465 0)
(0.427688 -0.0200075 0)
(0.430945 -0.0241665 0)
(0.436176 -0.0284887 0)
(0.412461 9.28545e-06 0)
(0.412465 3.62126e-05 0)
(0.412473 7.08145e-05 0)
(0.412481 0.000103628 0)
(0.412486 0.000123662 0)
(0.412492 0.000126087 0)
(0.412497 0.000110895 0)
(0.412503 6.06169e-05 0)
(0.412517 -3.14648e-05 0)
(0.412544 -0.000169706 0)
(0.412591 -0.000358362 0)
(0.412662 -0.000600877 0)
(0.412766 -0.000900271 0)
(0.412907 -0.00125972 0)
(0.413092 -0.00168315 0)
(0.413328 -0.00217589 0)
(0.41362 -0.00274537 0)
(0.413974 -0.00340195 0)
(0.414398 -0.00416007 0)
(0.414901 -0.00503987 0)
(0.415494 -0.00606917 0)
(0.416193 -0.00728529 0)
(0.417019 -0.00873658 0)
(0.418002 -0.0104838 0)
(0.41918 -0.0126022 0)
(0.420627 -0.0151798 0)
(0.422386 -0.0183301 0)
(0.424721 -0.0221389 0)
(0.427372 -0.0268598 0)
(0.432028 -0.0321016 0)
(0.412461 7.44151e-06 0)
(0.412464 3.17396e-05 0)
(0.41247 6.5956e-05 0)
(0.412475 9.99365e-05 0)
(0.412479 0.000120586 0)
(0.412482 0.000122543 0)
(0.412485 0.000108118 0)
(0.412489 5.4325e-05 0)
(0.412499 -4.51102e-05 0)
(0.41252 -0.000194595 0)
(0.412556 -0.000398481 0)
(0.412613 -0.000660391 0)
(0.412696 -0.000983366 0)
(0.412808 -0.00137048 0)
(0.412956 -0.00182549 0)
(0.413142 -0.00235357 0)
(0.413371 -0.0029621 0)
(0.413646 -0.00366168 0)
(0.413971 -0.00446742 0)
(0.41435 -0.00540073 0)
(0.414791 -0.00649138 0)
(0.415301 -0.00777966 0)
(0.415893 -0.00931863 0)
(0.416589 -0.0111763 0)
(0.417415 -0.0134387 0)
(0.418434 -0.0162106 0)
(0.419672 -0.0196262 0)
(0.42139 -0.0238164 0)
(0.423304 -0.0290344 0)
(0.427166 -0.0351695 0)
(0.412461 6.0404e-06 0)
(0.412463 2.84193e-05 0)
(0.412467 6.25156e-05 0)
(0.412471 9.75608e-05 0)
(0.412473 0.00011857 0)
(0.412476 0.000120212 0)
(0.412477 0.000106619 0)
(0.412479 5.05249e-05 0)
(0.412484 -5.46427e-05 0)
(0.412499 -0.000212863 0)
(0.412525 -0.000428641 0)
(0.412567 -0.000705624 0)
(0.412628 -0.00104673 0)
(0.412712 -0.00145478 0)
(0.41282 -0.00193319 0)
(0.412956 -0.00248676 0)
(0.41312 -0.00312248 0)
(0.413312 -0.00385074 0)
(0.413534 -0.00468669 0)
(0.413785 -0.00565219 0)
(0.414066 -0.00677804 0)
(0.414376 -0.00810646 0)
(0.414721 -0.00969393 0)
(0.41511 -0.0116142 0)
(0.415554 -0.0139626 0)
(0.416099 -0.0168588 0)
(0.416752 -0.0204578 0)
(0.417749 -0.0249363 0)
(0.418794 -0.0305513 0)
(0.421611 -0.0374986 0)
(0.41246 4.95433e-06 0)
(0.412462 2.59324e-05 0)
(0.412466 6.00112e-05 0)
(0.412468 9.5741e-05 0)
(0.41247 0.000117428 0)
(0.412471 0.000118977 0)
(0.412471 0.000106284 0)
(0.412471 4.89055e-05 0)
(0.412474 -6.05103e-05 0)
(0.412482 -0.000225125 0)
(0.412499 -0.000449562 0)
(0.412526 -0.000737415 0)
(0.412566 -0.00109136 0)
(0.41262 -0.00151381 0)
(0.412689 -0.00200766 0)
(0.412773 -0.00257704 0)
(0.412872 -0.00322828 0)
(0.412982 -0.00397104 0)
(0.413099 -0.00481987 0)
(0.41322 -0.0057962 0)
(0.413337 -0.0069307 0)
(0.413444 -0.00826606 0)
(0.413535 -0.0098603 0)
(0.413603 -0.0117906 0)
(0.413646 -0.0141587 0)
(0.413684 -0.0170962 0)
(0.413699 -0.0207758 0)
(0.413884 -0.0254177 0)
(0.413935 -0.031284 0)
(0.415432 -0.0388861 0)
(0.41246 4.09172e-06 0)
(0.412462 2.39884e-05 0)
(0.412464 5.80913e-05 0)
(0.412467 9.42617e-05 0)
(0.412468 0.000116745 0)
(0.412469 0.000118536 0)
(0.412469 0.000106678 0)
(0.412467 4.8948e-05 0)
(0.412467 -6.30526e-05 0)
(0.41247 -0.000231663 0)
(0.412477 -0.000461471 0)
(0.41249 -0.000755903 0)
(0.412509 -0.00111728 0)
(0.412535 -0.00154746 0)
(0.412566 -0.00204861 0)
(0.4126 -0.00262397 0)
(0.412634 -0.0032788 0)
(0.412663 -0.00402157 0)
(0.412678 -0.00486551 0)
(0.41267 -0.00583063 0)
(0.412626 -0.0069462 0)
(0.412532 -0.00825368 0)
(0.412368 -0.00981038 0)
(0.412116 -0.0116939 0)
(0.41175 -0.0140085 0)
(0.411263 -0.0168926 0)
(0.410608 -0.0205309 0)
(0.40991 -0.0251787 0)
(0.408864 -0.0311021 0)
(0.408776 -0.0391072 0)
(0.41246 3.38493e-06 0)
(0.412462 2.23864e-05 0)
(0.412464 5.6357e-05 0)
(0.412466 9.26485e-05 0)
(0.412468 0.000116129 0)
(0.412469 0.00011845 0)
(0.412468 0.000107544 0)
(0.412466 5.02182e-05 0)
(0.412464 -6.27537e-05 0)
(0.412462 -0.000232995 0)
(0.412461 -0.00046494 0)
(0.412461 -0.000761752 0)
(0.412461 -0.00112528 0)
(0.412459 -0.00155671 0)
(0.412454 -0.00205728 0)
(0.41244 -0.00262911 0)
(0.412413 -0.00327604 0)
(0.412363 -0.00400486 0)
(0.412281 -0.00482676 0)
(0.41215 -0.00575938 0)
(0.411953 -0.00682922 0)
(0.411666 -0.00807458 0)
(0.411258 -0.00954944 0)
(0.410694 -0.0113281 0)
(0.40993 -0.0135124 0)
(0.408922 -0.0162404 0)
(0.407591 -0.0197 0)
(0.405973 -0.0241675 0)
(0.403771 -0.0299061 0)
(0.401877 -0.0379597 0)
(0.41246 2.77629e-06 0)
(0.412461 2.09402e-05 0)
(0.412464 5.45985e-05 0)
(0.412466 9.07887e-05 0)
(0.412469 0.00011515 0)
(0.41247 0.000118423 0)
(0.41247 0.000108277 0)
(0.412468 5.20217e-05 0)
(0.412465 -6.03214e-05 0)
(0.41246 -0.00022984 0)
(0.412451 -0.000460793 0)
(0.412439 -0.000755964 0)
(0.412421 -0.00111661 0)
(0.412395 -0.00154309 0)
(0.412356 -0.0020356 0)
(0.412298 -0.00259491 0)
(0.412214 -0.00322314 0)
(0.412092 -0.00392492 0)
(0.411919 -0.00470875 0)
(0.411676 -0.00558891 0)
(0.411338 -0.00658774 0)
(0.410873 -0.00773844 0)
(0.41024 -0.0090888 0)
(0.409389 -0.0107058 0)
(0.408252 -0.0126828 0)
(0.406753 -0.0151494 0)
(0.404775 -0.0182846 0)
(0.402251 -0.0223652 0)
(0.398894 -0.0276399 0)
(0.395071 -0.035292 0)
(0.41246 2.21339e-06 0)
(0.412461 1.94834e-05 0)
(0.412464 5.25257e-05 0)
(0.412468 8.82661e-05 0)
(0.412472 0.000113284 0)
(0.412474 0.000118058 0)
(0.412474 0.000108465 0)
(0.412474 5.38508e-05 0)
(0.41247 -5.63857e-05 0)
(0.412462 -0.000223025 0)
(0.412448 -0.000450079 0)
(0.412426 -0.000739836 0)
(0.412392 -0.00109288 0)
(0.412343 -0.00150869 0)
(0.412274 -0.00198627 0)
(0.412177 -0.00252487 0)
(0.412042 -0.00312464 0)
(0.411856 -0.00378764 0)
(0.411603 -0.00451912 0)
(0.41126 -0.00532911 0)
(0.410798 -0.00623451 0)
(0.410178 -0.00726153 0)
(0.40935 -0.00844896 0)
(0.408248 -0.00985226 0)
(0.406785 -0.0115504 0)
(0.40485 -0.0136546 0)
(0.402292 -0.0163214 0)
(0.398936 -0.019804 0)
(0.394506 -0.0243181 0)
(0.38878 -0.0310541 0)
(0.41246 1.6465e-06 0)
(0.412462 1.78774e-05 0)
(0.412464 4.99217e-05 0)
(0.412469 8.4814e-05 0)
(0.412475 0.000110296 0)
(0.412479 0.000116815 0)
(0.412481 0.000107515 0)
(0.412482 5.50267e-05 0)
(0.41248 -5.17516e-05 0)
(0.41247 -0.000213537 0)
(0.412452 -0.000434009 0)
(0.412421 -0.000714904 0)
(0.412374 -0.00105608 0)
(0.412307 -0.00145605 0)
(0.412211 -0.0019126 0)
(0.41208 -0.00242331 0)
(0.411901 -0.0029862 0)
(0.411661 -0.00360047 0)
(0.41134 -0.00426764 0)
(0.410914 -0.00499281 0)
(0.410349 -0.00578633 0)
(0.409602 -0.00666576 0)
(0.408616 -0.00765837 0)
(0.407311 -0.00880434 0)
(0.405587 -0.0101621 0)
(0.403301 -0.0118157 0)
(0.400273 -0.0138851 0)
(0.396224 -0.0165733 0)
(0.390894 -0.0200426 0)
(0.383481 -0.0253376 0)
(0.41246 1.02604e-06 0)
(0.412462 1.59617e-05 0)
(0.412465 4.65419e-05 0)
(0.412472 8.01737e-05 0)
(0.41248 0.000105867 0)
(0.412486 0.000114345 0)
(0.41249 0.000104887 0)
(0.412494 5.4772e-05 0)
(0.412493 -4.72333e-05 0)
(0.412483 -0.000202399 0)
(0.412462 -0.000413906 0)
(0.412425 -0.000682881 0)
(0.412368 -0.00100842 0)
(0.412285 -0.00138809 0)
(0.412168 -0.0018184 0)
(0.412009 -0.00229526 0)
(0.411795 -0.00281444 0)
(0.41151 -0.00337215 0)
(0.411136 -0.00396586 0)
(0.410645 -0.00459526 0)
(0.410003 -0.00526339 0)
(0.409163 -0.00597791 0)
(0.408062 -0.00675264 0)
(0.406615 -0.00760938 0)
(0.404708 -0.00858116 0)
(0.40218 -0.00971707 0)
(0.398827 -0.0110881 0)
(0.394291 -0.0128232 0)
(0.388323 -0.0150113 0)
(0.379645 -0.0184024 0)
(0.41246 2.97581e-07 0)
(0.412462 1.36128e-05 0)
(0.412467 4.22186e-05 0)
(0.412475 7.41797e-05 0)
(0.412485 9.95132e-05 0)
(0.412494 0.000109823 0)
(0.412502 0.000100146 0)
(0.412509 5.26392e-05 0)
(0.412511 -4.35722e-05 0)
(0.412502 -0.000190634 0)
(0.412479 -0.000391142 0)
(0.412438 -0.000645586 0)
(0.412374 -0.000952316 0)
(0.412279 -0.00130797 0)
(0.412146 -0.00170784 0)
(0.411965 -0.00214621 0)
(0.411723 -0.00261662 0)
(0.411406 -0.00311228 0)
(0.410994 -0.00362654 0)
(0.410458 -0.00415346 0)
(0.409766 -0.00468841 0)
(0.408868 -0.00522847 0)
(0.407702 -0.00577281 0)
(0.40618 -0.00632297 0)
(0.404182 -0.00688343 0)
(0.401538 -0.0074629 0)
(0.398034 -0.00807528 0)
(0.393267 -0.0087578 0)
(0.387 -0.00951056 0)
(0.377656 -0.0106739 0)
(0.412461 -6.07494e-07 0)
(0.412463 1.06384e-05 0)
(0.412469 3.67063e-05 0)
(0.412479 6.6591e-05 0)
(0.412491 9.12192e-05 0)
(0.412504 0.000102547 0)
(0.412516 9.29645e-05 0)
(0.412527 4.80374e-05 0)
(0.412532 -4.16721e-05 0)
(0.412525 -0.000179391 0)
(0.412503 -0.000367151 0)
(0.41246 -0.000604858 0)
(0.412391 -0.000890177 0)
(0.412288 -0.00121889 0)
(0.412143 -0.00158518 0)
(0.411947 -0.00198182 0)
(0.411688 -0.00240028 0)
(0.41135 -0.00283089 0)
(0.410914 -0.00326303 0)
(0.410355 -0.0036853 0)
(0.40964 -0.00408543 0)
(0.408723 -0.00444989 0)
(0.407542 -0.00476306 0)
(0.406014 -0.00500566 0)
(0.404022 -0.00515262 0)
(0.401397 -0.00517031 0)
(0.397932 -0.00501234 0)
(0.39322 -0.00461844 0)
(0.387038 -0.00389099 0)
(0.377741 -0.00269928 0)
(0.412461 -1.67452e-06 0)
(0.412463 6.90254e-06 0)
(0.412471 2.98787e-05 0)
(0.412483 5.71948e-05 0)
(0.412499 8.05936e-05 0)
(0.412516 9.18309e-05 0)
(0.412532 8.26736e-05 0)
(0.412547 4.07418e-05 0)
(0.412556 -4.21533e-05 0)
(0.412553 -0.00016961 0)
(0.412533 -0.000343244 0)
(0.41249 -0.000562479 0)
(0.412419 -0.0008244 0)
(0.412311 -0.00112406 0)
(0.41216 -0.0014547 0)
(0.411955 -0.00180777 0)
(0.411686 -0.00217293 0)
(0.411338 -0.00253797 0)
(0.410894 -0.00288869 0)
(0.410332 -0.00320864 0)
(0.409621 -0.00347849 0)
(0.408721 -0.0036748 0)
(0.407576 -0.00376794 0)
(0.40611 -0.0037189 0)
(0.404219 -0.00347439 0)
(0.401749 -0.00296001 0)
(0.39851 -0.0020711 0)
(0.394137 -0.000645593 0)
(0.388436 0.00148103 0)
(0.379912 0.00490925 0)
(0.412461 -3.36824e-06 0)
(0.412464 2.54498e-06 0)
(0.412473 2.14483e-05 0)
(0.412489 4.56571e-05 0)
(0.412508 6.71653e-05 0)
(0.412529 7.79523e-05 0)
(0.412551 6.88455e-05 0)
(0.412571 3.0087e-05 0)
(0.412584 -4.5654e-05 0)
(0.412585 -0.000162123 0)
(0.412568 -0.000320624 0)
(0.412527 -0.000520128 0)
(0.412456 -0.000757255 0)
(0.412347 -0.00102651 0)
(0.412194 -0.0013204 0)
(0.411986 -0.00162939 0)
(0.411715 -0.0019417 0)
(0.411368 -0.00224302 0)
(0.41093 -0.00251619 0)
(0.410383 -0.0027405 0)
(0.409701 -0.00289054 0)
(0.408851 -0.0029343 0)
(0.407787 -0.00283001 0)
(0.406446 -0.00252144 0)
(0.404743 -0.00193077 0)
(0.40255 -0.000947576 0)
(0.399717 0.000581952 0)
(0.395938 0.00290205 0)
(0.391053 0.00624375 0)
(0.383947 0.0115716 0)
(0.412461 -5.34232e-06 0)
(0.412466 -2.99738e-06 0)
(0.412477 1.13053e-05 0)
(0.412495 3.1693e-05 0)
(0.412518 5.0669e-05 0)
(0.412544 6.00715e-05 0)
(0.412571 5.13035e-05 0)
(0.412596 1.58836e-05 0)
(0.412614 -5.26323e-05 0)
(0.41262 -0.000157722 0)
(0.412607 -0.000300394 0)
(0.41257 -0.000479292 0)
(0.412501 -0.000690733 0)
(0.412395 -0.000928878 0)
(0.412243 -0.00118579 0)
(0.412038 -0.00145127 0)
(0.411771 -0.00171257 0)
(0.411433 -0.00195394 0)
(0.411013 -0.00215603 0)
(0.410497 -0.00229492 0)
(0.409865 -0.00234057 0)
(0.409093 -0.00225432 0)
(0.408149 -0.00198492 0)
(0.406986 -0.00146274 0)
(0.405543 -0.000590856 0)
(0.403729 0.000767969 0)
(0.401435 0.00280238 0)
(0.398458 0.0058087 0)
(0.39467 0.010088 0)
(0.389459 0.0168221 0)
(0.412461 -7.71743e-06 0)
(0.412467 -1.02369e-05 0)
(0.412481 -9.79021e-07 0)
(0.412503 1.50831e-05 0)
(0.412531 3.09471e-05 0)
(0.412561 3.85766e-05 0)
(0.412594 2.99539e-05 0)
(0.412624 -2.24468e-06 0)
(0.412648 -6.35416e-05 0)
(0.412659 -0.000157054 0)
(0.412651 -0.000283524 0)
(0.412618 -0.000441399 0)
(0.412554 -0.000626898 0)
(0.412451 -0.000834073 0)
(0.412304 -0.00105482 0)
(0.412106 -0.00127871 0)
(0.411849 -0.00149255 0)
(0.411529 -0.00167983 0)
(0.411136 -0.00181994 0)
(0.410662 -0.00188702 0)
(0.410096 -0.00184807 0)
(0.409425 -0.00166017 0)
(0.408628 -0.00126594 0)
(0.407682 -0.000587258 0)
(0.406551 0.000486228 0)
(0.405187 0.00210453 0)
(0.403529 0.00447858 0)
(0.40149 0.00793877 0)
(0.398972 0.0128131 0)
(0.395933 0.0203536 0)
(0.412462 -1.05458e-05 0)
(0.412469 -1.94285e-05 0)
(0.412486 -1.60368e-05 0)
(0.412513 -4.60349e-06 0)
(0.412545 7.70359e-06 0)
(0.412581 1.30761e-05 0)
(0.412618 4.44293e-06 0)
(0.412654 -2.43582e-05 0)
(0.412684 -7.81821e-05 0)
(0.4127 -0.000159759 0)
(0.412698 -0.000269513 0)
(0.412671 -0.000405778 0)
(0.412612 -0.000564863 0)
(0.412515 -0.000740947 0)
(0.412375 -0.000926115 0)
(0.412186 -0.00111019 0)
(0.411944 -0.00128019 0)
(0.411645 -0.0014196 0)
(0.411286 -0.00150764 0)
(0.410863 -0.00151788 0)
(0.410374 -0.00141632 0)
(0.409816 -0.00115834 0)
(0.409185 -0.000684075 0)
(0.408478 8.79809e-05 0)
(0.407689 0.00127116 0)
(0.406813 0.00302198 0)
(0.40584 0.00555843 0)
(0.404804 0.00921481 0)
(0.403624 0.0143237 0)
(0.402812 0.0220514 0)
(0.412462 -1.44142e-05 0)
(0.412472 -3.15002e-05 0)
(0.412494 -3.42681e-05 0)
(0.412526 -2.71291e-05 0)
(0.412563 -1.86385e-05 0)
(0.412604 -1.63827e-05 0)
(0.412646 -2.60432e-05 0)
(0.412688 -5.24615e-05 0)
(0.412723 -9.97277e-05 0)
(0.412746 -0.000170104 0)
(0.41275 -0.000263807 0)
(0.412728 -0.000379313 0)
(0.412675 -0.000513275 0)
(0.412585 -0.000660149 0)
(0.412454 -0.000812411 0)
(0.412276 -0.000960573 0)
(0.412051 -0.00109238 0)
(0.411776 -0.00119213 0)
(0.411454 -0.00123986 0)
(0.411086 -0.00121004 0)
(0.410678 -0.00106961 0)
(0.410239 -0.000775066 0)
(0.409779 -0.0002682 0)
(0.409316 0.000532175 0)
(0.408874 0.00173169 0)
(0.408491 0.00348579 0)
(0.408206 0.00600375 0)
(0.408157 0.00959532 0)
(0.408286 0.0145839 0)
(0.409573 0.0219258 0)
(0.412463 -2.00331e-05 0)
(0.412477 -4.78828e-05 0)
(0.412507 -5.67086e-05 0)
(0.412545 -5.28738e-05 0)
(0.412586 -4.7101e-05 0)
(0.41263 -4.62463e-05 0)
(0.412678 -5.47258e-05 0)
(0.412725 -7.68743e-05 0)
(0.412765 -0.00011637 0)
(0.412794 -0.000174507 0)
(0.412804 -0.000250827 0)
(0.412788 -0.000344089 0)
(0.412741 -0.000451657 0)
(0.412658 -0.000568451 0)
(0.412536 -0.000687807 0)
(0.41237 -0.000801634 0)
(0.412162 -0.000899002 0)
(0.411913 -0.000965756 0)
(0.411627 -0.000983861 0)
(0.411314 -0.000930019 0)
(0.410986 -0.000773865 0)
(0.410661 -0.000475389 0)
(0.410367 1.88561e-05 0)
(0.410138 0.000781282 0)
(0.410024 0.00191006 0)
(0.410106 0.00354452 0)
(0.410464 0.00587205 0)
(0.411323 0.00915909 0)
(0.412649 0.0137088 0)
(0.415773 0.0201799 0)
(0.412465 -2.86201e-05 0)
(0.412487 -7.00798e-05 0)
(0.412529 -8.55742e-05 0)
(0.412574 -8.79126e-05 0)
(0.41262 -8.94171e-05 0)
(0.412668 -9.44876e-05 0)
(0.41272 -0.000106068 0)
(0.412771 -0.000127098 0)
(0.412817 -0.000160476 0)
(0.412851 -0.000207964 0)
(0.412867 -0.000268605 0)
(0.412858 -0.00034172 0)
(0.412817 -0.000426166 0)
(0.412742 -0.000516654 0)
(0.412628 -0.000606788 0)
(0.412474 -0.00069071 0)
(0.412282 -0.000759447 0)
(0.412056 -0.000800946 0)
(0.411805 -0.000800006 0)
(0.411542 -0.000736911 0)
(0.411286 -0.000585881 0)
(0.411066 -0.00031318 0)
(0.410919 0.000125373 0)
(0.410899 0.000790163 0)
(0.411079 0.00176668 0)
(0.411569 0.00317262 0)
(0.412489 0.00516469 0)
(0.414126 0.0079518 0)
(0.416475 0.0118032 0)
(0.421096 0.0170193 0)
(0.412469 -4.62509e-05 0)
(0.412505 -9.15027e-05 0)
(0.41256 -9.84456e-05 0)
(0.412611 -9.75826e-05 0)
(0.412659 -0.000101308 0)
(0.412711 -0.000107865 0)
(0.412769 -0.000117834 0)
(0.412826 -0.00013423 0)
(0.412877 -0.000162099 0)
(0.412916 -0.000197889 0)
(0.412932 -0.000241478 0)
(0.412932 -0.000292794 0)
(0.412899 -0.000350305 0)
(0.412829 -0.000411364 0)
(0.412723 -0.000472267 0)
(0.412581 -0.000527584 0)
(0.412405 -0.000570611 0)
(0.412203 -0.000592766 0)
(0.411985 -0.000582503 0)
(0.41177 -0.000524384 0)
(0.41158 -0.000397856 0)
(0.411451 -0.000176036 0)
(0.411432 0.000174227 0)
(0.411589 0.000695692 0)
(0.412017 0.00145033 0)
(0.41285 0.00252928 0)
(0.414235 0.00405358 0)
(0.416489 0.00617878 0)
(0.419639 0.00910846 0)
(0.425354 0.0128179 0)
(0.412479 -9.07252e-05 0)
(0.412556 -0.00019379 0)
(0.412655 -0.000187996 0)
(0.41271 -0.000185752 0)
(0.412755 -0.000188868 0)
(0.412802 -0.000195785 0)
(0.412847 -0.000207064 0)
(0.412884 -0.000222166 0)
(0.412909 -0.00024157 0)
(0.41292 -0.000265553 0)
(0.412914 -0.000295048 0)
(0.412885 -0.000328923 0)
(0.412831 -0.00036524 0)
(0.412749 -0.000402926 0)
(0.412638 -0.000435734 0)
(0.412497 -0.000467621 0)
(0.412331 -0.000491749 0)
(0.412147 -0.000501395 0)
(0.411956 -0.000489939 0)
(0.411781 -0.000447833 0)
(0.41165 -0.000362162 0)
(0.411607 -0.000215688 0)
(0.411709 1.57589e-05 0)
(0.412025 0.000360093 0)
(0.412643 0.000858689 0)
(0.413659 0.00157042 0)
(0.415303 0.00256664 0)
(0.417903 0.0039407 0)
(0.421696 0.00585407 0)
(0.427522 0.00791483 0)
(0.412281 -6.34557e-05 0)
(0.412164 -0.000125914 0)
(0.411963 -0.000146055 0)
(0.411718 -0.000152415 0)
(0.411472 -0.000156981 0)
(0.411231 -0.000160404 0)
(0.410985 -0.000163552 0)
(0.410728 -0.000168284 0)
(0.410455 -0.000176076 0)
(0.410162 -0.000186989 0)
(0.409841 -0.000200723 0)
(0.40949 -0.000216487 0)
(0.409103 -0.0002332 0)
(0.408681 -0.00025036 0)
(0.408223 -0.000267169 0)
(0.407732 -0.000281041 0)
(0.407215 -0.000290304 0)
(0.406682 -0.00029356 0)
(0.406149 -0.000288551 0)
(0.405641 -0.000272436 0)
(0.405191 -0.000241413 0)
(0.404845 -0.000186259 0)
(0.404668 -0.000111298 0)
(0.404752 1.15584e-05 0)
(0.405231 0.000202387 0)
(0.406279 0.000466655 0)
(0.408116 0.000834702 0)
(0.411035 0.00131876 0)
(0.415439 0.00207726 0)
(0.422902 0.00250101 0)
(0.447555 -0.00418101 -7.73527e-20)
(0.450506 -0.00624648 -7.76164e-20)
(0.452998 -0.00877135 -1.10699e-18)
(0.45483 -0.011572 -3.19639e-19)
(0.4563 -0.014602 3.24721e-19)
(0.457664 -0.0178489 0)
(0.458806 -0.0212975 0)
(0.459759 -0.0249659 3.37873e-19)
(0.460597 -0.0288864 -3.44083e-19)
(0.46137 -0.0330863 -6.96733e-19)
(0.462092 -0.0375903 7.10207e-19)
(0.46276 -0.0424282 0)
(0.463361 -0.0476396 -7.31179e-19)
(0.463884 -0.0532761 7.46455e-19)
(0.464319 -0.0594028 0)
(0.464659 -0.0661 1.53507e-18)
(0.464897 -0.0734665 7.81724e-19)
(0.465021 -0.0816241 7.85913e-19)
(0.465015 -0.0907243 8.07338e-19)
(0.464855 -0.100958 8.0735e-19)
(0.464508 -0.11257 -8.30636e-19)
(0.463928 -0.125874 2.52738e-18)
(0.46304 -0.141287 0)
(0.461761 -0.159347 -1.69491e-18)
(0.459861 -0.180832 8.45946e-19)
(0.457284 -0.206636 -1.7043e-18)
(0.453093 -0.23829 -2.47117e-18)
(0.447317 -0.278726 0)
(0.438968 -0.321046 0)
(0.418897 -0.414362 -2.63778e-19)
(0.451021 -0.00933941 -1.26422e-18)
(0.452657 -0.0116421 0)
(0.453913 -0.0144018 0)
(0.454741 -0.0173753 -1.31467e-18)
(0.455662 -0.0205071 1.33447e-18)
(0.456215 -0.0238187 1.35522e-18)
(0.456829 -0.0273362 -3.42739e-19)
(0.457411 -0.0310864 3.49149e-19)
(0.457945 -0.0350908 1.06892e-18)
(0.458436 -0.0393681 1.80864e-18)
(0.458868 -0.0439431 -7.32531e-19)
(0.459213 -0.0488516 1.50273e-18)
(0.45945 -0.0541409 7.61438e-19)
(0.459568 -0.0598685 7.85239e-19)
(0.459555 -0.066103 7.90835e-19)
(0.459398 -0.0729257 1.62191e-18)
(0.459078 -0.0804354 0)
(0.458569 -0.0887526 -8.35288e-19)
(0.457834 -0.0980272 -8.69638e-19)
(0.456823 -0.108447 0)
(0.455471 -0.12025 8.84386e-19)
(0.453689 -0.133739 9.28628e-19)
(0.451345 -0.14931 -1.8747e-18)
(0.448278 -0.167465 0)
(0.444157 -0.18892 9.3403e-19)
(0.438799 -0.214445 9.98044e-19)
(0.430968 -0.24559 -1.97318e-18)
(0.421134 -0.283709 8.96772e-19)
(0.406148 -0.326782 -9.40605e-19)
(0.381023 -0.409534 3.7705e-19)
(0.44963 -0.014133 1.28805e-18)
(0.450522 -0.0164049 0)
(0.451218 -0.0191348 -1.65541e-19)
(0.451855 -0.0221055 2.86282e-18)
(0.452434 -0.0252529 -1.02325e-18)
(0.452989 -0.0285801 -2.08168e-18)
(0.453519 -0.0321226 1.77288e-18)
(0.453977 -0.0358971 -3.59111e-19)
(0.454333 -0.0399156 -1.09214e-18)
(0.45458 -0.0442012 -3.58404e-19)
(0.454708 -0.04879 3.80132e-19)
(0.454704 -0.0537258 -2.3155e-18)
(0.454557 -0.0590578 1.58057e-18)
(0.454258 -0.064842 -2.41177e-18)
(0.453789 -0.071144 0)
(0.453126 -0.0780426 -1.6728e-18)
(0.452234 -0.0856341 0)
(0.451069 -0.0940371 0)
(0.449577 -0.103398 1.78741e-18)
(0.447683 -0.113898 0)
(0.445292 -0.125766 0)
(0.442276 -0.139287 -1.91419e-18)
(0.438451 -0.154831 1.95759e-18)
(0.433584 -0.172858 0)
(0.427264 -0.194014 0)
(0.419178 -0.218972 -2.07406e-18)
(0.407923 -0.249159 9.09039e-19)
(0.39414 -0.285073 -5.84512e-19)
(0.372674 -0.327947 -5.64036e-19)
(0.343172 -0.400295 0)
(0.447941 -0.0191431 -4.11759e-20)
(0.448535 -0.0214914 -4.1794e-20)
(0.448972 -0.024262 1.28177e-18)
(0.449419 -0.0272472 -2.76971e-18)
(0.449832 -0.0304006 1.76151e-19)
(0.450154 -0.0337324 3.58013e-19)
(0.450372 -0.0372705 -3.51756e-19)
(0.450479 -0.0410374 0)
(0.450467 -0.045056 1.90315e-18)
(0.450332 -0.0493559 -3.481e-18)
(0.450065 -0.0539735 1.58934e-18)
(0.449652 -0.0589481 8.06175e-19)
(0.449074 -0.0643241 -2.48699e-18)
(0.448309 -0.0701541 0)
(0.447325 -0.0765022 0)
(0.446084 -0.0834462 1.78926e-18)
(0.44454 -0.091081 1.83737e-18)
(0.442634 -0.099521 9.32676e-19)
(0.440292 -0.108906 -6.44332e-22)
(0.437418 -0.119406 -9.87286e-19)
(0.433888 -0.131234 0)
(0.429533 -0.144653 0)
(0.424127 -0.159994 -1.13054e-18)
(0.41737 -0.177667 -3.41541e-18)
(0.408787 -0.198231 0)
(0.397951 -0.222249 -1.2855e-18)
(0.383362 -0.250953 2.38425e-18)
(0.365731 -0.284361 -4.63117e-18)
(0.338198 -0.325268 6.76614e-19)
(0.305661 -0.38708 0)
(0.445539 -0.0239801 0)
(0.445821 -0.0263389 1.38185e-18)
(0.445931 -0.0290855 -1.22169e-18)
(0.446098 -0.0320442 1.24316e-18)
(0.446232 -0.0351809 1.81573e-19)
(0.446248 -0.0385098 -1.85167e-19)
(0.446141 -0.0420542 -1.50302e-18)
(0.445917 -0.0458347 0)
(0.445572 -0.0498725 1.96511e-20)
(0.445088 -0.054194 1.59915e-18)
(0.444446 -0.0588311 -2.04648e-18)
(0.443622 -0.0638212 2.12057e-18)
(0.44259 -0.0692084 2.14522e-18)
(0.441319 -0.0750459 -4.4265e-19)
(0.43977 -0.0813969 2.74837e-18)
(0.437897 -0.088337 -1.82968e-18)
(0.435643 -0.0959556 -1.92842e-18)
(0.432935 -0.10436 -9.91287e-19)
(0.429683 -0.113678 0)
(0.425767 -0.124067 0)
(0.421036 -0.135717 0)
(0.415288 -0.148862 1.14067e-18)
(0.408257 -0.163792 3.5643e-18)
(0.399592 -0.180856 1.18059e-18)
(0.38877 -0.200516 2.58853e-18)
(0.375264 -0.223226 -1.52494e-18)
(0.357561 -0.249993 2.96873e-18)
(0.336287 -0.28053 -2.49002e-19)
(0.303506 -0.318258 2.58016e-18)
(0.26898 -0.369934 4.46894e-18)
(0.44245 -0.0286156 -1.39752e-18)
(0.442435 -0.0309903 -1.4125e-18)
(0.442231 -0.0337334 -1.45438e-18)
(0.442119 -0.0366887 0)
(0.441978 -0.0398259 0)
(0.441697 -0.0431559 -1.54497e-18)
(0.441266 -0.0466976 0)
(0.4407 -0.0504701 1.2142e-18)
(0.439987 -0.0544947 -2.87278e-18)
(0.439105 -0.0587984 1.69423e-18)
(0.438029 -0.0634136 1.30696e-18)
(0.436731 -0.0683777 -3.53751e-18)
(0.435182 -0.073734 -8.86527e-22)
(0.433345 -0.0795329 -1.42202e-18)
(0.431174 -0.0858333 4.34234e-20)
(0.428613 -0.0927046 -1.96127e-18)
(0.425592 -0.100228 -5.40065e-20)
(0.422026 -0.108502 2.1534e-18)
(0.417804 -0.11764 -1.1335e-18)
(0.41279 -0.127782 -1.14033e-18)
(0.406808 -0.139092 2.42894e-18)
(0.399629 -0.151771 0)
(0.390955 -0.166059 -2.55577e-18)
(0.380396 -0.18224 0)
(0.367397 -0.200675 -2.98828e-18)
(0.351354 -0.221705 2.99948e-18)
(0.330803 -0.246091 2.24777e-19)
(0.306187 -0.273359 3.43022e-18)
(0.269156 -0.306894 -4.66698e-18)
(0.233472 -0.348986 1.52047e-18)
(0.438624 -0.0329652 1.38402e-18)
(0.438305 -0.0353461 -4.59094e-20)
(0.437772 -0.0380723 1.76994e-18)
(0.437356 -0.0410042 5.78474e-19)
(0.43691 -0.0441148 0)
(0.436297 -0.0474143 1.58588e-18)
(0.435509 -0.0509211 1.23206e-18)
(0.434561 -0.0546542 -2.07896e-18)
(0.433443 -0.0586353 8.36465e-19)
(0.432127 -0.0628905 -8.5702e-19)
(0.430582 -0.06745 -1.79282e-18)
(0.428779 -0.0723483 1.84315e-18)
(0.42668 -0.077625 -4.89665e-19)
(0.424243 -0.0833258 1.4623e-18)
(0.421411 -0.0895041 -4.71832e-19)
(0.418121 -0.0962222 -5.27415e-19)
(0.414292 -0.103553 3.27663e-18)
(0.409825 -0.111581 -3.40435e-18)
(0.404598 -0.120406 2.3372e-18)
(0.398456 -0.130146 6.41293e-19)
(0.391205 -0.140936 -1.90494e-18)
(0.382597 -0.152938 1.39804e-18)
(0.372308 -0.166341 0)
(0.359925 -0.181358 -7.7179e-19)
(0.344876 -0.19825 4.00442e-18)
(0.326507 -0.217247 0)
(0.303454 -0.238852 -6.63231e-18)
(0.275909 -0.262507 1.04028e-18)
(0.235749 -0.291116 0)
(0.19938 -0.324389 -4.98881e-18)
(0.434007 -0.036894 -7.47261e-19)
(0.43337 -0.0392677 -9.50338e-20)
(0.432493 -0.0419586 -5.88659e-19)
(0.431754 -0.0448447 -8.88762e-19)
(0.430982 -0.0479036 2.03442e-19)
(0.430018 -0.0511455 -2.08e-19)
(0.42885 -0.0545878 -8.47091e-19)