/*--------------------------------*- C++ -*----------------------------------*\
  =========                 |
  \\      /  F ield         | OpenFOAM: The Open Source CFD Toolbox
   \\    /   O peration     | Website:  https://openfoam.org
    \\  /    A nd           | Version:  11
     \\/     M anipulation  |
\*---------------------------------------------------------------------------*/
FoamFile
{
    format      ascii;
    class       volScalarField;
    location    "9.9";
    object      p;
}
// * * * * * * * * * * * * * * * * * * * * * * * * * * * * * * * * * * * * * //

dimensions      [0 2 -2 0 0 0 0];

internalField   nonuniform List<scalar> 
12600
(
0.198176
0.198083
0.198004
0.197938
0.197862
0.197766
0.197648
0.197508
0.197342
0.197146
0.196917
0.19665
0.196338
0.195974
0.19555
0.195057
0.194483
0.193814
0.193034
0.192123
0.191059
0.189814
0.188357
0.186649
0.184645
0.182295
0.179544
0.176322
0.172594
0.1682
0.19812
0.198072
0.19801
0.197946
0.197871
0.197776
0.19766
0.197522
0.197358
0.197166
0.19694
0.196676
0.196368
0.19601
0.195592
0.195106
0.194541
0.193881
0.193112
0.192214
0.191165
0.189937
0.188498
0.18681
0.184828
0.1825
0.179767
0.176562
0.172811
0.168419
0.198114
0.198083
0.198031
0.197968
0.197893
0.197801
0.197688
0.197553
0.197393
0.197205
0.196985
0.196727
0.196427
0.196077
0.19567
0.195197
0.194645
0.194003
0.193254
0.192379
0.191356
0.190158
0.188753
0.187103
0.185161
0.182876
0.180182
0.177014
0.173262
0.168902
0.198119
0.198098
0.198053
0.197994
0.197921
0.197832
0.197724
0.197594
0.19744
0.197259
0.197047
0.196799
0.19651
0.196174
0.195783
0.195327
0.194797
0.19418
0.19346
0.192619
0.191636
0.190483
0.189129
0.187536
0.185658
0.183439
0.18081
0.177704
0.173989
0.169655
0.198139
0.198123
0.198086
0.19803
0.197962
0.197877
0.197775
0.197651
0.197505
0.197333
0.197131
0.196895
0.196621
0.196302
0.19593
0.195499
0.194996
0.194411
0.193729
0.192933
0.192001
0.190907
0.189621
0.188105
0.186311
0.184183
0.181648
0.178633
0.174988
0.170711
0.198171
0.198158
0.198125
0.198075
0.19801
0.197931
0.197835
0.19772
0.197582
0.197421
0.197231
0.197011
0.196754
0.196455
0.196109
0.195706
0.195237
0.194692
0.194056
0.193314
0.192445
0.191425
0.190223
0.188803
0.187117
0.185108
0.182698
0.17981
0.176274
0.17209
0.198214
0.198202
0.198173
0.198128
0.198068
0.197996
0.197907
0.1978
0.197673
0.197524
0.19735
0.197147
0.196911
0.196636
0.196318
0.195948
0.195519
0.195019
0.194438
0.193759
0.192964
0.192031
0.19093
0.189626
0.188072
0.18621
0.18396
0.181239
0.17786
0.173818
0.198264
0.198254
0.198229
0.198188
0.198135
0.198069
0.197988
0.197891
0.197776
0.197641
0.197484
0.1973
0.197087
0.196839
0.196553
0.196221
0.195835
0.195388
0.194868
0.194261
0.193551
0.192717
0.191733
0.190564
0.189165
0.187481
0.185428
0.182921
0.179755
0.175922
0.198323
0.198314
0.198291
0.198256
0.198209
0.19815
0.198078
0.197993
0.197891
0.197771
0.197631
0.197469
0.197281
0.197064
0.196812
0.196521
0.196185
0.195794
0.195342
0.194814
0.194198
0.193475
0.192621
0.191605
0.190386
0.188909
0.187093
0.184852
0.181967
0.178426
0.198387
0.19838
0.198361
0.19833
0.198289
0.198239
0.198177
0.198102
0.198014
0.197911
0.197791
0.197652
0.197492
0.197306
0.197092
0.196845
0.19656
0.196232
0.195851
0.19541
0.194896
0.194293
0.193582
0.192736
0.191717
0.190477
0.188938
0.187017
0.184491
0.18134
0.198458
0.198451
0.198436
0.19841
0.198376
0.198333
0.198282
0.19822
0.198146
0.198061
0.197962
0.197847
0.197715
0.197563
0.197388
0.197188
0.196958
0.196694
0.19639
0.196039
0.195633
0.195158
0.1946
0.193937
0.193139
0.192162
0.190939
0.189392
0.187308
0.184657
0.198533
0.198528
0.198515
0.198495
0.198467
0.198433
0.198392
0.198343
0.198285
0.198218
0.19814
0.19805
0.197948
0.197831
0.197698
0.197545
0.197372
0.197175
0.19695
0.196693
0.196398
0.196057
0.195659
0.19519
0.194626
0.193934
0.19306
0.191937
0.190375
0.18834
0.198612
0.198608
0.198598
0.198583
0.198563
0.198537
0.198507
0.198471
0.198429
0.19838
0.198324
0.198261
0.198189
0.198107
0.198016
0.197913
0.197797
0.197668
0.197523
0.197361
0.19718
0.196975
0.196741
0.19647
0.196149
0.195758
0.195256
0.194598
0.193628
0.192315
0.198693
0.198691
0.198684
0.198674
0.198661
0.198644
0.198625
0.198602
0.198576
0.198546
0.198513
0.198475
0.198434
0.198388
0.198339
0.198285
0.198227
0.198166
0.198101
0.198034
0.197965
0.197895
0.197825
0.197753
0.197677
0.197591
0.197474
0.197303
0.196976
0.196467
0.198777
0.198775
0.198772
0.198767
0.198761
0.198753
0.198745
0.198735
0.198725
0.198714
0.198703
0.198691
0.19868
0.198671
0.198663
0.198657
0.198656
0.198662
0.198675
0.198701
0.198742
0.198803
0.198891
0.199013
0.199176
0.199388
0.199653
0.199971
0.200304
0.200641
0.198861
0.198861
0.198861
0.198861
0.198861
0.198863
0.198865
0.198868
0.198874
0.198881
0.198892
0.198907
0.198926
0.198951
0.198983
0.199025
0.19908
0.199149
0.199238
0.199352
0.199497
0.199683
0.199921
0.200225
0.200612
0.201105
0.20173
0.202513
0.203481
0.20465
0.198945
0.198947
0.198949
0.198954
0.198962
0.198971
0.198984
0.199
0.199021
0.199047
0.199079
0.199119
0.199167
0.199226
0.199297
0.199385
0.199491
0.199622
0.199782
0.199978
0.200221
0.200521
0.200896
0.201365
0.201954
0.202698
0.203643
0.204841
0.206376
0.208298
0.199029
0.199031
0.199037
0.199047
0.19906
0.199078
0.199101
0.19913
0.199165
0.199209
0.199262
0.199325
0.199401
0.199492
0.199601
0.199731
0.199887
0.200075
0.2003
0.200572
0.200903
0.201306
0.201801
0.202413
0.203174
0.20413
0.20534
0.206877
0.208872
0.211404
0.199111
0.199114
0.199123
0.199137
0.199156
0.199182
0.199214
0.199255
0.199305
0.199365
0.199438
0.199524
0.199626
0.199748
0.199892
0.200062
0.200263
0.200503
0.200787
0.201127
0.201535
0.202027
0.202624
0.203353
0.204253
0.205372
0.206781
0.208564
0.210879
0.213828
0.19919
0.199195
0.199206
0.199224
0.199249
0.199282
0.199323
0.199375
0.199438
0.199514
0.199605
0.199713
0.19984
0.19999
0.200166
0.200372
0.200615
0.200901
0.201239
0.201638
0.202111
0.202677
0.203356
0.204176
0.205178
0.20641
0.207945
0.209871
0.212352
0.215497
0.199266
0.199272
0.199285
0.199306
0.199337
0.199376
0.199426
0.199489
0.199564
0.199655
0.199763
0.19989
0.20004
0.200216
0.200421
0.200661
0.200941
0.201268
0.201651
0.2021
0.202628
0.203252
0.203993
0.204878
0.205943
0.207237
0.208827
0.210795
0.213289
0.216413
0.199339
0.199345
0.19936
0.199384
0.199419
0.199465
0.199523
0.199594
0.199682
0.199786
0.199909
0.200055
0.200225
0.200424
0.200656
0.200925
0.201237
0.2016
0.202022
0.202512
0.203083
0.203751
0.204534
0.205458
0.206554
0.207864
0.209443
0.211362
0.213737
0.21665
0.199407
0.199414
0.19943
0.199457
0.199495
0.199546
0.199611
0.199692
0.199789
0.199905
0.200043
0.200204
0.200393
0.200613
0.200868
0.201162
0.201503
0.201896
0.202349
0.202872
0.203476
0.204175
0.204984
0.205925
0.207022
0.208307
0.209823
0.211619
0.213773
0.216335
0.199471
0.199477
0.199494
0.199523
0.199564
0.19962
0.199691
0.199779
0.199885
0.200012
0.200162
0.200338
0.200543
0.200781
0.201056
0.201372
0.201737
0.202155
0.202634
0.203182
0.20381
0.204528
0.205349
0.206288
0.207363
0.208595
0.210008
0.211631
0.213498
0.215624
0.199529
0.199536
0.199552
0.199581
0.199625
0.199685
0.199761
0.199855
0.19997
0.200106
0.200267
0.200455
0.200674
0.200927
0.201218
0.201554
0.201937
0.202375
0.202875
0.203442
0.204085
0.204813
0.205635
0.20656
0.207597
0.208756
0.210045
0.211468
0.213021
0.214683
0.199584
0.199589
0.199603
0.199632
0.199678
0.199741
0.199822
0.199921
0.200042
0.200186
0.200356
0.200554
0.200785
0.20105
0.201356
0.201706
0.202106
0.20256
0.203074
0.203655
0.204308
0.205039
0.205854
0.206756
0.207748
0.208826
0.209984
0.211204
0.212448
0.213666
0.199634
0.199637
0.199646
0.199673
0.19972
0.199786
0.19987
0.199973
0.200099
0.200249
0.200427
0.200633
0.200873
0.201149
0.201466
0.201828
0.20224
0.202706
0.203231
0.203821
0.20448
0.20521
0.206014
0.206891
0.207835
0.208834
0.209868
0.210901
0.211872
0.212702
0.199683
0.199679
0.199682
0.199706
0.199755
0.199823
0.199909
0.200015
0.200145
0.2003
0.200483
0.200696
0.200942
0.201226
0.201551
0.201922
0.202343
0.202818
0.20335
0.203946
0.204606
0.205334
0.206127
0.206979
0.20788
0.208811
0.209738
0.210616
0.211371
0.211903
0.199735
0.199707
0.199698
0.199723
0.199775
0.199844
0.199932
0.200041
0.200173
0.200332
0.200518
0.200736
0.200987
0.201276
0.201607
0.201984
0.202411
0.202892
0.20343
0.204028
0.20469
0.205414
0.206197
0.20703
0.207899
0.208777
0.209625
0.210384
0.210986
0.211322
0.19982
0.199739
0.199711
0.199737
0.19979
0.199859
0.199947
0.200057
0.200191
0.200351
0.200539
0.200759
0.201013
0.201305
0.201639
0.202019
0.202449
0.202933
0.203473
0.204073
0.204734
0.205456
0.206233
0.207054
0.207902
0.208748
0.209548
0.210237
0.210716
0.210865
0.164481
0.162817
0.161694
0.160853
0.159935
0.158883
0.157761
0.1566
0.155393
0.154123
0.152779
0.151349
0.149813
0.148148
0.146326
0.144301
0.142032
0.139463
0.136521
0.133112
0.129115
0.124368
0.118652
0.111672
0.102984
0.0920315
0.0779603
0.0580852
0.0391748
-0.0161224
0.165275
0.164069
0.163062
0.162172
0.161209
0.160149
0.159055
0.157948
0.156811
0.155622
0.154369
0.153036
0.151606
0.150056
0.148357
0.146477
0.144375
0.142004
0.139299
0.136181
0.132544
0.128251
0.123115
0.116891
0.109209
0.0996209
0.0872855
0.0709292
0.0524487
0.00876551
0.165513
0.164544
0.163696
0.162845
0.161944
0.161005
0.16005
0.159074
0.158059
0.156988
0.155852
0.154642
0.153341
0.151931
0.150389
0.148687
0.146793
0.144663
0.142245
0.139472
0.136255
0.132483
0.128002
0.122614
0.116015
0.107856
0.0974218
0.0839881
0.067389
0.0336977
0.1662
0.165471
0.164826
0.16407
0.163246
0.162406
0.161555
0.160677
0.15976
0.158796
0.157779
0.156698
0.155542
0.154293
0.152932
0.151437
0.14978
0.147927
0.145835
0.14345
0.140702
0.137502
0.133728
0.129224
0.123749
0.117041
0.108495
0.0977009
0.0836255
0.0584006
0.167222
0.166663
0.166166
0.165492
0.164743
0.164002
0.163266
0.162508
0.161716
0.160887
0.160016
0.159094
0.158109
0.15705
0.155902
0.154647
0.153265
0.151729
0.150007
0.148058
0.145829
0.143252
0.140235
0.13666
0.132341
0.127089
0.120396
0.112086
0.100778
0.0826896
0.16858
0.168179
0.167835
0.167269
0.16662
0.165998
0.165392
0.164768
0.164114
0.163433
0.162722
0.161975
0.161183
0.160338
0.15943
0.158447
0.157374
0.156192
0.154879
0.153406
0.151735
0.149818
0.14759
0.144965
0.141806
0.137981
0.133075
0.127083
0.118508
0.10631
0.170314
0.170073
0.169887
0.169438
0.1689
0.168403
0.167937
0.167459
0.166961
0.166447
0.165918
0.16537
0.164798
0.164196
0.163558
0.162878
0.162146
0.161351
0.16048
0.159515
0.158433
0.157201
0.155777
0.154104
0.152084
0.149629
0.146412
0.142537
0.136527
0.12906
0.172472
0.172395
0.172374
0.172054
0.171639
0.171282
0.17097
0.170657
0.170333
0.170006
0.169681
0.169354
0.169024
0.168689
0.168346
0.167994
0.16763
0.167248
0.166843
0.166407
0.165928
0.165389
0.164765
0.16402
0.163089
0.161916
0.160254
0.158253
0.154536
0.150781
0.175102
0.175192
0.175341
0.175162
0.174884
0.17468
0.174536
0.174403
0.174269
0.174147
0.174044
0.173958
0.173891
0.173843
0.173817
0.173813
0.173834
0.173881
0.173955
0.174054
0.174178
0.174319
0.174466
0.174601
0.174681
0.174674
0.174393
0.17399
0.172243
0.171275
0.178241
0.1785
0.178819
0.178791
0.178663
0.178625
0.178663
0.178722
0.178793
0.178891
0.179024
0.179195
0.179406
0.179659
0.17996
0.180315
0.18073
0.181208
0.181758
0.182383
0.183088
0.183876
0.184744
0.185684
0.186671
0.187682
0.188577
0.189478
0.189344
0.190351
0.181904
0.182328
0.182815
0.182946
0.18298
0.183118
0.183346
0.183607
0.183892
0.184218
0.184597
0.185032
0.185526
0.186084
0.186716
0.187429
0.18823
0.189129
0.190136
0.191259
0.192507
0.193887
0.195402
0.19705
0.198813
0.200675
0.202519
0.204426
0.205545
0.207827
0.18607
0.186651
0.187293
0.187587
0.187794
0.188112
0.188533
0.188999
0.189501
0.190058
0.190682
0.191379
0.192153
0.193011
0.193962
0.195017
0.196186
0.197479
0.198907
0.200483
0.202216
0.204115
0.206186
0.208428
0.210826
0.213359
0.215928
0.218564
0.220593
0.223562
0.190668
0.19139
0.19217
0.192625
0.193006
0.193506
0.194116
0.194782
0.195495
0.196275
0.197135
0.198082
0.19912
0.200259
0.201508
0.202877
0.204379
0.206024
0.207825
0.209793
0.211939
0.214272
0.216796
0.219508
0.222393
0.225427
0.228514
0.231653
0.2343
0.237517
0.195565
0.196406
0.197297
0.197906
0.198458
0.199131
0.199918
0.20077
0.20168
0.202666
0.203743
0.204917
0.206194
0.207583
0.209094
0.210739
0.212527
0.214472
0.216583
0.218873
0.221351
0.224023
0.226891
0.229951
0.233182
0.236553
0.239977
0.243423
0.24644
0.249696
0.200561
0.201493
0.202467
0.203213
0.203926
0.204756
0.205699
0.206715
0.207798
0.208965
0.21023
0.211599
0.213079
0.214679
0.216409
0.218279
0.220301
0.222483
0.224838
0.227374
0.230099
0.233016
0.236124
0.239412
0.242857
0.246418
0.250007
0.25356
0.256697
0.259895
0.205404
0.206398
0.207425
0.208286
0.209139
0.210103
0.211176
0.212327
0.213552
0.214867
0.216283
0.217809
0.21945
0.221215
0.223113
0.225156
0.227351
0.229709
0.232238
0.234945
0.237836
0.240911
0.244163
0.247578
0.251124
0.254751
0.258366
0.261872
0.264946
0.267804
0.209815
0.210844
0.211895
0.212844
0.21381
0.214879
0.21605
0.217302
0.218634
0.220058
0.221586
0.223225
0.224981
0.226863
0.228879
0.231039
0.23335
0.235822
0.238461
0.241272
0.244257
0.247414
0.250733
0.254194
0.257758
0.261368
0.264923
0.268297
0.271196
0.273604
0.213533
0.214573
0.215626
0.216632
0.217678
0.218819
0.220053
0.22137
0.22277
0.224264
0.225862
0.22757
0.229396
0.231346
0.23343
0.235656
0.23803
0.24056
0.243251
0.246107
0.249128
0.252308
0.255634
0.259081
0.262609
0.26615
0.269603
0.272823
0.275546
0.277604
0.216358
0.217389
0.218427
0.219461
0.22055
0.221727
0.22299
0.224334
0.225764
0.227289
0.228915
0.230651
0.232502
0.234477
0.236583
0.238826
0.241215
0.243755
0.24645
0.249302
0.252309
0.255464
0.258752
0.262144
0.265595
0.269034
0.272355
0.275399
0.277915
0.279607
0.218188
0.219194
0.220205
0.221236
0.222331
0.223509
0.224767
0.226105
0.227528
0.229045
0.230661
0.232385
0.234222
0.23618
0.238265
0.240485
0.242845
0.245352
0.248007
0.250812
0.253765
0.256855
0.260067
0.263368
0.26671
0.270017
0.273176
0.276012
0.278275
0.279584
0.219032
0.219998
0.220973
0.221974
0.22304
0.224184
0.225406
0.226705
0.228087
0.22956
0.231131
0.232805
0.23459
0.236493
0.238519
0.240677
0.242971
0.245407
0.247986
0.250706
0.253567
0.256558
0.25966
0.262839
0.266042
0.269189
0.27216
0.274769
0.276764
0.27771
0.219006
0.219918
0.220845
0.221792
0.222797
0.223878
0.225034
0.226264
0.227574
0.228972
0.230463
0.232056
0.233756
0.235569
0.237502
0.239562
0.241753
0.244081
0.246546
0.249153
0.251892
0.254752
0.25771
0.260732
0.263764
0.266719
0.26947
0.271816
0.273513
0.273927
0.218299
0.219141
0.220006
0.220876
0.221794
0.222785
0.223849
0.224985
0.226196
0.22749
0.228875
0.230356
0.23194
0.233633
0.235442
0.237372
0.239429
0.241617
0.243937
0.246389
0.248966
0.251654
0.254431
0.257259
0.26008
0.2628
0.265289
0.267315
0.26869
0.268333
0.21713
0.217884
0.21867
0.219442
0.220251
0.221129
0.222078
0.223095
0.224181
0.225347
0.226598
0.227941
0.229382
0.230927
0.232582
0.234352
0.236243
0.238258
0.240398
0.242661
0.24504
0.24752
0.250078
0.252671
0.255237
0.257675
0.259852
0.261494
0.262518
0.261407
0.215724
0.216373
0.217059
0.217717
0.218401
0.21915
0.219966
0.220845
0.221789
0.222806
0.223903
0.225087
0.226361
0.227734
0.229209
0.230793
0.23249
0.234303
0.236231
0.238272
0.240419
0.242653
0.244949
0.247261
0.249523
0.251622
0.253426
0.2546
0.255178
0.253249
0.214285
0.21481
0.215376
0.215904
0.216449
0.217053
0.217721
0.218445
0.219229
0.220081
0.221006
0.222011
0.223101
0.224282
0.225558
0.226934
0.228414
0.229999
0.231689
0.23348
0.235361
0.237313
0.239307
0.241291
0.243195
0.244891
0.246243
0.246844
0.246817
0.243693
0.212973
0.213357
0.213783
0.214176
0.214581
0.215036
0.215545
0.216105
0.216719
0.217393
0.218134
0.218948
0.219839
0.220812
0.221872
0.223023
0.224266
0.225603
0.227032
0.228545
0.23013
0.231765
0.233416
0.235024
0.236511
0.237729
0.238538
0.238437
0.237663
0.232906
0.211939
0.212131
0.212367
0.212608
0.212867
0.213162
0.213501
0.21389
0.214326
0.214815
0.215363
0.215976
0.216658
0.217413
0.218245
0.219157
0.22015
0.221223
0.222373
0.223589
0.224857
0.22615
0.227426
0.228621
0.229642
0.230321
0.230505
0.229583
0.227997
0.221153
0.211404
0.211345
0.211337
0.211433
0.211555
0.211681
0.211849
0.212072
0.212325
0.212619
0.212966
0.213371
0.213838
0.214369
0.214966
0.215632
0.216365
0.217164
0.218022
0.218926
0.219856
0.220779
0.221648
0.222384
0.222884
0.222949
0.222415
0.220521
0.218127
0.208619
0.210917
0.210587
0.210409
0.210376
0.210375
0.210355
0.210341
0.210366
0.210427
0.210524
0.210661
0.210846
0.211082
0.211373
0.211721
0.212126
0.212588
0.213102
0.213658
0.214243
0.214831
0.215383
0.215843
0.216119
0.216089
0.215525
0.214256
0.211216
0.208329
0.195473
0.18226
0.168914
0.154959
0.140881
0.127129
0.113979
0.101675
0.0906046
0.081228
0.0738585
0.0688683
0.0668807
0.0679591
0.0722934
0.0790629
0.0848813
0.0852708
0.0816264
0.0787399
0.0773195
0.0769495
0.076535
0.0755695
0.0747217
0.0738011
0.0717495
0.0684748
0.0654892
0.0643418
0.0658012
0.199071
0.187972
0.175784
0.163435
0.151161
0.139103
0.127647
0.117214
0.107895
0.0998424
0.0933292
0.0892944
0.0875668
0.0874898
0.0892742
0.091286
0.089455
0.0836314
0.0790822
0.0782491
0.0780034
0.0763327
0.0745889
0.0739172
0.073234
0.0710364
0.0672192
0.0638258
0.0610914
0.0601718
0.202144
0.191451
0.180082
0.168916
0.157322
0.145573
0.134363
0.123846
0.114098
0.105556
0.0986894
0.0938715
0.0911788
0.0900795
0.0905024
0.0909931
0.0889729
0.0848073
0.0814248
0.0804436
0.0789918
0.0768082
0.074873
0.0740181
0.0741847
0.0727713
0.0683494
0.0615587
0.0532165
0.0453333
0.206883
0.198127
0.188533
0.178063
0.167265
0.156465
0.14578
0.135329
0.125486
0.116631
0.109128
0.103286
0.0992245
0.0966871
0.0953319
0.0941697
0.0921014
0.088813
0.0854113
0.0830673
0.0808409
0.0784938
0.0763265
0.076612
0.0776302
0.0760798
0.0693026
0.05672
0.0387772
0.0206276
0.209021
0.201161
0.192262
0.182878
0.17311
0.162995
0.152712
0.142606
0.132972
0.124102
0.116338
0.10999
0.10521
0.101848
0.0995231
0.0975836
0.0952752
0.0922257
0.0891893
0.0864695
0.0839149
0.081581
0.0805325
0.0814924
0.0821923
0.0782987
0.066905
0.0459402
0.0173941
-0.0115107
0.210387
0.203547
0.195727
0.187303
0.178303
0.168799
0.158994
0.149174
0.139629
0.130664
0.122619
0.115798
0.110372
0.106262
0.103168
0.100598
0.0979421
0.0949226
0.0919579
0.0894406
0.0872665
0.0851436
0.0842244
0.0843785
0.0831267
0.0753121
0.0580957
0.0297541
-0.00713848
-0.0406826
0.211069
0.205069
0.198103
0.190438
0.182145
0.173281
0.164009
0.15457
0.145242
0.136332
0.128167
0.121041
0.11514
0.110449
0.106744
0.103627
0.100641
0.0975687
0.0946162
0.0920874
0.0898681
0.0877212
0.0861423
0.0844977
0.0796015
0.0668028
0.0445351
0.0129665
-0.0249304
-0.0523177
0.211339
0.20606
0.199856
0.192904
0.18526
0.17698
0.168199
0.159127
0.15003
0.141211
0.132985
0.125645
0.119393
0.114261
0.110088
0.106558
0.103318
0.100176
0.0972174
0.0945968
0.0921954
0.0898118
0.0868196
0.0832572
0.0750197
0.0581075
0.0333973
0.00420371
-0.0255726
-0.037477
0.211345
0.206678
0.201132
0.194807
0.187747
0.180005
0.171693
0.162994
0.154152
0.145456
0.137217
0.129729
0.123208
0.117728
0.113181
0.109326
0.105876
0.102655
0.099674
0.0969921
0.0944621
0.0917634
0.088272
0.0831791
0.0725475
0.0563793
0.035785
0.0149722
0.00160729
0.0079138
0.211194
0.207048
0.202068
0.196296
0.189761
0.18251
0.174639
0.166302
0.157721
0.149171
0.140959
0.133378
0.126658
0.120903
0.116059
0.111939
0.108312
0.105017
0.102021
0.0993134
0.0967237
0.0938743
0.09025
0.0849784
0.0764251
0.0655091
0.0530516
0.0440791
0.0472241
0.0655701
0.210956
0.207252
0.202757
0.197471
0.191407
0.184604
0.177142
0.169151
0.16083
0.152441
0.144283
0.136649
0.129781
0.123812
0.118729
0.114397
0.110629
0.10728
0.104289
0.101604
0.0990467
0.096283
0.0928978
0.0884789
0.0827962
0.0768822
0.07263
0.074696
0.0877769
0.110105
0.21068
0.207351
0.203272
0.198412
0.192769
0.186373
0.179288
0.171622
0.163555
0.155333
0.147246
0.139589
0.132613
0.126475
0.121201
0.1167
0.112824
0.109443
0.106486
0.103882
0.101471
0.0990029
0.0962402
0.0931587
0.0901599
0.0886699
0.0910296
0.100189
0.117602
0.140389
0.210399
0.20739
0.203667
0.199179
0.193912
0.187884
0.181143
0.173782
0.165958
0.157904
0.149901
0.142241
0.135187
0.128915
0.123488
0.118852
0.114895
0.111507
0.108617
0.106154
0.103996
0.101994
0.100106
0.0985775
0.098163
0.100456
0.107411
0.120477
0.139557
0.161716
0.210135
0.207398
0.20398
0.199818
0.194886
0.189189
0.182764
0.175683
0.16809
0.160201
0.152287
0.14464
0.137529
0.131152
0.1256
0.120859
0.116846
0.113475
0.110683
0.108415
0.106599
0.105191
0.104316
0.104419
0.10643
0.111772
0.12177
0.13688
0.156382
0.177135
0.209902
0.207398
0.20424
0.200365
0.19573
0.190332
0.184193
0.177372
0.169995
0.162264
0.15444
0.146815
0.139663
0.133201
0.127549
0.122724
0.118678
0.115346
0.112683
0.110657
0.109251
0.10852
0.108718
0.110416
0.114546
0.122228
0.134206
0.150289
0.169122
0.188213
0.209708
0.207404
0.204472
0.200847
0.196478
0.191348
0.185467
0.178883
0.171707
0.164125
0.156391
0.148792
0.141609
0.135078
0.129342
0.124453
0.120391
0.117118
0.11461
0.112864
0.111918
0.111911
0.113184
0.116353
0.122253
0.131667
0.144851
0.161156
0.178991
0.196168
0.209559
0.207429
0.20469
0.201285
0.197152
0.192264
0.186617
0.180249
0.173257
0.165815
0.158165
0.150593
0.143386
0.136795
0.130989
0.126049
0.121986
0.118789
0.116458
0.115021
0.114567
0.115299
0.117607
0.122092
0.129427
0.140076
0.153893
0.169942
0.186533
0.20188
0.209456
0.207479
0.204907
0.201697
0.197775
0.193102
0.187667
0.181495
0.174671
0.167356
0.159785
0.152238
0.145009
0.138365
0.132497
0.127517
0.123465
0.120357
0.118219
0.117113
0.117168
0.118632
0.121911
0.127542
0.136015
0.147501
0.161546
0.177055
0.192323
0.206001
0.209399
0.207557
0.205132
0.202096
0.198363
0.193884
0.188638
0.182643
0.175971
0.168772
0.161269
0.153743
0.146492
0.139796
0.133873
0.128859
0.124827
0.121819
0.119888
0.119125
0.119694
0.121868
0.126039
0.132654
0.142008
0.154023
0.16802
0.182831
0.196786
0.208959
0.209388
0.207667
0.205372
0.202491
0.198929
0.194623
0.189548
0.183712
0.177177
0.170079
0.162636
0.155123
0.147847
0.1411
0.135122
0.130079
0.126072
0.123172
0.121457
0.121044
0.122123
0.124975
0.129958
0.137404
0.147426
0.159743
0.173511
0.187545
0.200242
0.211061
0.209418
0.207808
0.205631
0.20289
0.199483
0.195334
0.190412
0.184719
0.178304
0.171295
0.1639
0.156392
0.149084
0.142282
0.13625
0.131179
0.1272
0.124413
0.122919
0.122859
0.124438
0.127931
0.133645
0.141788
0.152307
0.164762
0.178185
0.19142
0.20293
0.212523
0.209487
0.20798
0.205911
0.203299
0.200033
0.196026
0.191243
0.185677
0.179369
0.172435
0.165075
0.157562
0.150213
0.143351
0.13726
0.13216
0.128211
0.125539
0.12427
0.124562
0.126626
0.130724
0.137095
0.145825
0.15671
0.169183
0.182194
0.19464
0.205031
0.213493
0.209589
0.20818
0.206212
0.203721
0.200585
0.19671
0.192052
0.186599
0.180383
0.17351
0.166172
0.158641
0.151243
0.144313
0.138157
0.133025
0.129104
0.126548
0.125504
0.126142
0.128675
0.133343
0.140299
0.149518
0.160686
0.173098
0.185661
0.197345
0.206675
0.214071
0.209721
0.208406
0.206534
0.204157
0.201144
0.197392
0.192849
0.187496
0.181359
0.174533
0.167203
0.159641
0.152179
0.14517
0.138942
0.133772
0.129878
0.12744
0.126623
0.127603
0.130589
0.135796
0.143284
0.15292
0.164298
0.176606
0.188716
0.199657
0.207956
0.214274
0.209879
0.208655
0.206877
0.204608
0.201713
0.198077
0.19364
0.188377
0.182307
0.175515
0.168181
0.160574
0.153035
0.145934
0.139623
0.134403
0.130527
0.128202
0.127606
0.128918
0.132343
0.138056
0.146024
0.156045
0.167589
0.179759
0.191427
0.201644
0.208926
0.214102
0.210057
0.208926
0.20724
0.205075
0.202291
0.198771
0.194434
0.189252
0.183234
0.17646
0.169103
0.161435
0.153807
0.146605
0.140205
0.134934
0.131077
0.128866
0.128493
0.130132
0.133984
0.140193
0.148603
0.158954
0.170646
0.182686
0.193919
0.203401
0.209649
0.213559
0.210241
0.209209
0.20762
0.205558
0.202878
0.19947
0.195233
0.19013
0.184162
0.177395
0.169997
0.162242
0.154493
0.147159
0.140643
0.135299
0.131448
0.129345
0.129189
0.131148
0.135423
0.142093
0.150972
0.16165
0.173422
0.185358
0.196169
0.204902
0.210129
0.21261
0.210426
0.209487
0.20801
0.20606
0.203479
0.200178
0.196037
0.191011
0.185093
0.178343
0.170915
0.163083
0.155216
0.147744
0.141102
0.135678
0.131825
0.129823
0.129864
0.132116
0.136795
0.143932
0.153308
0.164333
0.176238
0.188116
0.198464
0.206373
0.210468
0.211198
0.210625
0.209761
0.208402
0.206574
0.204092
0.20083
0.19675
0.191761
0.185833
0.179037
0.171524
0.163571
0.155557
0.147941
0.141187
0.135706
0.131883
0.130024
0.130298
0.132864
0.137878
0.145289
0.154955
0.166291
0.178378
0.190169
0.200174
0.207341
0.210388
0.209492
0.210833
0.210065
0.208864
0.207222
0.204978
0.201916
0.197994
0.193129
0.187276
0.180467
0.172857
0.164716
0.156459
0.14858
0.141582
0.135916
0.132
0.130176
0.130652
0.133699
0.139297
0.147445
0.157933
0.169966
0.182387
0.19364
0.202897
0.208946
0.21037
0.205867
0.0431612
0.037862
0.0446684
0.057339
0.059061
0.0608492
0.0647386
0.068792
0.0733036
0.0782969
0.0834442
0.0884988
0.0933325
0.0978757
0.102088
0.105945
0.109438
0.112574
0.115361
0.117816
0.119969
0.121834
0.123477
0.124874
0.126187
0.12728
0.128496
0.129511
0.130926
0.129459
0.0458609
0.0433675
0.0504347
0.0616975
0.0621611
0.0624585
0.0641423
0.0669113
0.0706626
0.0751583
0.0800562
0.0850351
0.0898959
0.0945434
0.0989217
0.102991
0.106731
0.110135
0.113203
0.115941
0.118365
0.120476
0.122317
0.123861
0.125199
0.12625
0.127192
0.127776
0.128526
0.128483
0.0512676
0.0469232
0.0561422
0.0688712
0.0669289
0.0643219
0.063698
0.064873
0.067598
0.0713844
0.0759008
0.0807557
0.085655
0.0904463
0.0950429
0.0993873
0.103446
0.107199
0.110638
0.113759
0.116567
0.119061
0.121258
0.123153
0.124778
0.126119
0.12725
0.128109
0.128913
0.129605
0.0517533
0.0489063
0.0669001
0.0780077
0.0742553
0.0671056
0.0644477
0.0640013
0.0655616
0.0686332
0.072744
0.0774225
0.0823366
0.0872746
0.0920926
0.0967014
0.101053
0.105122
0.108891
0.112354
0.11551
0.118362
0.120918
0.123182
0.125169
0.12688
0.12834
0.129541
0.130492
0.13128
0.042091
0.0474712
0.0739067
0.0873566
0.0829965
0.0716616
0.0655726
0.0632232
0.0629393
0.06524
0.0690962
0.0736425
0.0785321
0.0835762
0.0885998
0.0934711
0.0981157
0.102496
0.106592
0.110393
0.113895
0.117099
0.12001
0.122632
0.124971
0.127032
0.128816
0.130338
0.131566
0.132638
0.0283401
0.0362834
0.0704816
0.096013
0.0944803
0.0766046
0.0656602
0.0618858
0.0596918
0.0603446
0.0636772
0.0682392
0.0732538
0.0784634
0.0837374
0.0889358
0.0939455
0.0987067
0.103193
0.107391
0.111294
0.114903
0.118221
0.121253
0.124003
0.126476
0.128672
0.13061
0.132248
0.133743
0.0213423
0.0231548
0.0556924
0.0906722
0.10038
0.0830375
0.064449
0.0576042
0.0553621
0.0542196
0.0562561
0.0606874
0.0661374
0.0717443
0.0773768
0.082988
0.088461
0.0937002
0.0986621
0.103332
0.107703
0.111776
0.115558
0.119055
0.122275
0.125223
0.1279
0.130324
0.132443
0.134425
0.0200963
0.0200266
0.0394901
0.0674692
0.0843962
0.0819684
0.0638054
0.0495923
0.0459357
0.0458448
0.0465551
0.0502862
0.0563336
0.0628388
0.0691551
0.0753165
0.0813487
0.0871685
0.092704
0.0979291
0.10284
0.107439
0.111735
0.115741
0.119467
0.122927
0.126121
0.129075
0.131732
0.134266
0.0214764
0.0265979
0.0269797
0.0387539
0.0535585
0.0598007
0.0527991
0.0386314
0.0301268
0.0302221
0.0329713
0.0359476
0.041793
0.0497144
0.057659
0.0649852
0.07189
0.0785015
0.0847875
0.0907101
0.0962701
0.101483
0.106365
0.110935
0.115211
0.119215
0.122954
0.126461
0.129681
0.132794
0.014516
0.0281358
0.0138579
0.0122873
0.0210208
0.0265639
0.0256335
0.0185427
0.00981442
0.00625505
0.00956579
0.0158444
0.0220777
0.0300457
0.0402029
0.0499525
0.0586529
0.0666251
0.0740672
0.0810008
0.0874428
0.093437
0.0990286
0.104255
0.109147
0.113739
0.118049
0.122121
0.125908
0.129597
-0.0103115
0.0129974
-0.00442744
-0.0112046
-0.00832694
-0.00623576
-0.00737344
-0.011041
-0.0165429
-0.0214257
-0.0218399
-0.0157259
-0.00579964
0.00389249
0.0145329
0.0271154
0.0389873
0.0495151
0.0589742
0.0675791
0.075414
0.0825657
0.089135
0.0952052
0.100842
0.106104
0.11103
0.115681
0.120024
0.124255
-0.0476402
-0.014154
-0.0282121
-0.0342744
-0.0353861
-0.0371052
-0.039952
-0.0437783
-0.0481605
-0.0524664
-0.055031
-0.0529683
-0.0449816
-0.0324574
-0.018364
-0.00422419
0.0104358
0.0245721
0.0373016
0.0486241
0.0586885
0.0676784
0.0757541
0.083056
0.0897117
0.0958297
0.101488
0.106779
0.11169
0.116436
-0.085969
-0.0485472
-0.0560651
-0.0585703
-0.0620549
-0.0666988
-0.0716379
-0.0768506
-0.0819591
-0.0863976
-0.0894656
-0.0900136
-0.0859935
-0.0764587
-0.0622359
-0.0449307
-0.0274062
-0.0103799
0.0064642
0.0217983
0.0352067
0.0470313
0.0574722
0.0666951
0.0748964
0.082258
0.08892
0.0950238
0.100603
0.105894
-0.119829
-0.0824288
-0.0840148
-0.0834139
-0.0882798
-0.0946898
-0.101632
-0.108882
-0.115687
-0.121222
-0.125094
-0.126878
-0.125726
-0.120204
-0.109249
-0.0934485
-0.0744258
-0.0537178
-0.0332016
-0.0139694
0.00357642
0.0192382
0.0329915
0.044995
0.0554769
0.0646727
0.0727903
0.0800354
0.0865091
0.0924717
-0.14491
-0.109957
-0.108184
-0.106304
-0.111984
-0.119493
-0.128211
-0.137416
-0.146093
-0.153408
-0.158777
-0.16192
-0.162507
-0.159861
-0.152741
-0.140355
-0.122952
-0.102
-0.0794338
-0.0567598
-0.0351542
-0.0153847
0.00223759
0.0176958
0.0311334
0.0427757
0.0528689
0.0616701
0.069363
0.0762116
-0.158395
-0.127239
-0.125133
-0.123754
-0.130112
-0.138743
-0.149176
-0.160163
-0.170613
-0.179693
-0.186791
-0.191533
-0.193734
-0.193064
-0.188805
-0.179881
-0.165668
-0.146638
-0.124152
-0.099967
-0.0757234
-0.0526273
-0.0314813
-0.0126454
0.00384586
0.018131
0.0304257
0.040994
0.0500981
0.0579558
-0.159051
-0.132455
-0.132052
-0.132269
-0.139604
-0.149642
-0.161793
-0.174555
-0.186807
-0.197615
-0.206295
-0.212478
-0.216041
-0.21682
-0.214359
-0.207836
-0.196361
-0.179714
-0.158678
-0.134763
-0.109641
-0.0848918
-0.0615832
-0.040336
-0.0215593
-0.0051501
0.00897176
0.0210163
0.0313098
0.0399681
-0.147143
-0.126144
-0.126969
-0.129607
-0.138328
-0.149856
-0.16351
-0.177838
-0.191709
-0.204127
-0.214318
-0.221767