/*--------------------------------*- C++ -*----------------------------------*\
  =========                 |
  \\      /  F ield         | OpenFOAM: The Open Source CFD Toolbox
   \\    /   O peration     | Website:  https://openfoam.org
    \\  /    A nd           | Version:  11
     \\/     M anipulation  |
\*---------------------------------------------------------------------------*/
FoamFile
{
    format      ascii;
    class       volScalarField;
    location    "9";
    object      p;
}
// * * * * * * * * * * * * * * * * * * * * * * * * * * * * * * * * * * * * * //

dimensions      [0 2 -2 0 0 0 0];

internalField   nonuniform List<scalar> 
12600
(
0.233872
0.233773
0.233679
0.233589
0.233478
0.233337
0.233164
0.232955
0.232708
0.232418
0.232077
0.231679
0.231216
0.230678
0.230053
0.229329
0.22849
0.227517
0.22639
0.225082
0.223565
0.221804
0.21976
0.217385
0.214626
0.211424
0.207712
0.203414
0.198484
0.192752
0.233822
0.233768
0.233691
0.233602
0.233492
0.233353
0.233182
0.232976
0.232733
0.232446
0.232109
0.231717
0.23126
0.230729
0.230113
0.229398
0.22857
0.22761
0.226496
0.225205
0.223707
0.221967
0.219946
0.217597
0.214865
0.21169
0.208003
0.203727
0.198786
0.19307
0.233825
0.233789
0.233722
0.233634
0.233525
0.233389
0.233223
0.233022
0.232784
0.232504
0.232175
0.231791
0.231345
0.230826
0.230225
0.229527
0.228719
0.227782
0.226695
0.225434
0.223971
0.22227
0.220293
0.217992
0.215313
0.212192
0.208557
0.20433
0.1994
0.193719
0.233844
0.233818
0.233758
0.233674
0.233569
0.233438
0.233278
0.233085
0.232855
0.232585
0.232268
0.231898
0.231468
0.230968
0.230388
0.229716
0.228937
0.228034
0.226986
0.225771
0.224359
0.222717
0.220806
0.218579
0.215979
0.212943
0.209391
0.205243
0.200365
0.194719
0.233883
0.233861
0.233809
0.233731
0.233631
0.233507
0.233354
0.233171
0.232952
0.232694
0.232392
0.23204
0.231631
0.231155
0.230603
0.229964
0.229223
0.228364
0.227368
0.226211
0.224867
0.223303
0.22148
0.21935
0.216858
0.213937
0.210504
0.20647
0.201686
0.196113
0.233937
0.233919
0.233872
0.2338
0.233706
0.23359
0.233446
0.233274
0.233068
0.232826
0.232543
0.232212
0.231828
0.231382
0.230864
0.230265
0.229571
0.228766
0.227833
0.226749
0.225489
0.224021
0.222307
0.220301
0.217947
0.215175
0.211899
0.208023
0.203378
0.197924
0.234006
0.233989
0.233948
0.233882
0.233795
0.233688
0.233555
0.233396
0.233206
0.232982
0.23272
0.232415
0.23206
0.231648
0.231171
0.230619
0.229979
0.229238
0.228378
0.22738
0.226219
0.224865
0.223282
0.221425
0.219238
0.216652
0.213574
0.209906
0.205457
0.20018
0.234086
0.234072
0.234035
0.233976
0.233897
0.233799
0.233679
0.233534
0.233362
0.233158
0.232921
0.232644
0.232322
0.23195
0.231518
0.231019
0.230441
0.229771
0.228996
0.228095
0.227047
0.225824
0.224393
0.22271
0.220721
0.218358
0.215526
0.212122
0.207936
0.202914
0.234178
0.234165
0.234132
0.23408
0.234011
0.233924
0.233817
0.233688
0.233534
0.233354
0.233143
0.232898
0.232613
0.232283
0.231902
0.231461
0.230951
0.230362
0.229679
0.228886
0.227965
0.226889
0.225629
0.224144
0.222383
0.220281
0.217743
0.214665
0.210823
0.206153
0.234279
0.234268
0.234239
0.234195
0.234134
0.234059
0.233966
0.233855
0.233722
0.233566
0.233384
0.233173
0.232928
0.232644
0.232317
0.23194
0.231504
0.231
0.230418
0.229744
0.22896
0.228045
0.226973
0.225708
0.224204
0.222401
0.220207
0.217521
0.214113
0.209911
0.234388
0.234378
0.234355
0.234317
0.234267
0.234204
0.234127
0.234033
0.233923
0.233793
0.233642
0.233466
0.233263
0.233029
0.23276
0.232449
0.232092
0.23168
0.231205
0.230656
0.230019
0.229277
0.228408
0.227383
0.226162
0.224692
0.222891
0.220664
0.217788
0.214182
0.234504
0.234496
0.234477
0.234448
0.234407
0.234357
0.234296
0.234222
0.234134
0.234031
0.233912
0.233775
0.233616
0.233433
0.233224
0.232983
0.232708
0.232392
0.232029
0.231611
0.231128
0.230568
0.229914
0.229145
0.228228
0.227121
0.225756
0.224049
0.221802
0.218928
0.234625
0.234619
0.234605
0.234583
0.234554
0.234517
0.234471
0.234417
0.234353
0.234279
0.234193
0.234094
0.233981
0.233851
0.233704
0.233535
0.233344
0.233126
0.232878
0.232595
0.232272
0.231899
0.231469
0.230965
0.230368
0.229646
0.228752
0.227618
0.226085
0.22407
0.23475
0.234747
0.234738
0.234723
0.234704
0.234681
0.234652
0.234618
0.234578
0.234533
0.23448
0.234421
0.234354
0.234279
0.234194
0.234099
0.233993
0.233875
0.233743
0.233597
0.233434
0.233252
0.233047
0.232814
0.232543
0.232221
0.231817
0.231293
0.23054
0.229486
0.234878
0.234877
0.234872
0.234866
0.234858
0.234847
0.234835
0.234822
0.234807
0.23479
0.234772
0.234752
0.234731
0.23471
0.234688
0.234667
0.234646
0.234627
0.234611
0.234601
0.234597
0.234604
0.234624
0.23466
0.234715
0.234791
0.234884
0.234982
0.235039
0.235008
0.235007
0.235008
0.235008
0.23501
0.235012
0.235015
0.23502
0.235026
0.235035
0.235047
0.235063
0.235083
0.235109
0.235141
0.235181
0.235232
0.235295
0.235374
0.235472
0.235594
0.235747
0.235937
0.236175
0.236471
0.236842
0.237304
0.237879
0.238584
0.239441
0.240436
0.235136
0.235138
0.235144
0.235153
0.235165
0.235182
0.235203
0.23523
0.235263
0.235303
0.235352
0.235411
0.235481
0.235566
0.235668
0.235789
0.235934
0.236107
0.236315
0.236565
0.236867
0.237232
0.237676
0.238218
0.238884
0.239707
0.240729
0.241998
0.243597
0.245553
0.235264
0.235268
0.235278
0.235294
0.235317
0.235346
0.235383
0.235429
0.235485
0.235553
0.235634
0.235731
0.235846
0.235981
0.236141
0.236331
0.236554
0.236817
0.23713
0.237501
0.237942
0.23847
0.239105
0.239873
0.240807
0.241952
0.24337
0.245132
0.247371
0.250155
0.235388
0.235394
0.235408
0.235432
0.235464
0.235505
0.235558
0.235623
0.235701
0.235796
0.235908
0.236041
0.236198
0.236382
0.236598
0.236851
0.237149
0.237497
0.237907
0.23839
0.238961
0.239638
0.240445
0.241412
0.24258
0.244001
0.245749
0.247913
0.250655
0.254078
0.235509
0.235516
0.235534
0.235564
0.235606
0.235659
0.235726
0.235808
0.235908
0.236028
0.23617
0.236337
0.236533
0.236763
0.237032
0.237346
0.237712
0.23814
0.23864
0.239225
0.239912
0.240722
0.241679
0.242818
0.244181
0.245825
0.24783
0.250292
0.253382
0.257223
0.235624
0.235633
0.235655
0.235691
0.23574
0.235804
0.235885
0.235984
0.236104
0.236247
0.236417
0.236616
0.23685
0.237122
0.23744
0.237809
0.238239
0.238739
0.23932
0.239997
0.240787
0.241712
0.242797
0.244078
0.245597
0.247411
0.249597
0.252251
0.255532
0.259566
0.235733
0.235743
0.235768
0.235809
0.235866
0.23594
0.236034
0.236148
0.236287
0.236452
0.236647
0.236876
0.237143
0.237455
0.237817
0.238237
0.238725
0.239289
0.239943
0.2407
0.24158
0.242602
0.243794
0.245187
0.246823
0.248755
0.251051
0.253798
0.257129
0.261155
0.235835
0.235845
0.235873
0.235919
0.235983
0.236066
0.23617
0.236299
0.236454
0.236639
0.236857
0.237113
0.237411
0.237758
0.238161
0.238626
0.239164
0.239786
0.240503
0.24133
0.242285
0.243388
0.244664
0.246143
0.247861
0.249864
0.252209
0.254966
0.258232
0.262093
0.235928
0.23594
0.235969
0.236018
0.236088
0.236179
0.236294
0.236435
0.236605
0.236807
0.237046
0.237326
0.237651
0.23803
0.238467
0.238973
0.239556
0.240227
0.240998
0.241884
0.242901
0.244069
0.24541
0.24695
0.24872
0.250757
0.253102
0.255806
0.258926
0.262518
0.236013
0.236025
0.236055
0.236106
0.23618
0.236278
0.236402
0.236554
0.236737
0.236954
0.237211
0.237511
0.237861
0.238266
0.238735
0.239274
0.239895
0.240608
0.241424
0.242359
0.243427
0.244645
0.246034
0.247616
0.249413
0.251454
0.253765
0.256376
0.259305
0.262576
0.23609
0.236101
0.23613
0.236182
0.23626
0.236364
0.236495
0.236656
0.23685
0.23708
0.237352
0.23767
0.23804
0.238467
0.238961
0.23953
0.240182
0.240929
0.241782
0.242755
0.243862
0.245119
0.246542
0.248149
0.249957
0.251983
0.25424
0.256738
0.259464
0.262412
0.236159
0.236168
0.236192
0.236243
0.236324
0.236432
0.236569
0.236737
0.23694
0.237181
0.237466
0.237797
0.238183
0.238629
0.239144
0.239735
0.240412
0.241187
0.242069
0.243072
0.244208
0.245492
0.246938
0.248558
0.250365
0.252366
0.254562
0.256949
0.259486
0.262144
0.236222
0.236224
0.236241
0.236292
0.236376
0.236488
0.236629
0.236802
0.237011
0.23726
0.237554
0.237896
0.238294
0.238754
0.239283
0.239892
0.240588
0.241383
0.242287
0.243311
0.244468
0.24577
0.24723
0.248856
0.250655
0.252629
0.254769
0.257057
0.259444
0.261876
0.236285
0.236262
0.236267
0.236318
0.236406
0.236522
0.236666
0.236843
0.237057
0.237312
0.237611
0.237961
0.238367
0.238836
0.239376
0.239996
0.240705
0.241514
0.242432
0.24347
0.24464
0.245954
0.247421
0.249048
0.250838
0.252788
0.254882
0.257093
0.259378
0.261667
0.236374
0.236298
0.236285
0.236337
0.236426
0.236542
0.236687
0.236865
0.237082
0.23734
0.237643
0.237996
0.238407
0.238881
0.239427
0.240052
0.240768
0.241583
0.242508
0.243553
0.244729
0.246047
0.247516
0.249141
0.250923
0.252855
0.254918
0.257081
0.259282
0.26145
0.18818
0.186186
0.184769
0.183641
0.182439
0.18111
0.179722
0.178305
0.176851
0.175345
0.173775
0.172131
0.17039
0.168531
0.166523
0.16433
0.161907
0.159198
0.156132
0.15262
0.148545
0.143751
0.138026
0.131088
0.1225
0.111759
0.0979141
0.0788433
0.0597032
0.00654499
0.189073
0.187562
0.186275
0.185119
0.183901
0.1826
0.181277
0.179954
0.17861
0.177226
0.175787
0.17428
0.172686
0.170984
0.169146
0.167142
0.164933
0.162471
0.159697
0.156534
0.152882
0.14861
0.143539
0.137439
0.129944
0.120659
0.108678
0.0930795
0.0747459
0.0330865
0.189479
0.188264
0.187195
0.186123
0.185005
0.183859
0.182708
0.181547
0.180356
0.179121
0.177831
0.176478
0.175048
0.173522
0.171878
0.170092
0.168132
0.165957
0.163518
0.160752
0.157577
0.153888
0.149539
0.144347
0.138013
0.130238
0.120244
0.107593
0.09136
0.0596178
0.190424
0.189494
0.188671
0.187728
0.186717
0.185701
0.184687
0.183657
0.182597
0.181502
0.180366
0.17918
0.177931
0.176604
0.175182
0.173644
0.171965
0.170113
0.168049
0.165724
0.163074
0.160017
0.156438
0.152197
0.147057
0.140802
0.132765
0.122796
0.109213
0.0858651
0.191798
0.191077
0.190443
0.189617
0.188713
0.187831
0.186966
0.18609
0.18519
0.184263
0.183308
0.182314
0.181273
0.180173
0.179002
0.177745
0.176382
0.174892
0.173246
0.171406
0.169326
0.166946
0.164181
0.160927
0.157002
0.152258
0.14613
0.138683
0.127943
0.111652
0.193605
0.193078
0.192635
0.19195
0.191178
0.190446
0.189745
0.189035
0.188306
0.187561
0.186799
0.186016
0.185203
0.184355
0.183463
0.182517
0.181505
0.180412
0.179219
0.177901
0.176428
0.174757
0.172831
0.170577
0.167861
0.164588
0.160293
0.155189
0.147234
0.13677
0.195889
0.195556
0.195308
0.194772
0.194142
0.193567
0.193037
0.192506
0.191965
0.19142
0.190875
0.190326
0.189768
0.189199
0.188614
0.188009
0.187377
0.186711
0.186001
0.185234
0.184392
0.183449
0.18237
0.181109
0.179572
0.177702
0.17513
0.172154
0.166789
0.161018
0.198705
0.198568
0.19852
0.198145
0.197667
0.197263
0.196919
0.196584
0.196248
0.195923
0.195614
0.195319
0.195038
0.194769
0.194515
0.194274
0.194046
0.19383
0.193624
0.193423
0.193221
0.193007
0.192763
0.192462
0.192044
0.19148
0.190482
0.189377
0.186316
0.1842
0.202106
0.202168
0.202322
0.202118
0.201806
0.201585
0.201439
0.201314
0.201199
0.20111
0.201053
0.201031
0.201044
0.201096
0.20119
0.20133
0.201521
0.201766
0.202071
0.202437
0.202869
0.203364
0.203919
0.204521
0.205134
0.205746
0.206137
0.206612
0.205513
0.206121
0.206135
0.206395
0.206751
0.206726
0.206593
0.206565
0.206629
0.206726
0.206845
0.207003
0.207213
0.207476
0.207795
0.208177
0.208628
0.209156
0.209769
0.210474
0.211281
0.2122
0.213237
0.214402
0.215695
0.217118
0.218647
0.220276
0.221842
0.223587
0.224087
0.226592
0.210809
0.211263
0.211814
0.211975
0.21203
0.212204
0.212485
0.212811
0.21317
0.213584
0.214065
0.214618
0.215247
0.21596
0.216767
0.217676
0.2187
0.219848
0.221134
0.22257
0.224168
0.225939
0.227891
0.230027
0.232334
0.234805
0.23731
0.24002
0.241759
0.245462
0.216108
0.216745
0.217477
0.217825
0.218076
0.218456
0.218955
0.219509
0.22011
0.220777
0.221527
0.222365
0.223296
0.22433
0.225477
0.22675
0.228159
0.229719
0.231442
0.233344
0.235437
0.237735
0.240246
0.242974
0.245907
0.249034
0.252245
0.255637
0.258277
0.262599
0.22196
0.22276
0.22365
0.224182
0.224631
0.225214
0.225923
0.226698
0.227531
0.228443
0.229449
0.230556
0.23177
0.233102
0.234562
0.236165
0.237921
0.239844
0.24195
0.244251
0.246761
0.249493
0.252452
0.255641
0.259046
0.262647
0.266347
0.27018
0.273426
0.277908
0.228221
0.229159
0.230179
0.230884
0.231524
0.2323
0.233205
0.234185
0.235232
0.236367
0.237606
0.238956
0.240424
0.242019
0.243754
0.245642
0.247693
0.249923
0.252343
0.254968
0.257808
0.260872
0.264166
0.267685
0.271413
0.275319
0.279313
0.283385
0.286974
0.291309
0.234682
0.235728
0.236844
0.237703
0.238521
0.239471
0.240549
0.241708
0.242944
0.244274
0.245714
0.247271
0.248952
0.250768
0.25273
0.254849
0.257138
0.259608
0.262271
0.265138
0.268218
0.271517
0.275034
0.278761
0.282675
0.286735
0.290852
0.294974
0.298649
0.302667
0.241073
0.242194
0.243372
0.24436
0.245336
0.246435
0.247655
0.248962
0.250352
0.251841
0.253443
0.255165
0.257016
0.259003
0.261139
0.263433
0.265896
0.268539
0.271372
0.274404
0.27764
0.281081
0.284725
0.288555
0.292541
0.296634
0.300738
0.304761
0.308322
0.311879
0.247094
0.248261
0.249469
0.250558
0.251661
0.252878
0.254207
0.255626
0.257133
0.258741
0.260462
0.262305
0.264276
0.266384
0.268639
0.271051
0.273629
0.276382
0.279319
0.282444
0.285761
0.289269
0.292958
0.296809
0.300784
0.304825
0.308831
0.312677
0.316041
0.319075
0.252457
0.253645
0.254859
0.256017
0.257214
0.258514
0.259917
0.26141
0.262994
0.26468
0.266478
0.268396
0.270441
0.272621
0.274945
0.277421
0.280059
0.282865
0.285846
0.289005
0.292343
0.295856
0.29953
0.303342
0.307249
0.311186
0.315047
0.318687
0.321829
0.324385
0.256935
0.258123
0.259327
0.260523
0.261776
0.263125
0.264567
0.266098
0.26772
0.269444
0.271278
0.273229
0.275304
0.27751
0.279857
0.28235
0.284999
0.287809
0.290785
0.293929
0.297239
0.300709
0.304322
0.308052
0.311851
0.315649
0.319335
0.322748
0.325625
0.327701
0.260394
0.261568
0.262749
0.263955
0.265229
0.266592
0.268041
0.269575
0.271201
0.272926
0.274758
0.276703
0.278768
0.280961
0.283289
0.285758
0.288376
0.291148
0.294077
0.297164
0.300406
0.303794
0.307309
0.310921
0.314579
0.318208
0.32169
0.32485
0.327428
0.329058
0.262816
0.263964
0.265115
0.266304
0.267566
0.26891
0.270336
0.271844
0.273441
0.275134
0.276929
0.278834
0.280855
0.282999
0.285273
0.287682
0.290234
0.292932
0.295779
0.298775
0.301916
0.305189
0.308576
0.312041
0.315533
0.318967
0.322222
0.325107
0.327373
0.328598
0.264288
0.265398
0.266513
0.267664
0.268886
0.270186
0.271562
0.273018
0.274558
0.27619
0.277921
0.279756
0.281703
0.283767
0.285955
0.288273
0.290727
0.293319
0.296053
0.298927
0.301935
0.305065
0.308294
0.311584
0.31488
0.318091
0.321091
0.323665
0.325586
0.326186
0.264966
0.266028
0.267098
0.268194
0.269352
0.270584
0.271891
0.273271
0.274732
0.27628
0.277922
0.279663
0.281509
0.283467
0.285543
0.287742
0.29007
0.292528
0.29512
0.297841
0.300686
0.30364
0.306679
0.309761
0.312827
0.315778
0.318487
0.320699
0.322283
0.322021
0.265052
0.266051
0.267065
0.268091
0.269167
0.270313
0.271531
0.272819
0.27418
0.275624
0.277155
0.278779
0.280503
0.282332
0.284272
0.286328
0.288504
0.290803
0.293225
0.295767
0.298421
0.301169
0.303986
0.306829
0.309631
0.312285
0.314666
0.316465
0.317688
0.316687
0.264749
0.265675
0.26662
0.267564
0.268547
0.269597
0.270714
0.271895
0.273145
0.274469
0.275875
0.277368
0.278953
0.280636
0.282421
0.284313
0.286317
0.288433
0.290661
0.292996
0.29543
0.297942
0.300505
0.303069
0.305566
0.307876
0.309874
0.311181
0.311914
0.309991
0.264249
0.265089
0.26595
0.266801
0.267683
0.268626
0.26963
0.270693
0.271817
0.27301
0.274278
0.275626
0.277059
0.278582
0.280199
0.281914
0.283729
0.285645
0.287661
0.28977
0.291959
0.294209
0.296485
0.298733
0.300879
0.302785
0.304324
0.305032
0.305122
0.301858
0.263706
0.264449
0.265217
0.265975
0.266759
0.267595
0.268485
0.269428
0.270427
0.271486
0.272611
0.273808
0.27508
0.276433
0.27787
0.279393
0.281006
0.282707
0.284493
0.286354
0.288277
0.290235
0.292192
0.294084
0.295828
0.297265
0.298262
0.29825
0.297593
0.292618
0.263254
0.263859
0.264486
0.265133
0.265812
0.266531
0.267297
0.268112
0.268976
0.269891
0.270865
0.271906
0.273018
0.2742
0.275457
0.276788
0.278196
0.279678
0.281229
0.282836
0.284482
0.286137
0.287756
0.289268
0.290577
0.291498
0.29189
0.291057
0.289609
0.282545
0.263149
0.263584
0.264042
0.264594
0.26518
0.265786
0.266438
0.267152
0.267904
0.268679
0.269495
0.270369
0.271306
0.272306
0.27337
0.274498
0.27569
0.276941
0.278243
0.279582
0.280933
0.282261
0.283514
0.284608
0.285434
0.285775
0.285484
0.283691
0.281475
0.271757
0.262947
0.263099
0.263382
0.26384
0.26435
0.264857
0.265357
0.265889
0.266479
0.267121
0.267808
0.268539
0.26932
0.270152
0.271038
0.271976
0.272964
0.273996
0.275064
0.276149
0.277224
0.278246
0.279155
0.279851
0.280209
0.279979
0.279017
0.276106
0.273457
0.260405
0.249054
0.237683
0.225822
0.213956
0.202646
0.192156
0.182802
0.175031
0.169382
0.166321
0.166461
0.170034
0.177239
0.187906
0.198759
0.204753
0.204958
0.203026
0.201352
0.200388
0.19948
0.19798
0.19615
0.194032
0.191938
0.188553
0.18283
0.174917
0.166336
0.156304
0.265995
0.256757
0.246499
0.236232
0.226277
0.216816
0.20822
0.200873
0.194987
0.190672
0.188873
0.189775
0.192812
0.19823
0.205083
0.209216
0.207542
0.203289
0.201952
0.201014
0.199438
0.197783
0.195674
0.193144
0.189744
0.184183
0.17623
0.167515
0.159426
0.150819
0.268705
0.259862
0.250561
0.241408
0.231939
0.222653
0.214172
0.206632
0.200181
0.195348
0.192653
0.19236
0.19416
0.197711
0.202461
0.204681
0.204236
0.202626
0.202212
0.201333
0.200137
0.19867
0.195925
0.191874
0.185934
0.177543
0.16747
0.158323
0.151062
0.144279
0.273327
0.266408
0.258681
0.250096
0.241474
0.23307
0.22497
0.217318
0.210568
0.205148
0.201419
0.19964
0.199714
0.201241
0.203677
0.204928
0.204793
0.2032
0.20216
0.20143
0.200516
0.198823
0.195446
0.189202
0.179765
0.168146
0.156089
0.146684
0.141228
0.137556
0.275075
0.268941
0.261882
0.254552
0.246909
0.239074
0.231279
0.223884
0.217252
0.211656
0.207449
0.204901
0.203993
0.204387
0.205455
0.206202
0.205742
0.204242
0.202462
0.200827
0.199875
0.196908
0.192294
0.18408
0.170236
0.153817
0.139316
0.130173
0.128767
0.13178
0.276061
0.270952
0.264998
0.258529
0.251597
0.244318
0.236932
0.229741
0.223057
0.217201
0.212513
0.209254
0.207457
0.206876
0.20686
0.20703
0.206206
0.204549
0.202584
0.200098
0.197893
0.193816
0.186602
0.175152
0.157475
0.13657
0.119438
0.110962
0.114679
0.129645
0.276306
0.272018
0.266897
0.261159
0.254915
0.248255
0.241358
0.234476
0.227911
0.221984
0.217012
0.213245
0.210753
0.209363
0.208613
0.208008
0.206772
0.20486
0.202573
0.19974
0.196121
0.190083
0.180477
0.166424
0.146338
0.123484
0.106837
0.103864
0.114217
0.139018
0.276107
0.272533
0.268176
0.26314
0.257522
0.251416
0.244965
0.238393
0.231983
0.226046
0.220884
0.216744
0.213724
0.211707
0.210336
0.209117
0.207509
0.20533
0.20266
0.199337
0.194748
0.188026
0.177104
0.162552
0.14419
0.124813
0.113047
0.116857
0.133362
0.161803
0.275618
0.272655
0.26896
0.264542
0.259489
0.253898
0.24789
0.24165
0.235433
0.229534
0.22425
0.219826
0.216385
0.213856
0.211948
0.21024
0.208287
0.205841
0.202844
0.199092
0.194043
0.187146
0.177372
0.165083
0.150785
0.138546
0.135436
0.146368
0.167572
0.194129
0.274954
0.272511
0.26939
0.265522
0.260984
0.255871
0.250283
0.244374
0.23837
0.232551
0.227203
0.222572
0.218797
0.215847
0.213491
0.21137
0.209092
0.206392
0.20314
0.199125
0.193944
0.187217
0.178732
0.169142
0.160147
0.155049
0.159193
0.174843
0.197355
0.223897
0.274187
0.27219
0.269564
0.266182
0.262111
0.257438
0.252246
0.246661
0.240881
0.235169
0.229802
0.225023
0.220986
0.217691
0.214962
0.212487
0.209922
0.207001
0.203565
0.199424
0.194307
0.188062
0.180911
0.173928
0.16919
0.169593
0.178372
0.195785
0.218187
0.243044
0.27337
0.271754
0.269558
0.266605
0.262953
0.258684
0.253863
0.248589
0.243038
0.237452
0.232097
0.227216
0.222971
0.219394
0.21635
0.213574
0.210761
0.20766
0.204106
0.199951
0.195055
0.189494
0.183791
0.179264
0.177938
0.182087
0.193227
0.210626
0.231461
0.252191
0.272538
0.271249
0.269424
0.266849
0.263574
0.259675
0.255199
0.250222
0.244898
0.23945
0.234132
0.229183
0.224776
0.220965
0.217654
0.214622
0.211599
0.208356
0.204743
0.200664
0.196109
0.191336
0.187078
0.184711
0.185992
0.192469
0.204595
0.221029
0.239112
0.255185
0.271714
0.270707
0.269204
0.266963
0.264027
0.260465
0.256308
0.251612
0.24651
0.241206
0.235942
0.230952
0.226418
0.222413
0.218877
0.215626
0.212427
0.209077
0.205454
0.20152
0.197378
0.193426
0.190503
0.189925
0.193065
0.200865
0.213074
0.227881
0.242899
0.254549
0.270914
0.27015
0.268927
0.266981
0.264349
0.261094
0.257233
0.252801
0.247913
0.242756
0.237557
0.232547
0.227912
0.223747
0.220019
0.216581
0.213236
0.209811
0.206217
0.202475
0.19878
0.195625
0.193881
0.194725
0.199101
0.207512
0.219159
0.231973
0.243896
0.251052
0.270149
0.269596
0.268616
0.266932
0.264574
0.261599
0.258009
0.253824
0.249141
0.244128
0.239002
0.233987
0.229275
0.224974
0.221082
0.217484
0.214018
0.210544
0.207009
0.203487
0.200247
0.197832
0.197083
0.198952
0.204178
0.212642
0.223265
0.233984
0.243098
0.246802
0.269424
0.269056
0.268287
0.266836
0.264725
0.262004
0.258664
0.25471
0.25022
0.24535
0.240301
0.235291
0.230516
0.226102
0.222067
0.218332
0.214766
0.211264
0.207809
0.204522
0.201722
0.199972
0.200041
0.202607
0.208334
0.216436
0.225758
0.234362
0.240606
0.241705
0.268744
0.268536
0.267953
0.26671
0.264824
0.262334
0.259224
0.255483
0.251176
0.246442
0.241471
0.236473
0.231649
0.227135
0.222976
0.219122
0.215474
0.21196
0.208598
0.205548
0.203161
0.201992
0.202714
0.205822
0.211556
0.21904
0.226919
0.233355
0.236555
0.234694
0.268108
0.268043
0.267623
0.266566
0.264885
0.262607
0.259706
0.256164
0.252028
0.247425
0.242529
0.237548
0.232682
0.228082
0.223812
0.219852
0.216136
0.212622
0.209359
0.206541
0.204532
0.203856
0.205074
0.208538
0.21397
0.220655
0.226984
0.231194
0.2314
0.226568
0.267514
0.267577
0.267304
0.266416
0.264918
0.262836
0.260129
0.256769
0.252794
0.248313
0.24349
0.238526
0.233624
0.228946
0.224577
0.220522
0.216747
0.213241
0.21008
0.20748
0.205809
0.205541
0.207115
0.210688
0.215748
0.221468
0.226156
0.228147
0.225581
0.218182
0.266958
0.267138
0.266999
0.266267
0.26494
0.263035
0.260506
0.257315
0.253488
0.249121
0.244367
0.239419
0.234484
0.229733
0.225271
0.22113
0.217303
0.213808
0.210747
0.208351
0.206975
0.207036
0.208843
0.212356
0.216955
0.221595
0.224612
0.224452
0.219357
0.209668
0.266438
0.266724
0.266709
0.266123
0.264955
0.263213
0.260848
0.257813
0.254124
0.249862
0.24517
0.240236
0.235267
0.230447
0.225897
0.221674
0.217801
0.21432
0.211355
0.209143
0.208022
0.208342
0.210281
0.213632
0.217652
0.221153
0.222508
0.220283
0.21286
0.201061
0.265953
0.266333
0.266435
0.265986
0.264969
0.26338
0.261165
0.258275
0.254712
0.250546
0.245909
0.240984
0.235981
0.231092
0.226456
0.222154
0.218235
0.214765
0.211888
0.209842
0.208938
0.209456
0.211446
0.214551
0.21791
0.220246
0.219968
0.21576
0.206178
0.192373
0.265506
0.265968
0.266176
0.265859
0.264986
0.263542
0.261467
0.25871
0.255264
0.251184
0.246594
0.241671
0.236629
0.23167
0.226951
0.222572
0.218611
0.215154
0.212357
0.21046
0.20974
0.210406
0.212383
0.215177
0.217824
0.21898
0.217099
0.210974
0.199367
0.18363
0.265099
0.265633
0.265933
0.26574
0.265008
0.263704
0.261758
0.259125
0.255786
0.251786
0.247235
0.242308
0.237219
0.232184
0.227373
0.22291
0.218899
0.215447
0.212721
0.210954
0.21039
0.211167
0.213085
0.215523
0.217432
0.217411
0.213968
0.205993
0.192493
0.17495
0.264722
0.265326
0.265704
0.265629
0.265037
0.263873
0.262048
0.259526
0.256283
0.25235
0.247828
0.242891
0.237756
0.232653
0.22776
0.223222
0.219164
0.215715
0.213054
0.2114
0.210964
0.211824
0.213651
0.215701
0.216846
0.215636
0.210636
0.200834
0.185531
0.166268
0.264374
0.265039
0.265486
0.265522
0.265062
0.264047
0.262354
0.259941
0.256788
0.252911
0.248402
0.243428
0.238216
0.233005
0.228004
0.223381
0.219269
0.215814
0.213208
0.211669
0.21136
0.212277
0.213986
0.215662
0.216065
0.213698
0.207201
0.195672
0.17871
0.157834
0.264062
0.264764
0.265284
0.265439
0.265088
0.26414
0.262608
0.260307
0.257246
0.253438
0.248966
0.24399
0.238726
0.233416
0.228307
0.223595
0.219425
0.215956
0.213394
0.211957
0.21176
0.212701
0.214262
0.215536
0.215154
0.211544
0.203429
0.190007
0.171331
0.14892
0.263809
0.264482
0.265082
0.26541
0.265248
0.264446
0.262942
0.260725
0.257707
0.253888
0.249368
0.244317
0.238959
0.233546
0.228339
0.223548
0.219333
0.21587
0.213375
0.212057
0.211988
0.212954
0.214441
0.215375
0.214328
0.209725
0.200263
0.185316
0.165371
0.14193
0.263642
0.264174
0.264748
0.265181
0.265187
0.264582
0.263287
0.261254
0.258392
0.25468
0.250177
0.245058
0.239577
0.23401
0.228638
0.223693
0.219357
0.215826
0.213323
0.212063
0.212095
0.213099
0.214481
0.214967
0.2129
0.206651
0.194833
0.177193
0.154599
0.129923
0.00755335
-0.000362301
0.00547004
0.0246021
0.0310277
0.0412577
0.0515206
0.0613543
0.0700877
0.0782408
0.0855344
0.0920103
0.0976668
0.10258
0.106808
0.110409
0.113443
0.115964
0.118026
0.119678
0.120969
0.121947
0.122671
0.123166
0.123544
0.123759
0.124075
0.124271
0.124721
0.122812
0.00529189
0.00129396
0.0102394
0.0234827
0.0299732
0.0382797
0.0479399
0.0574816
0.0662361
0.0744541
0.0819738
0.0887147
0.0946769
0.0999138
0.10448
0.108426
0.111806
0.114669
0.117063
0.11903
0.120611
0.121837
0.122754
0.123373
0.123769
0.123909
0.12393
0.123691
0.123485
0.122704
0.00617481
0.00925324
0.0166346
0.0233851
0.0277849
0.0343453
0.0431868
0.05243
0.061156
0.0694645
0.0772546
0.0843711
0.0907622
0.0964483
0.101476
0.105891
0.109738
0.113063
0.115906
0.118307
0.1203
0.121913
0.123179
0.124114
0.124756
0.125109
0.125235
0.125113
0.124952
0.124739
0.00987623
0.0167646
0.0218629
0.0252388
0.0254582
0.0306221
0.0390642
0.0483332
0.0572143
0.0656924
0.0737291
0.0812034
0.0880074
0.0941115
0.0995495
0.104369
0.108612
0.112322
0.115541
0.118306
0.120653
0.122612
0.124213
0.125478
0.126435
0.1271
0.127504
0.127653
0.127578
0.127386
0.0100603
0.0175914
0.0297841
0.0299965
0.0250287
0.0271239
0.0341421
0.0430902
0.0525366
0.0614668
0.0698236
0.0776781
0.0849238
0.0914726
0.0973362
0.102564
0.107203
0.111297
0.114891
0.118023
0.120731
0.123044
0.12499
0.126593
0.127874
0.12885
0.129537
0.129958
0.130092
0.13011
0.00352459
0.0164902
0.0382044
0.0359425
0.0223998
0.0216126
0.0275898
0.0357187
0.045917
0.0556448
0.0644867
0.0727847
0.0805477
0.0876482
0.0940537
0.0997987
0.10493
0.109496
0.113542
0.117114
0.120247
0.122977
0.12533
0.127331
0.129
0.130355
0.131408
0.132188
0.132661
0.133018
0.000424409
0.0144685
0.0344097
0.0392398
0.0221774
0.0135993
0.0176259
0.0247095
0.0356248
0.0471703
0.0573406
0.0664674
0.0749067
0.0826695
0.0897253
0.0960922
0.101812
0.106935
0.111511
0.115587
0.119206
0.122406
0.125221
0.127677
0.129796
0.131599
0.133094
0.134312
0.135208
0.135981
-0.00592464
0.00994355
0.0178804
0.0218757
0.0156426
0.00444191
0.00424208
0.0110474
0.0210712
0.0342978
0.0468806
0.0578348
0.0675334
0.0762731
0.0841755
0.0913041
0.0977182
0.103481
0.108655
0.113293
0.117446
0.121158
0.124469
0.127413
0.130015
0.132301
0.134281
0.135989
0.137376
0.138643
-0.0217854
-0.00367764
-0.00799805
-0.00947918
-0.00827673
-0.0124043
-0.0152424
-0.00818752
0.00316959
0.016841
0.0316458
0.045328
0.0572393
0.0676118
0.0767805
0.084955
0.0922646
0.0988144
0.104695
0.10998
0.114732
0.119006
0.122852
0.126311
0.129418
0.132204
0.134686
0.136904
0.138811
0.140613
-0.0482091
-0.025747
-0.035464
-0.0408346
-0.0407715
-0.0406302
-0.0415114
-0.0365976
-0.0231594
-0.00646234
0.0104034
0.0271994
0.042336
0.0553678
0.0665802
0.07633
0.0848942
0.0924869
0.0992632
0.105334
0.11079
0.115706
0.120144
0.12416
0.127796
0.131094
0.13408
0.136801
0.139217
0.141533
-0.0777585
-0.0522752
-0.06109
-0.0666835
-0.0695728
-0.0714493
-0.0716893
-0.0682448
-0.0574999
-0.0393045
-0.0182889
0.0018108
0.0208452
0.0376193
0.0521106
0.0643922
0.0748506
0.0839244
0.0919057
0.0989797
0.105291
0.110956
0.116067
0.120695
0.124898
0.128729
0.132222
0.135435
0.138333
0.141126
-0.105377
-0.0785136
-0.0843834
-0.0884741
-0.0932111
-0.0977073
-0.0998727
-0.098205
-0.0910838
-0.0765106
-0.0553264
-0.0314478
-0.00888981
0.0120056
0.0311066
0.047258
0.0606944
0.0720712
0.0818481
0.0903316
0.0977723
0.10437
0.110272
0.11559
0.120407
0.124795
0.128803
0.132499
0.135855
0.139084
-0.127714
-0.100987
-0.104102
-0.106392
-0.112167
-0.118204
-0.122541
-0.123495
-0.119867
-0.11018
-0.0933436
-0.0706848
-0.0456368
-0.0204445
0.0030064
0.0234716
0.040862
0.055562
0.0679766
0.0785167
0.087561
0.0954166
0.102322
0.108458
0.113962
0.118938
0.123463
0.127621
0.131401
0.13501
-0.143162
-0.11739
-0.11864
-0.119689
-0.125833
-0.132672
-0.13851
-0.142025
-0.141657
-0.136325
-0.124742
-0.106483
-0.0828714
-0.0569055
-0.0310107
-0.00651719
0.0151757
0.0337296
0.0494351
0.0627053
0.0739357
0.0834995
0.0917294
0.098897
0.105212
0.110836
0.115887
0.120479
0.124634
0.128539
-0.150704
-0.126283
-0.126934
-0.127498
-0.133577
-0.140708
-0.1475
-0.152746
-0.155029
-0.153215
-0.146245
-0.133129
-0.113926
-0.0901385
-0.0643759
-0.0386112
-0.0137925
0.00818303
0.0270876
0.043242
0.0569471
0.0685271
0.0783492
0.086753
0.0940159
0.100362
0.105963
0.110967
0.115452
0.11957
-0.15016
-0.12733
-0.128321
-0.128863
-0.134771
-0.141959
-0.149302
-0.155499
-0.15953
-0.160252
-0.156741
-0.147985
-0.133439
-0.113624
-0.090053
-0.0650987
-0.0402186
-0.0168319
0.00411776
0.0224393
0.0382325
0.0516337
0.0629636
0.0725734
0.0807707
0.0878189
0.0939342
0.0992976
0.104048
0.108296
-0.142133
-0.121023
-0.122131
-0.123125
-0.12911
-0.136254
-0.143788
-0.150416
-0.155309
-0.157548
-0.156241
-0.150503
-0.139652
-0.123733
-0.103614
-0.0807237
-0.0573613
-0.0344239
-0.0133733
0.00529848
0.0217502
0.0359316
0.0479941
0.0582257
0.0669101
0.0743063
0.0806432
0.0861162
0.0909083
0.095074
-0.127201
-0.107996
-0.109099
-0.110623
-0.116539
-0.12361
-0.131025
-0.137632
-0.142659
-0.145482
-0.145233
-0.141164
-0.132703
-0.119783
-0.103015
-0.0833906
-0.0624847
-0.0417269
-0.0222889
-0.00457171
0.0110673
0.0246039
0.0361512
0.045928
0.0541719
0.0611159
0.0669821
0.0719345
0.0762131
0.079812
-0.106645
-0.0889143
-0.0901739