/*--------------------------------*- C++ -*----------------------------------*\
  =========                 |
  \\      /  F ield         | OpenFOAM: The Open Source CFD Toolbox
   \\    /   O peration     | Website:  https://openfoam.org
    \\  /    A nd           | Version:  11
     \\/     M anipulation  |
\*---------------------------------------------------------------------------*/
FoamFile
{
    format      ascii;
    class       volScalarField;
    location    "9";
    object      p;
}
// * * * * * * * * * * * * * * * * * * * * * * * * * * * * * * * * * * * * * //

dimensions      [0 2 -2 0 0 0 0];

internalField   nonuniform List<scalar> 
12600
(
0.994084
0.993946
0.993872
0.993835
0.993793
0.993735
0.993665
0.993582
0.993483
0.993364
0.993222
0.993049
0.99284
0.992585
0.992277
0.9919
0.99144
0.990876
0.990185
0.989336
0.988289
0.987005
0.985431
0.983489
0.981089
0.978117
0.974431
0.969843
0.964147
0.95698
0.99401
0.993938
0.993875
0.993836
0.993793
0.993737
0.993667
0.993585
0.993487
0.99337
0.99323
0.993059
0.992853
0.992602
0.992296
0.991924
0.991469
0.990913
0.990232
0.989396
0.98836
0.987091
0.985537
0.98362
0.981249
0.978313
0.974667
0.970129
0.964469
0.957402
0.993981
0.993944
0.993888
0.993843
0.993799
0.993744
0.993677
0.993597
0.993501
0.993387
0.993248
0.99308
0.992878
0.992632
0.992333
0.991969
0.991525
0.990981
0.990315
0.989496
0.988488
0.98725
0.985731
0.983858
0.981541
0.978671
0.975101
0.970658
0.965081
0.958153
0.993962
0.993937
0.993891
0.993846
0.993802
0.99375
0.993686
0.993608
0.993516
0.993405
0.993271
0.993109
0.992913
0.992676
0.992387
0.992035
0.991605
0.99108
0.990436
0.989646
0.988675
0.987482
0.986016
0.984208
0.98197
0.979195
0.97574
0.971436
0.966008
0.959265
0.993951
0.993933
0.993897
0.993855
0.993813
0.993763
0.993701
0.993627
0.993538
0.993432
0.993303
0.993148
0.992961
0.992734
0.992458
0.992122
0.991712
0.99121
0.990597
0.989844
0.988919
0.987783
0.986385
0.984661
0.982527
0.979879
0.976578
0.972458
0.967239
0.960749
0.993946
0.993933
0.993903
0.993865
0.993824
0.993777
0.993718
0.993647
0.993563
0.993463
0.993341
0.993195
0.993018
0.992804
0.992544
0.992227
0.991841
0.991369
0.990792
0.990084
0.989215
0.988148
0.986835
0.985215
0.983209
0.980718
0.977606
0.973716
0.968764
0.962594
0.993946
0.993935
0.99391
0.993876
0.993838
0.993793
0.993739
0.993673
0.993594
0.9935
0.993387
0.99325
0.993086
0.992887
0.992645
0.992351
0.991993
0.991555
0.991021
0.990366
0.989562
0.988576
0.987361
0.985863
0.984007
0.9817
0.978814
0.975199
0.970574
0.96479
0.99395
0.993941
0.99392
0.993889
0.993854
0.993812
0.993762
0.993701
0.993628
0.993542
0.993438
0.993313
0.993162
0.99298
0.992759
0.992491
0.992164
0.991766
0.99128
0.990685
0.989955
0.989059
0.987957
0.986597
0.984912
0.982817
0.98019
0.976893
0.972651
0.967326
0.993956
0.993949
0.993931
0.993904
0.993872
0.993833
0.993788
0.993733
0.993667
0.993588
0.993495
0.993382
0.993247
0.993084
0.992886
0.992646
0.992355
0.992
0.991567
0.991038
0.99039
0.989595
0.988616
0.98741
0.985915
0.984054
0.981719
0.97878
0.974979
0.970184
0.993966
0.993959
0.993944
0.99392
0.993891
0.993857
0.993816
0.993767
0.993708
0.993639
0.993556
0.993457
0.993339
0.993196
0.993024
0.992815
0.992562
0.992254
0.991879
0.991421
0.990861
0.990174
0.989331
0.98829
0.987002
0.985398
0.983382
0.980839
0.977532
0.973337
0.993977
0.993972
0.993958
0.993938
0.993912
0.993882
0.993846
0.993804
0.993753
0.993693
0.993622
0.993538
0.993437
0.993316
0.993171
0.992995
0.992783
0.992525
0.992212
0.99183
0.991363
0.990793
0.990092
0.989229
0.988161
0.986832
0.985159
0.983046
0.980281
0.976752
0.993991
0.993986
0.993974
0.993957
0.993935
0.993909
0.993878
0.993842
0.9938
0.99375
0.993692
0.993623
0.993541
0.993443
0.993326
0.993185
0.993015
0.99281
0.992562
0.992259
0.991891
0.991442
0.990891
0.990214
0.989378
0.988337
0.987028
0.98537
0.983189
0.980385
0.994006
0.994002
0.993992
0.993977
0.993959
0.993937
0.993912
0.993883
0.993849
0.99381
0.993764
0.993711
0.993648
0.993575
0.993487
0.993382
0.993257
0.993106
0.992925
0.992705
0.992438
0.992114
0.991719
0.991234
0.990637
0.989895
0.988963
0.987781
0.986215
0.984183
0.994022
0.994019
0.994011
0.993999
0.993984
0.993967
0.993947
0.993925
0.993899
0.993871
0.993839
0.993802
0.993759
0.99371
0.993652
0.993585
0.993505
0.99341
0.993297
0.993161
0.992999
0.992802
0.992565
0.992276
0.991922
0.991486
0.990938
0.990243
0.989313
0.988084
0.994039
0.994037
0.99403
0.994021
0.994009
0.993996
0.993982
0.993967
0.993951
0.993933
0.993914
0.993894
0.993871
0.993847
0.99382
0.99379
0.993756
0.993718
0.993674
0.993624
0.993565
0.993498
0.99342
0.993328
0.993219
0.993088
0.992926
0.99272
0.992431
0.992019
0.994058
0.994056
0.994051
0.994044
0.994035
0.994027
0.994018
0.99401
0.994002
0.993996
0.99399
0.993986
0.993984
0.993985
0.993989
0.993996
0.994008
0.994026
0.994052
0.994086
0.994133
0.994194
0.994273
0.994376
0.994509
0.99468
0.994899
0.995175
0.995517
0.995914
0.994077
0.994075
0.994072
0.994067
0.994061
0.994057
0.994054
0.994053
0.994054
0.994058
0.994066
0.994078
0.994097
0.994122
0.994156
0.994201
0.994259
0.994333
0.994426
0.994545
0.994694
0.994881
0.995116
0.99541
0.995779
0.996243
0.99683
0.99757
0.998518
0.999693
0.994096
0.994095
0.994093
0.99409
0.994088
0.994087
0.994089
0.994095
0.994105
0.994119
0.99414
0.994169
0.994207
0.994257
0.99432
0.994402
0.994504
0.994633
0.994794
0.994994
0.995244
0.995553
0.995938
0.996417
0.997013
0.997757
0.998693
0.999872
1.00139
1.00329
0.994116
0.994115
0.994114
0.994113
0.994113
0.994117
0.994124
0.994136
0.994154
0.994179
0.994212
0.994257
0.994314
0.994387
0.99448
0.994597
0.994743
0.994924
0.99515
0.995429
0.995775
0.996202
0.996731
0.997385
0.998196
0.999205
1.00047
1.00205
1.00408
1.00663
0.994136
0.994136
0.994135
0.994135
0.994138
0.994145
0.994157
0.994176
0.994201
0.994236
0.994282
0.994341
0.994417
0.994513
0.994634
0.994784
0.994971
0.995204
0.995491
0.995845
0.996283
0.996822
0.997486
0.998305
0.999317
1.00057
1.00213
1.00407
1.00655
1.00967
0.994157
0.994156
0.994156
0.994157
0.994162
0.994172
0.994189
0.994213
0.994247
0.994291
0.994348
0.994422
0.994515
0.994632
0.994779
0.994962
0.995188
0.995468
0.995813
0.996239
0.996762
0.997405
0.998196
0.999168
1.00036
1.00184
1.00366
1.00593
1.00879
1.01237
0.994177
0.994177
0.994176
0.994177
0.994184
0.994198
0.994219
0.994249
0.994289
0.994341
0.99441
0.994497
0.994606
0.994744
0.994915
0.995127
0.99539
0.995714
0.996114
0.996605
0.997208
0.997947
0.998854
0.999966
1.00133
1.003
1.00506
1.0076
1.01077
1.01471
0.994198
0.994197
0.994195
0.994197
0.994205
0.994222
0.994247
0.994281
0.994328
0.994388
0.994466
0.994565
0.99469
0.994846
0.995039
0.995279
0.995575
0.99594
0.996389
0.99694
0.997615
0.998442
0.999454
1.00069
1.0022
1.00405
1.00631
1.00907
1.01249
1.01669
0.994219
0.994217
0.994214
0.994215
0.994224
0.994244
0.994272
0.994311
0.994363
0.994431
0.994518
0.994628
0.994766
0.994938
0.995152
0.995417
0.995743
0.996144
0.996637
0.997241
0.997981
0.998886
0.99999
1.00134
1.00298
1.00497
1.0074
1.01035
1.01395
1.01832
0.994241
0.994237
0.994231
0.99423
0.994242
0.994263
0.994294
0.994337
0.994394
0.994468
0.994563
0.994682
0.994832
0.995019
0.995251
0.995537
0.995889
0.996323
0.996854
0.997506
0.998302
0.999274
1.00046
1.0019
1.00365
1.00577
1.00834
1.01143
1.01517
1.01964
0.994265
0.994257
0.994245
0.994243
0.994257
0.994281
0.994314
0.99436
0.994421
0.9945
0.994602
0.99473
0.99489
0.995089
0.995336
0.99564
0.996015
0.996476
0.99704
0.997731
0.998575
0.999603
1.00086
1.00238
1.00422
1.00644
1.00912
1.01232
1.01616
1.02067
0.994291
0.994277
0.994257
0.994253
0.994268
0.994294
0.994329
0.994377
0.994442
0.994526
0.994633
0.994767
0.994936
0.995145
0.995404
0.995724
0.996117
0.9966
0.997191
0.997914
0.998796
0.999871
1.00118
1.00276
1.00467
1.00698
1.00974
1.01303
1.01693
1.02147
0.994322
0.994297
0.994267
0.994263
0.99428
0.994306
0.994342
0.994392
0.99446
0.994547
0.994658
0.994798
0.994973
0.99519
0.995458
0.995789
0.996196
0.996696
0.997308
0.998055
0.998967
1.00008
1.00142
1.00305
1.00502
1.00739
1.01021
1.01356
1.01752
1.02209
0.994359
0.9943
0.994265
0.994267
0.994285
0.994312
0.994349
0.994401
0.99447
0.99456
0.994674
0.994818
0.994997
0.995219
0.995494
0.995833
0.99625
0.996761
0.997386
0.998151
0.999082
1.00022
1.00159
1.00325
1.00526
1.00766
1.01053
1.01392
1.0179
1.02252
0.994439
0.994311
0.994265
0.994271
0.994291
0.994317
0.994354
0.994407
0.994477
0.994568
0.994684
0.994829
0.99501
0.995236
0.995514
0.995857
0.996279
0.996797
0.99743
0.998204
0.999147
1.00029
1.00168
1.00336
1.00539
1.00782
1.0107
1.0141
1.01808
1.02266
0.950694
0.948147
0.946112
0.944379
0.942548
0.940545
0.938441
0.936285
0.934083
0.931829
0.929516
0.927136
0.924672
0.922104
0.9194
0.916524
0.913429
0.910057
0.906332
0.902157
0.897405
0.891909
0.885443
0.877698
0.868254
0.856451
0.841811
0.820384
0.803174
0.746317
0.951948
0.949785
0.947896
0.946195
0.944426
0.942548
0.940634
0.938714
0.936777
0.934804
0.932785
0.930711
0.928567
0.92633
0.923978
0.921477
0.918789
0.915865
0.91264
0.909031
0.904931
0.900195
0.894631
0.887977
0.879868
0.869765
0.857123
0.839535
0.822616
0.776612
0.952471
0.950747
0.949213
0.947692
0.946109
0.944481
0.942844
0.941199
0.939533
0.937834
0.936097
0.934317
0.932481
0.930573
0.928572
0.926454
0.924185
0.921725
0.91902
0.916
0.912576
0.908629
0.903994
0.898458
0.891703
0.883311
0.872732
0.8584
0.843082
0.806392
0.953657
0.952335
0.951139
0.94981
0.948402
0.946991
0.945591
0.944187
0.942769
0.941334
0.939879
0.938396
0.936876
0.935306
0.933668
0.931943
0.930104
0.928119
0.925945
0.923526
0.920788
0.917634
0.913931
0.909504
0.904086
0.897358
0.888778
0.877356
0.864195
0.835556
0.955288
0.954258
0.953326
0.952187
0.950971
0.949788
0.948636
0.947487
0.946331
0.945171
0.944004
0.942824
0.941626
0.940398
0.939129
0.937805
0.936407
0.934907
0.933275
0.931467
0.929424
0.92707
0.924299
0.920971
0.916868
0.911747
0.905099
0.896361
0.885558
0.863937
0.957333
0.956569
0.955895
0.954968
0.953961
0.95301
0.952103
0.951205
0.950308
0.949418
0.948538
0.947663
0.946789
0.945908
0.945015
0.944099
0.943146
0.942139
0.941053
0.939858
0.93851
0.93695
0.935096
0.93284
0.930008
0.926417
0.921607
0.915322
0.90688
0.891324
0.959787
0.959274
0.958847
0.958129
0.957331
0.956607
0.955942
0.955294
0.954658
0.954043
0.953454
0.952887
0.95234
0.951812
0.951297
0.950791
0.950287
0.949773
0.949233
0.948647
0.947985
0.947203
0.946242
0.945019
0.943397
0.941243
0.938156
0.934082
0.927908
0.917499
0.962644
0.962371
0.962179
0.961671
0.961083
0.960586
0.960163
0.959766
0.959391
0.959051
0.958751
0.958493
0.958274
0.958096
0.95796
0.957864
0.957805
0.957779
0.957778
0.957789
0.957794
0.957764
0.957656
0.957412
0.956926
0.9561
0.954597
0.952476
0.948419
0.942266
0.965895
0.965847
0.965879
0.965579
0.965201
0.964929
0.964744
0.964596
0.96448
0.964412
0.9644
0.964447
0.964554
0.964725
0.964962
0.96527
0.965649
0.9661
0.966621
0.967209
0.967853
0.968538
0.969234
0.9699
0.970459
0.970836
0.970758
0.970332
0.968196
0.965464
0.969516
0.969681
0.969924
0.969827
0.969658
0.969608
0.969656
0.969752
0.969891
0.970091
0.970363
0.97071
0.971136
0.971647
0.972248
0.972947
0.973749
0.974659
0.975681
0.976815
0.978061
0.979411
0.980849
0.982346
0.983846
0.985291
0.986463
0.987473
0.987031
0.986947
0.973474
0.973837
0.974275
0.974376
0.974414
0.974579
0.974854
0.975186
0.975573
0.976034
0.976581
0.977219
0.977952
0.97879
0.979742
0.980815
0.982018
0.983361
0.984851
0.986494
0.988295
0.990253
0.99236
0.994597
0.996924
0.999293
1.00153
1.00372
1.00472
1.0066
0.977721
0.978264
0.97888
0.979172
0.979411
0.979784
0.980276
0.980836
0.981461
0.982171
0.98298
0.983894
0.98492
0.986067
0.987347
0.98877
0.990348
0.992091
0.99401
0.996116
0.998417
1.00092
1.00361
1.00649
1.00952
1.01266
1.01578
1.01891
1.02109
1.02435
0.982194
0.982899
0.983674
0.984147
0.984578
0.98515
0.985846
0.986619
0.987468
0.988412
0.989467
0.990639
0.991936
0.99337
0.994953
0.996696
0.998613
1.00072
1.00302
1.00554
1.00827
1.01124
1.01443
1.01785
1.02146
1.02523
1.02903
1.03287
1.03597
1.04008
0.986814
0.987661
0.988574
0.989215
0.989829
0.990585
0.991471
0.992441
0.993496
0.994656
0.995935
0.997342
0.998886
1.00058
1.00243
1.00446
1.00668
1.0091
1.01173
1.0146
1.01771
1.02106
1.02467
1.02851
1.03257
1.03681
1.04111
1.04545
1.04919
1.05373
0.991492
0.992459
0.993489
0.994283
0.995066
0.99599
0.997046
0.998194
0.999435
1.00079
1.00227
1.00388
1.00564
1.00756
1.00965
1.01192
1.0144
1.01708
1.02
1.02315
1.02656
1.03022
1.03414
1.03831
1.04269
1.04725
1.05188
1.0565
1.0606
1.06519
0.996127
0.997193
0.998317
0.999248
1.00018
1.00126
1.00246
1.00377
1.00517
1.00669
1.00834
1.01013
1.01208
1.01419
1.01647
1.01895
1.02163
1.02453
1.02767
1.03104
1.03468
1.03857
1.04271
1.0471
1.05169
1.05644
1.06123
1.06594
1.07015
1.07446
1.00062
1.00176
1.00296
1.00401
1.00507
1.00628
1.00761
1.00904
1.01058
1.01224
1.01403
1.01597
1.01806
1.02033
1.02277
1.0254
1.02825
1.03131
1.0346
1.03814
1.04193
1.04597
1.05026
1.05477
1.05946
1.06427
1.0691
1.07377
1.07795
1.08189
1.00486
1.00606
1.00731
1.00846
1.00964
1.01095
1.01238
1.01392
1.01556
1.01733
1.01923
1.02129
1.02349
1.02587
1.02842
1.03117
1.03413
1.0373
1.0407
1.04433
1.04821
1.05233
1.05667
1.06121
1.06591
1.07069
1.07543
1.07995
1.08397
1.08737
1.00877
1.01002
1.0113
1.01252
1.01379
1.01518
1.01669
1.0183
1.02003
1.02187
1.02386
1.02598
1.02827
1.03072
1.03334
1.03616
1.03918
1.04241
1.04586
1.04953
1.05344
1.05756
1.06188
1.06638
1.071
1.07564
1.08018
1.08441
1.08807
1.09071
1.01228
1.01355
1.01485
1.01613
1.01746
1.01891
1.02047
1.02213
1.02391
1.0258
1.02783
1.03
1.03233
1.03481
1.03747
1.04031
1.04335
1.04659
1.05003
1.05369
1.05756
1.06162
1.06586
1.07023
1.07467
1.07908
1.08331
1.08711
1.09024
1.09208
1.01534
1.01661
1.01792
1.01923
1.02061
1.02209
1.02367
1.02536
1.02716
1.02908
1.03112
1.0333
1.03563
1.03812
1.04077
1.0436
1.04661
1.04981
1.0532
1.05679
1.06057
1.06451
1.06859
1.07277
1.07696
1.08104
1.08486
1.08811
1.09062
1.0914
1.01792
1.01919
1.0205
1.02182
1.02321
1.02471
1.0263
1.02799
1.02978
1.03169
1.03372
1.03589
1.03819
1.04064
1.04325
1.04602
1.04897
1.05209
1.05539
1.05885
1.06248
1.06625
1.07012
1.07403
1.07789
1.08156
1.08488
1.08748
1.08933
1.08849
1.02003
1.0213
1.02258
1.0239
1.0253
1.02678
1.02836
1.03003
1.0318
1.03367
1.03566
1.03778
1.04003
1.04241
1.04494
1.04763
1.05047
1.05347
1.05663
1.05994
1.06337
1.06692
1.07051
1.0741
1.07756
1.08075
1.0835
1.08532
1.08649
1.0838
1.02171
1.02295
1.02422
1.02552
1.0269
1.02836
1.0299
1.03152
1.03324
1.03507
1.03699
1.03904
1.0412
1.04349
1.04592
1.04849
1.05119
1.05404
1.05702
1.06012
1.06332
1.06659
1.06986
1.07306
1.07607
1.0787
1.08079
1.08172
1.08213
1.07755
1.02301
1.02422
1.02545
1.02673
1.02807
1.02949
1.03098
1.03255
1.03421
1.03596
1.0378
1.03975
1.04181
1.04399
1.04628
1.0487
1.05124
1.05389
1.05666
1.05952
1.06244
1.06538
1.06828
1.07104
1.07352
1.07551
1.07686
1.07674
1.07624
1.06927
1.02398
1.02517
1.02636
1.02759
1.02889
1.03025
1.03168
1.03317
1.03475
1.03641
1.03815
1.03999
1.04192
1.04396
1.0461
1.04834
1.05068
1.05312
1.05564
1.05822
1.06082
1.0634
1.06587
1.06813
1.07002
1.07128
1.07178
1.07043
1.06886
1.05905
1.02473
1.02588
1.02702
1.0282
1.02944
1.03075
1.03211
1.03353
1.03502
1.03658
1.03821
1.03993
1.04172
1.0436
1.04557
1.04762
1.04974
1.05193
1.05417
1.05643
1.05867
1.06083
1.06282
1.0645
1.06572
1.06614
1.06568
1.06291
1.06013
1.04708
1.02538
1.02645
1.02747
1.02855
1.02972
1.03095
1.03223
1.03357
1.03495
1.0364
1.03791
1.03948
1.04112
1.04283
1.04461
1.04644
1.04832
1.05025
1.05218
1.0541
1.05595
1.05765
1.05912
1.06018
1.06065
1.06015
1.05862
1.05425
1.05022
1.0334
1.02623
1.02713
1.02795
1.02897
1.03009
1.03124
1.03244
1.03371
1.03503
1.03639
1.0378
1.03925
1.04071
1.04224
1.04384
1.04544
1.04705
1.04866
1.05025
1.05177
1.05317
1.05434
1.05519
1.05553
1.05514
1.05357
1.05085
1.0445
1.03936
1.01797
1.02708
1.0274
1.02784
1.02875
1.02983
1.0309
1.03197
1.03309
1.03426
1.03548
1.03675
1.03806
1.03939
1.04074
1.0421
1.04347
1.04483
1.04615
1.04741
1.04854
1.04949
1.05015
1.05039
1.04998
1.04873
1.04601
1.04222
1.03317
1.02787
1.0004
0.981539
0.960706
0.936607
0.91049
0.882453
0.852098
0.819354
0.784951
0.750092
0.716022
0.684295
0.655155
0.630456
0.614908
0.610459
0.614859
0.619698
0.624121
0.627485
0.62897
0.630097
0.631107
0.632406
0.63404
0.635651
0.635992
0.633099
0.626827
0.620276
0.616451
1.01649
0.998811
0.977434
0.954298
0.929231
0.901698
0.870863
0.837164
0.800996
0.763024
0.725097
0.688115
0.653495
0.62657
0.614673
0.61594
0.62053
0.625401
0.628715
0.629764
0.63091
0.632138
0.633576
0.635819
0.638191
0.638805
0.635119
0.626112
0.615553
0.60854
1.02102
1.00555
0.986642
0.964861
0.940501
0.913014
0.882283
0.849015
0.81336
0.77595
0.737892
0.700538
0.66526
0.636445
0.622113
0.620968
0.623914
0.627038
0.629101
0.63025
0.631097
0.63229
0.634751
0.638376
0.641265
0.640385
0.632214
0.616449
0.598316
0.58768
1.0341
1.02065
1.00365
0.984438
0.962343
0.936218
0.906144
0.872467
0.835486
0.796083
0.755776
0.716306
0.679175
0.648745
0.632065
0.628716
0.630456
0.632416
0.632768
0.63219
0.631789
0.633301
0.63685
0.64059
0.641555
0.636322
0.621665
0.597748
0.569162
0.562254
1.0391
1.028
1.0137
0.996947
0.977219
0.953458
0.925286
0.892821
0.856313
0.816433
0.774657
0.733051
0.693716
0.660995
0.641628
0.636299
0.63745
0.639492
0.640137
0.639788
0.63931
0.639865
0.641638
0.642429
0.639401
0.629597
0.610472
0.585428
0.569193
0.586098
1.04338
1.03434
1.02207
1.00721
0.989193
0.967111
0.940395
0.908973
0.873029
0.833091
0.790452
0.747285
0.706182
0.671491
0.649905
0.642958
0.643701
0.646154
0.647884
0.649008
0.649938
0.65133
0.652779
0.65204
0.646996
0.636136
0.621706
0.612711
0.618875
0.644922
1.0458
1.03849
1.02829
1.01543
0.99933
0.979089
0.953987
0.923708
0.88831
0.848267
0.804806
0.760189
0.717389
0.680907
0.657427
0.649128
0.649613
0.6526
0.655387
0.657707
0.659747
0.661793
0.663021
0.661888
0.65721
0.649787
0.644537
0.648059
0.665277
0.692677
1.04717
1.04142
1.03301
1.02196
1.00768
0.989294
0.965961
0.937115
0.902584
0.862704
0.81862
0.772655
0.728125
0.689823
0.664521
0.654966
0.655263
0.658852
0.662701
0.666128
0.669025
0.671413
0.672424
0.671127
0.667766
0.66465
0.667278
0.678449
0.701812
0.73
1.04772
1.04332
1.0365
1.02708
1.0145
0.997878
0.976288
0.94897
0.915525
0.87609
0.831666
0.784561
0.738378
0.698268
0.671202
0.660484
0.660671
0.664931
0.66984
0.674243
0.677751
0.680282
0.681111
0.6802
0.679018
0.680676
0.690275
0.706518
0.735552
0.758085
1.04772
1.04447
1.03904
1.03111
1.0201
1.00514
0.985249
0.95948
0.927221
0.8884
0.843844
0.795795
0.748079
0.706222
0.677483
0.665729
0.665917
0.670943
0.676933
0.682218
0.686169
0.688756
0.68954
0.6895
0.691049
0.697858
0.713678
0.733729
0.762269
0.772894
1.04731
1.04507
1.04086
1.03425
1.02467
1.0113
0.993057
0.968853
0.937863
0.89979
0.855262
0.806429
0.757283
0.713739
0.683412
0.670744
0.671051
0.676944
0.68403
0.690087
0.694316
0.696874
0.697741
0.699054
0.703893
0.715733
0.734708
0.759676
0.7837
0.779117
1.04664
1.04525
1.04211
1.03666
1.0284
1.01651
0.999853
0.977211
0.947557
0.910354
0.866005
0.816531
0.76605
0.720866
0.689014
0.675548
0.676088
0.68293
0.691122
0.697827
0.702179
0.704616
0.705705
0.709019
0.717314
0.73259
0.755499
0.780077
0.796049
0.780706
1.04577
1.04512
1.0429
1.03849
1.03141
1.0209
1.00576
0.984656
0.956378
0.920144
0.87611
0.826129
0.7744
0.727619
0.694296
0.680143
0.681049
0.688909
0.698203
0.705426
0.709754
0.711983
0.713429
0.718861
0.729902
0.749382
0.773546
0.791514
0.795793
0.76896
1.04477
1.04475
1.04334
1.03984
1.03385
1.02461
1.01089
0.991291
0.964407
0.929219
0.885615
0.835247
0.782354
0.734013
0.699265
0.684529
0.685925
0.694908
0.705273
0.712861
0.71703
0.719151
0.721252
0.727819
0.74283
0.764815
0.783936
0.792841
0.783951
0.743924
1.04368
1.04421
1.04349
1.04082
1.03581
1.02773
1.01536
0.997206
0.971721
0.937638
0.894563
0.843917
0.789936
0.740068
0.70393
0.688717
0.690734
0.700917
0.712305
0.720102
0.724011
0.726194
0.729281
0.737033
0.755163
0.774139
0.786335
0.785997
0.76402
0.716096
1.04253
1.04353
1.04343
1.04149
1.03737
1.03035
1.01924
1.00248
0.978387
0.945455
0.902996
0.852169
0.797171
0.745802
0.708305
0.692719
0.695485
0.706925
0.719285
0.727143
0.730747
0.732398
0.735735
0.746761
0.763419
0.777589
0.783705
0.773335
0.740525
0.69065
1.04135
1.04275
1.04319
1.0419
1.03858
1.03254
1.02261
1.00719
0.984465
0.952716
0.910948
0.860031
0.804079
0.751235
0.7124
0.696536
0.700197
0.712959
0.726222
0.733997
0.737192
0.737073
0.742427
0.754042
0.767606
0.77738
0.777428
0.75716
0.717461
0.669495
1.04016
1.04189
1.0428
1.04211
1.03951
1.03437
1.02553
1.01139
0.990009
0.959464
0.918453
0.867527
0.810681
0.756374
0.716254
0.700177
0.704833
0.719006
0.733106
0.740648
0.742799
0.741922
0.748802
0.758295
0.768847
0.775525
0.767535
0.738911
0.696544
0.652834
1.03897
1.04098
1.04229
1.04213
1.04021
1.03589
1.02807
1.01513
0.995069
0.965741
0.92554
0.87468
0.816992
0.76124
0.719842
0.703625
0.709417
0.725082
0.739917
0.746952
0.746706
0.74783
0.752773
0.760125
0.768827
0.771893
0.754716
0.720253
0.677867
0.639566
1.03778
1.04002
1.04169
1.04201
1.0407
1.03716
1.03027
1.01848
0.99969
0.971584
0.93224
0.881511
0.82303
0.765836
0.72322
0.706983
0.713909
0.731185
0.746593
0.752526
0.750758
0.752211
0.754528
0.760675
0.768857
0.765375
0.740396
0.702817
0.662171
0.628251
1.0366
1.03904
1.04101
1.04176
1.04103
1.03819
1.03218
1.02147
1.00391
0.977025
0.938578
0.88804
0.82881
0.77018
0.726329
0.710132
0.718417
0.737328
0.753091
0.756981
0.7555
0.754496
0.75524
0.76171
0.767325
0.75637
0.725626
0.686793
0.649154
0.618532
1.03544
1.03803
1.04026
1.04141
1.04119
1.03901
1.03383
1.02414
1.00777
0.982097
0.944579
0.894288
0.834347
0.774274
0.729224
0.713106
0.72291
0.743483
0.75943
0.761214
0.758891
0.755164
0.756079
0.762997
0.763865
0.745893
0.711193
0.672532
0.637939
0.610013
1.03431
1.037
1.03946
1.04096
1.04122
1.03966
1.03524
1.02652
1.01131
0.986829
0.950265
0.900269
0.839653
0.778132
0.731864
0.715907
0.727429
0.749621
0.765259
0.765526
0.760578
0.755303
0.757654
0.763352
0.758596
0.734579
0.697321
0.660102
0.628076
0.602346
1.03322
1.03597
1.03861
1.04043
1.04114
1.04014
1.03645
1.02865
1.01454
0.991249
0.955663
0.906008
0.844747
0.781761
0.734308
0.71857
0.731936
0.75565
0.769652
0.76914
0.760909
0.7559
0.759505
0.762504
0.751809
0.722912
0.684533
0.648998
0.619191
0.595265
1.03217
1.03494
1.03772
1.03984
1.04095
1.04048
1.03749
1.03055
1.0175
0.995372
0.960776
0.911501
0.84962
0.785159
0.736481
0.721062
0.736448
0.761272
0.773803
0.771096
0.760557
0.757261
0.760933
0.760369
0.743869
0.711259
0.672872
0.638918
0.611007
0.588578
1.03117
1.03392
1.03681
1.03918
1.04067
1.04068
1.03835
1.03225
1.02023
0.999253
0.965672
0.916818
0.854343
0.788379
0.738591
0.723521
0.74087
0.766177
0.777917
0.771327
0.760178
0.758555
0.761711
0.756946
0.735207
0.699896
0.66221
0.629609
0.603304
0.582228
1.03025
1.03294
1.03587
1.03845
1.04029
1.04081
1.03908
1.03375
1.02268
1.0028
0.97022
0.921811
0.858756
0.791244
0.739947
0.725457
0.745111
0.770738
0.780191
0.770559
0.760071
0.759913
0.761808
0.75245
0.726089
0.689087
0.652245
0.620904
0.595983
0.576275
1.02944
1.03201
1.03496
1.03771
1.03981
1.04073
1.03966
1.03513
1.0251
1.00639
0.974866
0.926997
0.863542
0.794779
0.742671
0.727889
0.749364
0.774537
0.78078
0.769347
0.759698
0.760736
0.760762
0.746781
0.717542
0.679335
0.64261
0.612598
0.58919
0.570821
1.02875
1.03108
1.03407
1.0371
1.03952
1.04074
1.04008
1.03606
1.02672
1.00888
0.978091
0.930356
0.866122
0.79561
0.742497
0.729153
0.752374
0.776762
0.780538
0.768524
0.759738
0.761707
0.760199
0.74417
0.711267
0.671225
0.635294
0.605862
0.582745
0.565914
1.02821
1.02999
1.03269
1.03579
1.03856
1.04042
1.04056
1.03767
1.0297
1.01348
0.984399
0.937896
0.873189
0.800865
0.745367
0.731395
0.754891
0.778051
0.779696
0.767254
0.759605
0.761882
0.757372
0.733609
0.695263
0.655656
0.62193
0.594634
0.574361
0.561442
0.491691
0.475766
0.448454
0.420547
0.408095
0.450307
0.557235
0.665072
0.738994
0.787377
0.821065
0.844612
0.860668
0.87149
0.878834
0.884003
0.888023
0.891596
0.895284
0.899448
0.904277
0.909913
0.91637
0.923783
0.932061
0.940863
0.950839
0.961467
0.975006
0.983996
0.489098
0.465591
0.425358
0.387678
0.371818
0.412742
0.519759
0.641757
0.732301
0.790329
0.828011
0.853169
0.86995
0.880978
0.88807
0.892568
0.895545
0.897833
0.900084
0.902757
0.906154
0.910469
0.915661
0.921782
0.928838
0.93663
0.945425
0.954302
0.964888
0.9733
0.495127
0.465602
0.415101
0.368052
0.343985
0.379418
0.480098
0.607817
0.714962
0.787387
0.833234
0.862293
0.880763
0.892325
0.899265
0.903106
0.904985
0.905819
0.906336
0.907102
0.908559
0.910986
0.914476
0.919071
0.924804
0.931535
0.939306
0.947697
0.957386
0.967573
0.512543
0.479136
0.421467
0.36596
0.335489
0.361392
0.457124
0.583598
0.701809
0.788486
0.844659
0.878849
0.898788
0.909825
0.915301
0.917293
0.917203
0.916037
0.914532
0.913235
0.912606
0.913022
0.914706
0.917759
0.922213
0.928009
0.935135
0.943328
0.952638
0.962552
0.545146
0.506917
0.446968
0.385998
0.348952
0.365121
0.446668
0.567034
0.687622
0.784753
0.853071
0.895977
0.920366
0.932313
0.936391
0.93583
0.932748
0.928534
0.924186
0.920291
0.917231
0.915358
0.914885
0.915906
0.918623
0.922923
0.92885
0.935899
0.944392
0.954085
0.570695
0.53657
0.47984
0.420269
0.379957
0.385244
0.4475
0.55112
0.665219
0.76642
0.845316
0.900164
0.934391
0.952519
0.959039
0.957914
0.95233
0.944599
0.936344
0.928591
0.921996
0.917002
0.913807
0.912505
0.912794
0.915668
0.920466
0.925773
0.93285
0.941767
0.578421
0.552919
0.503645
0.44937
0.410514
0.405596
0.447268
0.528862
0.628766
0.727683
0.812799
0.878316
0.924442
0.953572
0.968593
0.972572
0.968828
0.960407
0.949687
0.938303
0.92748
0.918178
0.911029
0.906409
0.904265
0.904584
0.906634
0.910182
0.917063
0.925074
0.557133
0.543927
0.504075
0.457289
0.421325
0.411978
0.435555
0.492362
0.573158
0.663335
0.749991
0.824695
0.883127
0.924673
0.951191
0.965311
0.969184
0.965316
0.956651
0.945242
0.932665
0.920218
0.908954
0.899742
0.893173
0.889547
0.888893
0.891245
0.895763
0.901114
0.502071
0.508575
0.478044
0.44031
0.406825
0.391482
0.402204
0.44097
0.500755
0.576722
0.658862
0.738307
0.807941
0.863423
0.904053
0.930365
0.945134
0.949473
0.946189
0.938087
0.927258
0.915252
0.903178
0.891938
0.882281
0.874821
0.870015
0.868266
0.86936
0.873999
0.423317
0.453997
0.430308
0.400507
0.369468
0.350845
0.350465
0.371315
0.414015
0.474979
0.548256
0.626962
0.702806
0.770567
0.825486
0.865916
0.892692
0.907055
0.911259
0.908118
0.900202
0.889702
0.878404
0.867538
0.857865
0.849851
0.843768
0.839915
0.838206
0.839731
0.341225
0.390164
0.372051
0.349002
0.319606
0.297281
0.287849
0.295215
0.32132
0.3656
0.425513
0.49646
0.57323
0.648561
0.715685
0.770013
0.810168
0.836595
0.85068
0.855009
0.852271
0.844905
0.835036
0.824447
0.814491
0.806063
0.799585
0.795269
0.792747
0.792551
0.268844
0.33221
0.314442
0.298117
0.269663
0.244199
0.226713
0.221665
0.231675
0.258226
0.301416
0.359418
0.429163
0.505327
0.580209
0.646634
0.700296
0.739856
0.765677
0.779647
0.784309
0.782262
0.77597
0.767618
0.758877
0.750808
0.743952
0.738799
0.735318
0.734202
0.221592
0.288344
0.267631
0.257362
0.228048
0.199542
0.174718
0.158446
0.153805
0.163233
0.188334
0.229286
0.285584
0.354889
0.430823
0.505042
0.570367
0.622851
0.661212
0.686254
0.700044
0.70513
0.704211
0.699859
0.694107
0.688214
0.682753
0.678022
0.673959
0.671415
0.204576
0.265572
0.244882
0.234308
0.201752
0.169752
0.138163
0.112177
0.0950693
0.0896646
0.0980365
0.121258
0.160348
0.216057
0.285252
0.360592
0.433194
0.496275
0.546276
0.582425
0.605942
0.619049
0.624466
0.625004
0.62298
0.619802
0.616069
0.612073
0.607831
0.603939
0.219406
0.272427
0.247621
0.23107
0.195777
0.159071
0.121336
0.0869576
0.0594801
0.0420128
0.036613
0.0444579
0.0666878
0.105705
0.162222
0.231494
0.304783
0.374076
0.433043
0.478835
0.511295
0.532009
0.543466
0.548469
0.549532
0.548234
0.545247
0.540851
0.535225
0.528907
0.264388
0.305558
0.273039
0.250169
0.211967
0.170443
0.127133
0.0853827
0.0489549
0.0213658
0.00478852
0.000114488
0.00807065
0.0313321
0.0725365
0.130762
0.199738
0.270492
0.33464
0.387535
0.42714
0.453916
0.469997
0.477971
0.480499
0.479413
0.475545
0.46917
0.46073
0.450562
0.333482
0.358261
0.319056
0.290678
0.250058
0.204333
0.156411
0.108766
0.0650149
0.0290166
0.00334281
-0.0112144
-0.0144763
-0.00445293
0.0225405
0.0685682
0.13009
0.198532
0.263991
0.319841
0.364643
0.395498
0.414134
0.423069
0.425183
0.422587
0.416244
0.406584
0.394276
0.37921
0.416679
0.425065
0.381455
0.347739
0.306802
0.258545
0.207395
0.155707
0.106538
0.0637931
0.0306844
0.0084073
-0.00319204
-0.0031708
0.0123295
0.0474151
0.101163
0.165999
0.231595
0.288405
0.334273
0.366254
0.385057
0.392925
0.392932
0.387408
0.377481
0.363901
0.347068
0.326677
0.50402
0.497764
0.452471
0.415441
0.376101
0.328246
0.27615
0.222688
0.170377
0.122935
0.0842088
0.0560038
0.0382292
0.0310743
0.0383287
0.0651997
0.112463
0.173409
0.237541
0.295134
0.339313
0.370211
0.387344
0.392647
0.389365
0.380208
0.366424
0.348825
0.327162
0.302238
0.582298
0.566913
0.524251
0.487731
0.451793
0.407423
0.357317
0.304725
0.25189
0.202217
0.159886
0.127265
0.104719
0.092465
0.094583
0.116823
0.160208
0.218004
0.279242
0.335014
0.377393
0.4056
0.419465
0.421174
0.414186
0.401301
0.383832
0.362539
0.336665
0.309075
0.636804
0.622959
0.589419
0.558539
0.528209
0.490087
0.444833
0.395562
0.344573
0.295033
0.250886
0.215097
0.188801
0.173131
0.173068
0.194441
0.237007
0.292948
0.351163
0.402195
0.44022
0.463447
0.472548
0.470082
0.45951
0.443431
0.42308
0.398976
0.370607
0.342086
0.661087
0.656785
0.640612
0.6219
0.600948
0.571577
0.533291
0.488853
0.441013
0.392826
0.34806
0.310313
0.281411
0.264202
0.265204
0.28876
0.331271
0.383643
0.435687
0.479383
0.510187
0.526914
0.530767
0.524556
0.51139
0.493302
0.471342
0.44594
0.417334
0.389044
0.664988
0.668155
0.672251
0.673217
0.667046
0.649308
0.619532
0.580501
0.535806
0.489161
0.444497
0.405124
0.374647
0.358654
0.362139
0.386607
0.425393
0.469634
0.511114
0.544357
0.56633
0.576507
0.576378