/*--------------------------------*- C++ -*----------------------------------*\
  =========                 |
  \\      /  F ield         | OpenFOAM: The Open Source CFD Toolbox
   \\    /   O peration     | Website:  https://openfoam.org
    \\  /    A nd           | Version:  11
     \\/     M anipulation  |
\*---------------------------------------------------------------------------*/
FoamFile
{
    format      ascii;
    class       volScalarField;
    location    "9";
    object      p;
}
// * * * * * * * * * * * * * * * * * * * * * * * * * * * * * * * * * * * * * //

dimensions      [0 2 -2 0 0 0 0];

internalField   nonuniform List<scalar> 
12600
(
0.0961469
0.0960103
0.0959458
0.0959262
0.0959083
0.095884
0.0958565
0.0958276
0.0957965
0.0957622
0.0957235
0.0956794
0.0956286
0.0955696
0.0955005
0.0954193
0.0953228
0.095208
0.0950708
0.0949072
0.0947093
0.09447
0.0941805
0.0938296
0.093403
0.0928834
0.0922497
0.0914722
0.0905184
0.0892797
0.0960715
0.0960015
0.0959483
0.0959254
0.0959066
0.095883
0.0958561
0.0958275
0.0957967
0.0957626
0.0957243
0.0956806
0.0956302
0.0955718
0.0955033
0.095423
0.0953276
0.095214
0.0950779
0.0949164
0.0947209
0.0944846
0.0941984
0.0938512
0.0934296
0.092916
0.0922931
0.0915271
0.090636
0.0896222
0.0960362
0.0960028
0.0959567
0.0959276
0.0959073
0.0958846
0.0958584
0.0958301
0.0957997
0.095766
0.0957282
0.0956851
0.0956356
0.095578
0.0955108
0.0954324
0.0953392
0.0952282
0.0950962
0.0949361
0.0947445
0.0945133
0.0942333
0.0938936
0.0934812
0.0929796
0.0923709
0.0916311
0.0907604
0.089723
0.0960116
0.0959908
0.0959543
0.0959256
0.095905
0.0958835
0.0958584
0.0958308
0.0958012
0.0957684
0.0957316
0.0956896
0.0956413
0.0955853
0.0955194
0.0954436
0.0953534
0.0952459
0.0951175
0.0949628
0.0947773
0.0945534
0.0942825
0.0939539
0.093555
0.09307
0.0924813
0.0917674
0.0909095
0.0898749
0.095994
0.0959803
0.095953
0.0959269
0.0959062
0.0958855
0.0958614
0.0958346
0.0958058
0.095774
0.0957383
0.0956976
0.095651
0.0955971
0.0955348
0.0954603
0.0953734
0.0952702
0.0951469
0.0949989
0.0948213
0.094607
0.0943479
0.0940338
0.0936523
0.0931885
0.0926247
0.0919398
0.0911066
0.0900985
0.0959812
0.0959716
0.0959506
0.0959272
0.0959066
0.0958862
0.0958633
0.0958376
0.0958097
0.095779
0.0957446
0.0957054
0.0956607
0.0956094
0.0955497
0.0954792
0.0953965
0.0952986
0.0951818
0.0950419
0.0948739
0.0946715
0.0944267
0.0941301
0.0937699
0.0933319
0.0927983
0.0921485
0.0913515
0.0903823
0.0959719
0.0959647
0.0959479
0.0959274
0.0959077
0.0958881
0.0958664
0.095842
0.0958153
0.0957859
0.0957531
0.095716
0.0956735
0.0956248
0.0955684
0.0955022
0.0954246
0.0953328
0.0952236
0.095093
0.0949363
0.0947477
0.0945199
0.0942439
0.0939086
0.0935007
0.0930028
0.0923948
0.0916443
0.0907273
0.0959651
0.0959594
0.0959458
0.0959278
0.0959093
0.0958904
0.0958698
0.0958467
0.0958213
0.0957933
0.0957622
0.0957272
0.0956873
0.0956417
0.0955891
0.0955277
0.0954558
0.095371
0.0952703
0.0951503
0.0950065
0.0948336
0.094625
0.0943724
0.0940656
0.0936921
0.0932354
0.092676
0.091982
0.0911301
0.0959604
0.0959557
0.0959443
0.0959284
0.0959112
0.0958933
0.0958738
0.095852
0.0958281
0.0958017
0.0957725
0.0957399
0.0957029
0.0956608
0.0956124
0.0955563
0.0954907
0.0954137
0.0953226
0.0952142
0.0950847
0.0949293
0.094742
0.0945155
0.0942404
0.0939054
0.0934951
0.0929914
0.0923634
0.091589
0.0959574
0.0959534
0.0959436
0.0959295
0.0959136
0.0958967
0.0958783
0.0958579
0.0958355
0.0958109
0.0957838
0.0957536
0.0957198
0.0956814
0.0956376
0.0955871
0.0955285
0.0954599
0.0953791
0.0952834
0.0951695
0.095033
0.094869
0.0946708
0.0944305
0.0941377
0.0937789
0.0933373
0.0927845
0.0920997
0.0959558
0.0959523
0.0959437
0.0959311
0.0959164
0.0959006
0.0958833
0.0958643
0.0958434
0.0958207
0.0957958
0.0957684
0.0957378
0.0957035
0.0956646
0.0956201
0.0955689
0.0955094
0.0954397
0.0953576
0.0952602
0.0951441
0.095005
0.0948373
0.0946343
0.0943872
0.0940843
0.0937109
0.0932418
0.0926584
0.0959554
0.0959523
0.0959446
0.0959332
0.0959197
0.0959049
0.0958887
0.0958711
0.0958519
0.0958311
0.0958085
0.0957839
0.0957568
0.0957267
0.095693
0.0956549
0.0956115
0.0955615
0.0955034
0.0954356
0.0953558
0.0952611
0.0951483
0.0950129
0.0948495
0.094651
0.0944078
0.094108
0.0937301
0.0932587
0.095956
0.0959533
0.0959463
0.0959359
0.0959234
0.0959095
0.0958945
0.0958783
0.0958607
0.0958419
0.0958218
0.0958001
0.0957766
0.095751
0.0957226
0.0956911
0.0956558
0.0956157
0.0955698
0.0955168
0.0954552
0.0953829
0.0952974
0.0951957
0.0950736
0.0949261
0.0947459
0.094524
0.094244
0.0938938
0.0959577
0.0959551
0.0959487
0.0959391
0.0959275
0.0959146
0.0959007
0.0958858
0.0958699
0.0958531
0.0958355
0.0958168
0.095797
0.0957759
0.0957531
0.0957284
0.0957013
0.0956714
0.095638
0.0956003
0.0955574
0.095508
0.0954507
0.0953836
0.0953042
0.0952093
0.0950945
0.0949539
0.0947765
0.0945549
0.0959602
0.0959578
0.0959518
0.0959428
0.0959319
0.0959199
0.0959071
0.0958936
0.0958793
0.0958646
0.0958494
0.0958338
0.0958177
0.0958012
0.095784
0.0957662
0.0957476
0.095728
0.0957072
0.0956851
0.0956612
0.0956352
0.0956065
0.0955747
0.0955387
0.0954975
0.0954493
0.095392
0.0953206
0.0952324
0.0959636
0.0959613
0.0959556
0.095947
0.0959367
0.0959255
0.0959137
0.0959015
0.0958889
0.0958761
0.0958634
0.0958509
0.0958386
0.0958266
0.0958151
0.0958042
0.0957941
0.0957849
0.0957769
0.0957703
0.0957655
0.0957629
0.0957631
0.0957666
0.0957743
0.095787
0.0958061
0.0958327
0.0958683
0.0959155
0.0959678
0.0959656
0.09596
0.0959516
0.0959418
0.0959313
0.0959205
0.0959095
0.0958985
0.0958877
0.0958774
0.0958679
0.0958594
0.095852
0.0958461
0.0958421
0.0958403
0.0958415
0.0958461
0.095855
0.0958692
0.0958898
0.0959186
0.0959572
0.0960082
0.0960745
0.0961601
0.09627
0.0964115
0.0965929
0.0959728
0.0959705
0.0959649
0.0959566
0.0959471
0.0959373
0.0959273
0.0959175
0.095908
0.0958991
0.0958913
0.0958847
0.0958798
0.0958769
0.0958765
0.0958793
0.0958858
0.0958971
0.0959141
0.0959382
0.0959711
0.0960146
0.0960714
0.0961445
0.0962378
0.0963565
0.0965071
0.096698
0.0969423
0.0972534
0.0959785
0.0959762
0.0959703
0.095962
0.0959526
0.0959432
0.0959341
0.0959254
0.0959173
0.0959103
0.0959047
0.0959011
0.0958997
0.0959012
0.0959062
0.0959155
0.0959301
0.0959512
0.0959803
0.0960192
0.0960701
0.0961358
0.0962197
0.0963261
0.0964605
0.0966297
0.0968427
0.0971111
0.097453
0.0978863
0.0959851
0.0959826
0.0959763
0.0959675
0.0959581
0.0959492
0.0959408
0.0959331
0.0959263
0.095921
0.0959177
0.0959168
0.0959189
0.0959245
0.0959347
0.0959503
0.0959726
0.0960032
0.0960439
0.0960969
0.0961652
0.0962521
0.096362
0.0965003
0.0966738
0.0968909
0.097163
0.0975042
0.0979368
0.0984823
0.0959926
0.0959897
0.0959827
0.0959732
0.0959636
0.095955
0.0959473
0.0959405
0.0959349
0.0959313
0.0959301
0.0959318
0.095937
0.0959467
0.0959617
0.0959833
0.096013
0.0960525
0.0961041
0.0961706
0.0962552
0.0963622
0.0964967
0.096665
0.0968751
0.0971372
0.0974643
0.0978727
0.0983876
0.0990335
0.0960012
0.0959977
0.0959895
0.0959789
0.095969
0.0959607
0.0959536
0.0959475
0.0959431
0.0959409
0.0959417
0.0959458
0.0959541
0.0959674
0.095987
0.0960142
0.0960507
0.0960987
0.0961605
0.0962395
0.0963395
0.0964652
0.0966225
0.0968186
0.0970627
0.0973661
0.0977435
0.0982129
0.0988011
0.0995342
0.096011
0.0960067
0.0959966
0.0959845
0.0959742
0.0959662
0.0959596
0.0959541
0.0959506
0.0959498
0.0959524
0.0959587
0.0959697
0.0959864
0.0960102
0.0960425
0.0960853
0.0961409
0.0962122
0.0963027
0.0964167
0.0965595
0.0967376
0.0969592
0.0972341
0.097575
0.0979975
0.0985212
0.0991734
0.0999804
0.0960223
0.0960166
0.0960039
0.0959898
0.0959791
0.0959714
0.0959651
0.0959601
0.0959575
0.095958
0.0959622
0.0959705
0.095984
0.0960039
0.0960314
0.0960684
0.0961169
0.0961794
0.0962592
0.09636
0.0964866
0.0966448
0.0968416
0.0970858
0.0973883
0.0977623
0.0982246
0.0987956
0.0995028
0.100371
0.0960357
0.0960278
0.096011
0.0959946
0.0959837
0.0959762
0.0959699
0.0959652
0.0959633
0.0959649
0.0959704
0.0959805
0.0959962
0.0960187
0.0960496
0.0960907
0.0961441
0.0962128
0.0963
0.0964099
0.0965476
0.0967193
0.0969325
0.0971965
0.0975228
0.0979254
0.098422
0.0990333
0.0997871
0.100707
0.0960519
0.0960401
0.0960173
0.0959985
0.0959881
0.0959811
0.0959747
0.0959703
0.095969
0.0959716
0.0959783
0.0959899
0.0960074
0.0960323
0.096066
0.0961105
0.0961682
0.0962421
0.0963357
0.0964533
0.0966004
0.0967835
0.0970106
0.0972913
0.0976377
0.0980642
0.0985891
0.0992338
0.100027
0.100989
0.0960724
0.0960536
0.0960218
0.0960007
0.0959908
0.0959838
0.0959773
0.095973
0.0959724
0.0959758
0.0959835
0.0959963
0.0960155
0.0960422
0.0960783
0.0961257
0.096187
0.0962651
0.0963639
0.0964879
0.0966427
0.0968352
0.0970735
0.0973678
0.0977304
0.098176
0.0987233
0.0993943
0.10022
0.10122
0.0960992
0.0960679
0.0960265
0.0960052
0.0959961
0.0959884
0.0959814
0.0959772
0.0959769
0.0959808
0.0959891
0.0960028
0.096023
0.0960512
0.096089
0.0961386
0.0962025
0.0962839
0.0963867
0.0965154
0.0966761
0.0968757
0.0971226
0.0974271
0.0978018
0.0982615
0.0988248
0.0995138
0.100367
0.101408
0.0961359
0.0960682
0.0960202
0.0960048
0.0959974
0.0959891
0.0959818
0.095978
0.0959782
0.0959825
0.0959914
0.0960059
0.0960269
0.0960562
0.0960952
0.0961464
0.0962122
0.0962959
0.0964014
0.0965337
0.0966985
0.0969029
0.0971556
0.0974671
0.0978499
0.098319
0.098892
0.0995896
0.100451
0.101534
0.0962124
0.0960777
0.0960183
0.0960065
0.0960002
0.0959913
0.0959837
0.0959798
0.0959801
0.0959846
0.0959937
0.0960084
0.0960299
0.0960595
0.0960992
0.0961511
0.0962178
0.0963027
0.0964096
0.0965439
0.0967108
0.0969176
0.0971733
0.0974885
0.0978755
0.0983493
0.0989265
0.0996267
0.10046
0.101429
0.0888562
0.087925
0.0873857
0.0871848
0.0869606
0.0866291
0.0862504
0.08587
0.085496
0.0851248
0.0847539
0.0843821
0.0840066
0.0836231
0.0832261
0.0828092
0.0823646
0.0818817
0.0813466
0.08074
0.0800349
0.0791871
0.0781556
0.0767303
0.0751329
0.0716075
0.0699526
0.0555106
0.0582717
-0.0187271
0.0893459
0.0884817
0.0878664
0.0875923
0.0873118
0.0869561
0.0865869
0.0862397
0.0859076
0.0855794
0.085252
0.0849247
0.0845956
0.0842612
0.0839176
0.0835601
0.0831827
0.0827778
0.0823348
0.0818391
0.0812698
0.0805959
0.0797713
0.0786825
0.0773395
0.0747799
0.0729924
0.0619951
0.0632564
-0.00173984
0.0889835
0.0884423
0.088035
0.0878028
0.0875566
0.087251
0.086938
0.0866422
0.0863552
0.0860686
0.0857826
0.0854988
0.085216
0.0849319
0.0846437
0.0843485
0.0840423
0.0837201
0.0833749
0.0829971
0.0825726
0.0820802
0.0814844
0.0807183
0.079726
0.0779787
0.0764172
0.0683964
0.0687779
0.0154149
0.0890493
0.0887167
0.0884337
0.0881893
0.0879333
0.087655
0.0873807
0.0871221
0.0868727
0.0866269
0.0863854
0.0861492
0.0859175
0.0856889
0.0854622
0.0852361
0.0850089
0.0847783
0.0845413
0.0842933
0.0840276
0.0837332
0.0833886
0.0829589
0.0823793
0.0813805
0.0802954
0.0749011
0.0749273
0.0323855
0.0892568
0.0890048
0.0887836
0.0885565
0.0883244
0.0880929
0.0878693
0.087656
0.08745
0.0872496
0.0870559
0.0868702
0.0866929
0.0865238
0.0863633
0.0862119
0.0860703
0.0859392
0.0858195
0.0857121
0.0856176
0.0855357
0.0854605
0.0853824
0.0852577
0.0849702
0.0845531
0.0814723
0.0816729
0.0490372
0.0895586
0.0893657
0.0892019
0.08901
0.0888094
0.0886174
0.088436
0.0882636
0.0880997
0.087945
0.0878008
0.0876685
0.0875493
0.0874443
0.0873554
0.0872849
0.0872358
0.0872122
0.0872189
0.0872627
0.0873518
0.0874965
0.087707
0.0879976
0.0883559
0.0887673
0.0891435
0.0881266
0.0889019
0.0653486
0.0899398
0.0897943
0.0896771
0.0895202
0.0893528
0.0892001
0.0890623
0.0889347
0.0888171
0.0887115
0.0886202
0.0885448
0.0884876
0.088451
0.0884386
0.0884547
0.0885048
0.088596
0.0887378
0.0889424
0.0892259
0.0896097
0.0901198
0.0907935
0.0916534
0.0927593
0.0940061
0.0948383
0.0965084
0.0811709
0.0903906
0.0902882
0.0902146
0.0900952
0.0899649
0.0898531
0.0897594
0.0896774
0.0896072
0.0895524
0.089516
0.0895003
0.0895084
0.0895444
0.0896132
0.0897211
0.0898763
0.0900892
0.0903736
0.0907474
0.0912347
0.0918678
0.0926882
0.0937557
0.0951279
0.0969244
0.0990797
0.101575
0.104394
0.0963193
0.0909091
0.0908471
0.0908148
0.0907337
0.0906417
0.0905713
0.090522
0.0904868
0.0904662
0.0904645
0.0904855
0.0905325
0.0906094
0.0907215
0.0908756
0.0910799
0.0913453
0.0916855
0.0921185
0.0926683
0.0933665
0.094256
0.0953938
0.0968606
0.0987483
0.101226
0.104296
0.108287
0.112432
0.11062
0.0914908
0.0914677
0.0914752
0.0914329
0.0913806
0.0913526
0.0913487
0.0913615
0.0913919
0.0914451
0.0915255
0.0916373
0.0917855
0.0919767
0.0922192
0.0925236
0.092903
0.0933745
0.0939606
0.0946907
0.0956041
0.0967538
0.0982112
0.100077
0.102475
0.105616
0.109582
0.114911
0.120484
0.123911
0.0921322
0.0921463
0.0921918
0.0921886
0.092177
0.0921919
0.0922338
0.0922955
0.0923781
0.0924873
0.0926286
0.0928069
0.0930282
0.0933004
0.0936336
0.0940402
0.0945359
0.0951411
0.0958823
0.0967943
0.0979237
0.099333
0.101107
0.103365
0.106259
0.110036
0.114854
0.121373
0.128393
0.136053
0.0928265
0.0928765
0.092958
0.092994
0.0930236
0.0930819
0.0931699
0.0932808
0.0934161
0.093582
0.0937849
0.0940303
0.0943255
0.0946796
0.0951041
0.0956135
0.0962259
0.0969647
0.0978604
0.0989528
0.100295
0.101959
0.104041
0.106676
0.110043
0.114416
0.120025
0.127582
0.135995
0.146908
0.0935662
0.09365
0.0937655
0.0938402
0.0939113
0.0940129
0.0941465
0.0943064
0.0944941
0.0947166
0.0949807
0.0952931
0.0956617
0.096097
0.096612
0.0972228
0.0979501
0.09882
0.0998665
0.101134
0.102682
0.10459
0.106965
0.109956
0.113763
0.118681
0.125003
0.133443
0.143114
0.156314
0.0943404
0.0944564
0.0946032
0.0947157
0.0948281
0.0949722
0.0951507
0.0953584
0.0955976
0.0958755
0.0961995
0.0965772
0.0970174
0.0975317
0.0981344
0.0988435
0.0996814
0.100677
0.101868
0.103302
0.105044
0.10718
0.109827
0.113145
0.117349
0.122753
0.129694
0.13886
0.149584
0.164111
0.0951372
0.095283
0.0954586
0.0956074
0.09576
0.0959455
0.096167
0.0964207
0.0967094
0.0970405
0.097422
0.097862
0.0983705
0.0989598
0.0996457
0.100447
0.101389
0.102503
0.103827
0.105415
0.107336
0.10968
0.112571
0.116179
0.120732
0.126551
0.134009
0.143741
0.155277
0.170313
0.0959424
0.0961157
0.0963172
0.0965003
0.0966915
0.0969163
0.0971783
0.0974754
0.0978106
0.0981916
0.0986268
0.099125
0.0996968
0.100356
0.101118
0.102005
0.103041
0.104261
0.105707
0.107432
0.109511
0.112037
0.115141
0.118997
0.123841
0.129999
0.137864
0.148005
0.160116
0.17513
0.0967412
0.0969394
0.0971638
0.0973786
0.097606
0.0978674
0.0981668
0.0985036
0.0988814
0.0993079
0.0997919
0.100343
0.100972
0.101693
0.102523
0.103485
0.104605
0.105918
0.107468
0.109312
0.111525
0.114204
0.117483
0.121539
0.126614
0.133028
0.141185
0.151581
0.164052
0.178587
0.0975184
0.097739
0.0979833
0.0982266
0.098487
0.0987816
0.0991146
0.0994867
0.0999022
0.100369
0.100896
0.101492
0.102171
0.102945
0.103834
0.10486
0.10605
0.107441
0.109077
0.111017
0.113337
0.116137
0.119551
0.123757
0.128995
0.13558
0.143913
0.154409
0.166999
0.180583
0.0982596
0.0984999
0.0987613
0.0990297
0.0993194
0.0996431
0.100005
0.100408
0.100855
0.101356
0.101919
0.102554
0.103273
0.104091
0.105027
0.106104
0.10735
0.108801
0.110503
0.112516
0.114915
0.117801
0.121307
0.125609
0.130943
0.137611
0.145999
0.156432
0.168841
0.181191
0.0989523
0.0992098
0.0994855
0.0997752
0.10009
0.100438
0.100825
0.101252
0.101726
0.102254
0.102846
0.10351
0.104261
0.105113
0.106084
0.107198
0.108483
0.109977
0.111724
0.113784
0.116233
0.119169
0.122724
0.127069
0.132431
0.139094
0.147417
0.157613
0.16955
0.18051
0.0995861
0.0998583
0.100146
0.100453
0.100788
0.101156
0.101562
0.102008
0.102502
0.103051
0.103663
0.104349
0.105122
0.105996
0.10699
0.108127
0.109437
0.110954
0.112725
0.114807
0.117276
0.120228
0.123789
0.128124
0.13345
0.140022
0.148166
0.157964
0.169267
0.178462
0.100155
0.10044
0.100737
0.101057
0.101408
0.101792
0.102211
0.102671
0.103179
0.103741
0.104367
0.105065
0.10585
0.106735
0.10774
0.108887
0.110205
0.111728
0.113502
0.115583
0.118044
0.120978
0.124506
0.128784
0.134013
0.140417
0.148284
0.15753
0.168139
0.174923
0.100654
0.100949
0.101254
0.101585
0.101947
0.102341
0.102769
0.103238
0.103754
0.104323
0.104954
0.105657
0.106445
0.107332
0.108336
0.109479
0.11079
0.112302
0.11406
0.116118
0.118545
0.121431
0.12489
0.129066
0.134144
0.140309
0.147818
0.156378
0.16625
0.170167
0.101085
0.101388
0.101698
0.102036
0.102404
0.102804
0.103237
0.103709
0.104226
0.104796
0.105426
0.106127
0.106909
0.107787
0.10878
0.109908
0.111199
0.112685
0.114408
0.116422
0.118792
0.121603
0.12496
0.128995
0.133875
0.139739
0.146829
0.154593
0.163716
0.164612
0.101451
0.10176
0.102072
0.102413
0.102785
0.103188
0.103622
0.104093
0.104607
0.105173
0.105796
0.106486
0.107255
0.108117
0.109089
0.11019
0.111448
0.112894
0.114568
0.11652
0.118813
0.121524
0.124752
0.128613
0.133258
0.138773
0.145401
0.152265
0.160671
0.158039
0.101763
0.102076
0.102383
0.102718
0.103089
0.103491
0.103922
0.104387
0.104895
0.105452
0.106064
0.10674
0.10749
0.108329
0.109271
0.110338
0.111552
0.112946
0.114558
0.116433
0.118631
0.121224
0.124301
0.127963
0.132344
0.137471
0.143612
0.149469
0.157214
0.150371
0.102035
0.102349
0.102646
0.102977
0.103349
0.103748
0.104171
0.104627
0.105124
0.105667
0.106263
0.106918
0.107643
0.108452
0.109359
0.110383
0.111546
0.112878
0.114416
0.116203
0.118293
0.120752
0.123662
0.127104
0.131201
0.13591
0.141554
0.146286
0.153454
0.141898
0.102312
0.102566
0.102798
0.103119
0.103506
0.10391
0.104323
0.104767
0.10525
0.105781
0.106365
0.107001
0.1077
0.108475
0.10934
0.110315
0.111418
0.11268
0.114136
0.115825
0.117797
0.120111
0.122841
0.126051
0.129855
0.134122
0.139288
0.142771
0.149502
0.132898
0.102823
0.102938
0.103024
0.103303
0.103695
0.104109
0.10452
0.104954
0.105418
0.105922
0.106472
0.107077
0.107745
0.108485
0.10931
0.11024
0.111281
0.112469
0.113838
0.115423
0.117272
0.119435
0.121979
0.124948
0.128452
0.132255
0.136969
0.139068
0.145492
0.1236
0.102895
0.102774
0.102856
0.103216
0.103648
0.104094
0.104512
0.104944
0.105412
0.105913
0.106446
0.107023
0.107651
0.108341
0.109106
0.109959
0.110928
0.112034
0.113306
0.114779
0.116495
0.118501
0.120855
0.123579
0.126801
0.130118
0.134488
0.135048
0.141384
0.114193
0.105924
0.09761
0.0884674
0.0790999
0.0701397
0.0619614
0.0548909
0.049296
0.0455692
0.0440946
0.0449435
0.0475675
0.0505039
0.052143
0.0517006
0.0495699
0.0478555
0.0464501
0.044974
0.0438564
0.0430828
0.0422446
0.0410579
0.0395244
0.0379316
0.0362481
0.0343982
0.0322954
0.0297602
0.0267055
0.137186
0.131329
0.124852
0.118455
0.112012
0.105291
0.0984671
0.0918915
0.085728
0.0803441
0.0762156
0.0733997
0.0714614
0.0691092
0.0652117
0.0589307
0.0511518
0.0459115
0.044445
0.043521
0.0418322
0.0399003
0.0385031
0.0377532
0.0371459
0.0363472
0.0353164
0.0340405
0.0325469
0.0304518
0.131847
0.128321
0.124228
0.119566
0.11418
0.108102
0.101644
0.0950608
0.0886623
0.082986
0.078409
0.0746952
0.0712415
0.0671767
0.0616434
0.0562276
0.0514726
0.0474753
0.0453446
0.0433286
0.0407973
0.039835
0.0406315
0.0415495
0.0425965
0.0440074
0.0452339
0.0462873
0.0466779
0.045865
0.132723
0.130895
0.128471
0.125172
0.121099
0.116325
0.110935
0.105051
0.0988929
0.0927918
0.0870499
0.0817666
0.0768456
0.0720813
0.0673108
0.0629049
0.0584757
0.0533716
0.0496521
0.0471594
0.0450595
0.0449623
0.0466592
0.0496323
0.0544142
0.0586978
0.0617092
0.0635322
0.0642908
0.064187
0.128825
0.127975
0.126761
0.124836
0.122101
0.118631
0.114491
0.109698
0.104334
0.0986092
0.0928308
0.0872774
0.0820674
0.0771681
0.0724751
0.0679593
0.0635394
0.059496
0.0565681
0.0541264
0.0524935
0.0530135
0.0556759
0.0602294
0.0657151
0.0703924
0.0737623
0.075098
0.0747999
0.0733323
0.125974
0.125819
0.125397
0.124233
0.122244
0.119566
0.116186
0.112071
0.10727
0.101948
0.0963653
0.0908045
0.0854587
0.0803835
0.0755368
0.0709322
0.066706
0.0631884
0.0606595
0.0591091
0.058892
0.0602069
0.0627571
0.0664492
0.0704909
0.0733987
0.0744829
0.0737774
0.0710527
0.0658873
0.123013
0.123247
0.123309
0.122707
0.121463
0.119551
0.116932
0.11354
0.109374
0.104542
0.0992511
0.0937658
0.0883302
0.0830998
0.0781432
0.0735481
0.0694895
0.0662055
0.0639245
0.0628145
0.0629945
0.0643795
0.0665076
0.0686889
0.0699327
0.0697269
0.0676686
0.0634045
0.056315
0.0475245
0.120496
0.121002
0.121413
0.121235
0.120449
0.119082
0.117063
0.114283
0.110699
0.106367
0.101443
0.0961587
0.0907766
0.0855175
0.0805343
0.0759675
0.0720056
0.0688722
0.0667784
0.0658291
0.0659644
0.0669076
0.0680917
0.0687748
0.0682301
0.0658963
0.061276
0.054395
0.0448418
0.0347539
0.118287
0.118951
0.119575
0.119685
0.119259
0.118327
0.116794
0.114527
0.111449
0.107579
0.103027
0.0979959
0.0927448
0.087531
0.082564
0.078028
0.0741291
0.0710887
0.0690784
0.0681208
0.0680345
0.0684058
0.0686058
0.0679505
0.0658758
0.0620001
0.0561796
0.0487023
0.0400678
0.0318158
0.116391
0.117155
0.117917
0.11823
0.118075
0.117472
0.116323
0.114482
0.111845
0.108394
0.104202
0.0994361
0.0943466
0.0892102
0.0842787
0.0797752
0.0759217
0.0729271
0.0709149
0.0698328
0.0694063
0.0691444
0.0684248
0.0666656
0.0634764
0.0587425
0.0526932
0.0459013
0.0390831
0.0331764
0.114758
0.11558
0.116428
0.116881
0.116926
0.116581
0.115741
0.114253
0.111996
0.108923
0.10507
0.100573
0.0956626
0.0906262
0.0857461
0.0812773
0.0774541
0.0744682
0.072396
0.0711194
0.0702978
0.0694145
0.0679055
0.0653316
0.0615179
0.0566188
0.0511293
0.045775
0.0413906
0.0386126
0.113351
0.114206
0.115106
0.115657
0.115852
0.115704
0.115112
0.113916
0.111984
0.109245
0.105704
0.101466
0.0967422
0.0918191
0.0870002
0.0825651
0.0787568
0.0757493
0.0735775
0.0720716
0.0708549
0.0694265
0.0673162
0.0642526
0.0602761
0.0557538
0.0513283
0.047717
0.0455758
0.0451334
0.112131
0.113003
0.113934
0.114554
0.11486
0.114867
0.114474
0.11352
0.111866
0.10942
0.106164
0.102171
0.0976309
0.0928257
0.0880712
0.0836654
0.0798574
0.0768052
0.0745097
0.072766
0.0711878
0.0693211
0.0668121
0.063558
0.0597789
0.05597
0.0527804
0.0507508
0.0503152
0.0511805
0.111066
0.111946
0.112896
0.113566
0.113957
0.114085
0.113852
0.1131
0.111682
0.109495
0.106494
0.102729
0.0983669
0.093679
0.0889883
0.0846062
0.0807864
0.0776739
0.0752439
0.0732716
0.071384
0.0691949
0.0664741
0.0632687
0.059925
0.0569674
0.054952
0.054211
0.0549394
0.0564544
0.110132
0.111012
0.111973
0.112681
0.113138
0.113363
0.11326
0.112676
0.111461
0.1095
0.106729
0.103174
0.0989798
0.0944053
0.0897755
0.0854112
0.08157
0.0783875
0.0758216
0.073642
0.0715057
0.0691064
0.0663324
0.0633511
0.0605691
0.0584692
0.05748
0.0577129
0.0591778
0.060968
0.109306
0.11018
0.111148
0.111886
0.112398
0.112701
0.112706
0.112264
0.111223
0.10946
0.106895
0.103532
0.0994937
0.0950264
0.0904527
0.0860998
0.0822296
0.0789722
0.0762758
0.0739164
0.0715938
0.0690855
0.0663849
0.0637418
0.0615642
0.0602636
0.0601175
0.0610404
0.0629281
0.0647583
0.108563
0.109434
0.110406
0.11117
0.111727
0.112097
0.112193
0.111871
0.110981
0.109392
0.107011
0.103823
0.0999285
0.0955604
0.0910366
0.0866887
0.0827834
0.0794494
0.0766321
0.0741236
0.0716743
0.0691438
0.0666119
0.0643661
0.0627881
0.0621927
0.0627022
0.064081
0.0661658
0.0678917
0.107893
0.108759
0.109734
0.110521
0.111119
0.111547
0.111722
0.111503
0.110745
0.10931
0.107094
0.104063
0.1003
0.0960226
0.0915416
0.0871918
0.0832464
0.0798368
0.0769108
0.0742841
0.0717623
0.0692807
0.0669803
0.0651572
0.0641422
0.0641407
0.0651329
0.0667846
0.0689065
0.0704521
0.107281
0.108144
0.109121
0.109928
0.110565
0.111046
0.11129
0.111164
0.110522
0.109224
0.107155
0.104266
0.100623
0.0964255
0.0919794
0.0876205
0.0836311
0.0801483
0.0771268
0.0744117
0.071865
0.0694879
0.0674567
0.0660559
0.0655467
0.0660251
0.0673517
0.0691383
0.0711855
0.07252
0.106716
0.107577
0.108558
0.109384
0.110058
0.110589
0.110896
0.110852
0.110315
0.109141
0.107205
0.104444
0.100906
0.0967798
0.0923599
0.0879846
0.0839476
0.0803956
0.0772919
0.0745156
0.0719844
0.0697524
0.068011
0.067013
0.06694
0.0677884
0.0693267
0.0711498
0.0730482
0.0741703
0.106191
0.107052
0.108034
0.108879
0.109589
0.110169
0.110536
0.110569
0.110128
0.109066
0.10725
0.104604
0.101161
0.0970943
0.0926915
0.0882914
0.0842037
0.0805868
0.0774136
0.0746007
0.0721181
0.0700588
0.0686131
0.0679855
0.0682767
0.0693974
0.0710467
0.0728335
0.0745406
0.0754757
0.105699
0.106561
0.107543
0.108406
0.109154
0.109782
0.110207
0.110312
0.109962
0.109003
0.107297
0.104754
0.101393
0.0973766
0.0929812
0.0885481
0.0844073
0.0807307
0.077499
0.0746723
0.0722662
0.0703974
0.0692383
0.068936
0.0695184
0.0708315
0.072522
0.0742226
0.0757117
0.0765029
0.105243
0.1061
0.107077
0.107959
0.108745
0.109421
0.109904
0.11008
0.109815
0.108955
0.10735
0.1049
0.101611
0.0976325
0.0932336
0.0887567
0.0845597
0.0808292
0.0775479
0.0747231
0.0724121
0.0707486
0.0698631
0.0698363
0.0706342
0.0720636
0.0737515
0.0753596
0.0766395
0.0773317
0.104831
0.105665
0.106628
0.10753
0.108358
0.109083
0.109623
0.10987
0.109689
0.108922
0.107412
0.105048
0.10182
0.097871
0.0934594
0.0889299
0.0846744
0.0808947
0.0775761
0.0747811
0.0725791
0.0711142
0.0704705
0.0706695
0.0716265
0.0731072
0.0747336
0.0762372
0.0773675
0.0780593
0.104448
0.105261
0.106201
0.107116
0.107985
0.108761
0.10936
0.10968
0.109583
0.108908
0.107488
0.105199
0.102019
0.0980852
0.0936455
0.0890489
0.0847344
0.0809095
0.0775404
0.0747688
0.0727146
0.0714584
0.0710258
0.0713958
0.0724778
0.0740162
0.0755853
0.0769486
0.0779159
0.0787109
0.104104
0.104896
0.105796
0.106718
0.107626
0.108452
0.109111
0.109503
0.109493
0.10891
0.107583
0.105368
0.102231
0.0983102
0.0938378
0.0891617
0.0847861
0.080939
0.0775499
0.0748261
0.0728828
0.071803
0.0715258
0.0719862
0.0731055
0.0746761
0.0762875
0.077649
0.0785408
0.0794607
0.103796
0.104548
0.105408
0.106336
0.107277
0.108151
0.108871
0.109343
0.109423
0.108929
0.107686
0.105533
0.102412
0.0984771
0.093945
0.0891866
0.0847318
0.0808294
0.0774054
0.0747879
0.0729998
0.0721069
0.0719666
0.0725091
0.0736359
0.0751126
0.0766077
0.0778988
0.0789202
0.0802647
0.103525
0.104211
0.105033
0.105972
0.106941
0.107855
0.108627
0.109155
0.109347
0.108958
0.107817
0.105745
0.102685
0.0987309
0.09412
0.0892668
0.0847935
0.0808695
0.0774356
0.0747909
0.0731346
0.0723977
0.0723184
0.0729223
0.0742355
0.0759439
0.0774732
0.0785899
0.0795952
0.0810783
0.103332
0.103886
0.10466
0.105624
0.106655
0.107641
0.108494
0.10911
0.109339
0.109026
0.107951
0.105905
0.102821
0.0987941
0.0940817
0.0890957
0.0846153
0.08075
0.0773078
0.0747589
0.0732593
0.0725744
0.072475
0.0728973
0.0740321
0.0757664
0.0774118
0.0787432
0.0801332
0.0818734
0.103247
0.103604
0.104239
0.105111
0.106127
0.107157
0.108081
0.108816
0.109215
0.109083
0.10817
0.106271
0.103276
0.0991759
0.0943387
0.0892209
0.084537
0.0804143
0.0770195
0.0745895
0.0732919
0.0727702
0.072824
0.0734
0.0748421
0.076704
0.0783496
0.0796809
0.0810208
0.0824007
-0.0994757
-0.0831656
-0.0459525
0.00481035
0.0225954
0.0457514
0.0534245
0.0620419
0.066051
0.0690705
0.070683
0.0715528
0.0719352
0.0720422
0.0720157
0.0719516
0.0719045
0.0718932
0.071949
0.0720592
0.0722271
0.0724196
0.0726789
0.0729069
0.0732545
0.0735457
0.0740749
0.0745156
0.0755173
0.0741819
-0.10056
-0.0898385
-0.0529791
-0.00038623
0.0214632
0.0440038
0.0534471
0.0619276
0.0666989
0.0698353
0.0716332
0.0725756
0.0729689
0.0730339
0.0729266
0.0727555
0.0725878
0.0724565
0.072392
0.0723926
0.0724658
0.0725757
0.0727507
0.0729238
0.0731621
0.0733386
0.0736102
0.0736775
0.0740864
0.0734825
-0.1011
-0.0943294
-0.0626496
-0.00734648
0.0190744
0.0410689
0.0526266
0.0614054
0.0670372
0.0705604
0.0726383
0.0737262
0.0741629
0.0741946
0.0739994
0.0737034
0.0733917
0.0731158
0.0729108
0.0727862
0.0727475
0.0727744
0.0728691
0.0729956
0.0731622
0.0733075
0.0734874
0.0735661
0.0738192
0.073866
-0.101233
-0.0959492
-0.0713029
-0.0132891
0.0172694
0.0393292
0.0524266
0.0616643
0.0678505
0.0717084
0.0739573
0.0750962
0.075498
0.0754382
0.0751167
0.074676
0.0742146
0.073797
0.073464
0.0732316
0.073104
0.0730685
0.0731162
0.0732246
0.073386
0.0735691
0.0737905
0.0739913
0.0742536
0.0744166
-0.101899
-0.094939
-0.0784652
-0.0192632
0.0152921
0.0381486
0.0523948
0.0621664
0.0687866
0.0729787
0.0754138
0.0766152
0.0769862
0.076831
0.0763743
0.075776
0.0751476
0.0745669
0.0740845
0.0737235
0.0734898
0.0733744
0.0733638
0.0734374
0.0735794
0.0737646
0.073986
0.0742095
0.0744526
0.0746353
-0.1036
-0.0952622
-0.0861576
-0.0268255
0.0120962
0.0365576
0.0519625
0.0624142
0.0695383
0.0741509
0.0768748
0.0782233
0.0786201
0.0783987
0.0778122
0.0770428
0.07622
0.0754402
0.0747693
0.0742418
0.0738692
0.0736451
0.0735535
0.0735717
0.0736767
0.0738422
0.0740502
0.0742757
0.0745211
0.0747397
-0.106006
-0.100197
-0.0956939
-0.0364116
0.0074934
0.0342559
0.0510403
0.0623384
0.0700554
0.075159
0.0782571
0.0798339
0.0803156
0.080062
0.0793624
0.0784242
0.0773945
0.0763898
0.0754965
0.074767
0.0742244
0.0738676
0.0736793
0.0736345
0.0737047
0.0738594
0.0740728
0.0743193
0.0745916
0.0748411
-0.108704
-0.10838
-0.105858
-0.0469228
0.00178083
0.0312007
0.0496391
0.0619336
0.0703073
0.0759355
0.0794492
0.0813132
0.0819492
0.0817228
0.0809449
0.0798493
0.0786071
0.0773603
0.0762208
0.075262
0.0745222
0.0740082
0.0737039
0.0735847
0.0736181
0.0737662
0.0739947
0.0742719
0.0745846
0.0748743
-0.111344
-0.117251
-0.115392
-0.057697
-0.0050974
0.027267
0.0476226
0.0610671
0.0701713
0.0763592
0.0803229
0.0825097
0.0833262
0.0831678
0.0823736
0.0811821
0.0797601
0.0782549
0.0768159
0.075573
0.0746044
0.0739215
0.0734966
0.0733022
0.0733046
0.0734564
0.0737135
0.074036
0.0744063
0.0747574
-0.113813
-0.125452
-0.12379
-0.0690562
-0.0130368
0.0222419
0.0447109
0.0594727
0.0694275
0.0762653
0.0807569
0.0833206
0.0843445
0.0842551
0.0834295
0.0821604
0.0806419
0.0789876
0.0773011
0.0757141
0.0744017
0.0734695
0.0728903
0.0726059
0.0725854
0.0727661
0.0730887
0.073496
0.0739592
0.0744048
-0.116221
-0.132469
-0.130714
-0.079747
-0.0221427
0.0158764
0.040552
0.0567766
0.0677129
0.0752553
0.0802606
0.0831663
0.0844043
0.0844274
0.0835917
0.0821966
0.0804938
0.0786692
0.076837
0.0750921
0.0735973
0.0724468
0.0717159
0.0713121
0.0712722
0.0715069
0.0719429
0.0724921
0.0731022
0.0736938
-0.118051
-0.137736
-0.136181
-0.088907
-0.032615
0.0079518
0.0347672
0.0524424
0.064242
0.0722907
0.0776703
0.0809077
0.0824588
0.0827901
0.0823081