/*--------------------------------*- C++ -*----------------------------------*\
  =========                 |
  \\      /  F ield         | OpenFOAM: The Open Source CFD Toolbox
   \\    /   O peration     | Website:  https://openfoam.org
    \\  /    A nd           | Version:  11
     \\/     M anipulation  |
\*---------------------------------------------------------------------------*/
FoamFile
{
    format      ascii;
    class       surfaceScalarField;
    location    "9";
    object      phi;
}
// * * * * * * * * * * * * * * * * * * * * * * * * * * * * * * * * * * * * * //

dimensions      [0 3 -1 0 0 0 0];

internalField   nonuniform List<scalar> 
24840
(
1.53202e-05
1.31764e-08
1.53025e-05
1.76268e-08
1.52865e-05
1.60338e-08
1.52712e-05
1.53049e-08
1.52562e-05
1.50179e-08
1.52417e-05
1.45042e-08
1.5228e-05
1.36832e-08
1.52154e-05
1.25818e-08
1.52042e-05
1.11662e-08
1.51948e-05
9.47711e-09
1.51876e-05
7.20636e-09
1.51831e-05
4.49667e-09
1.51818e-05
1.22568e-09
1.51846e-05
-2.81097e-09
1.51924e-05
-7.78644e-09
1.52063e-05
-1.39032e-08
1.52277e-05
-2.14142e-08
1.52584e-05
-3.06794e-08
1.53006e-05
-4.22046e-08
1.5357e-05
-5.63993e-08
1.54306e-05
-7.35479e-08
1.55252e-05
-9.46614e-08
1.56462e-05
-1.20917e-07
1.57995e-05
-1.53293e-07
1.5993e-05
-1.935e-07
1.6236e-05
-2.43046e-07
1.65401e-05
-3.04136e-07
1.69147e-05
-3.74563e-07
1.73936e-05
-4.78872e-07
-5.02961e-07
1.78965e-05
1.53394e-05
7.06851e-09
1.5344e-05
1.30579e-08
1.53483e-05
1.17288e-08
1.53525e-05
1.1145e-08
1.53568e-05
1.06495e-08
1.53617e-05
9.6265e-09
1.53673e-05
8.05534e-09
1.5374e-05
5.93838e-09
1.53819e-05
3.24707e-09
1.53914e-05
3.16188e-11
1.54029e-05
-4.31174e-09
1.54168e-05
-9.41901e-09
1.54337e-05
-1.56364e-08
1.54541e-05
-2.32257e-08
1.54788e-05
-3.24857e-08
1.55086e-05
-4.37346e-08
1.55447e-05
-5.75248e-08
1.55883e-05
-7.42342e-08
1.56406e-05
-9.45656e-08
1.57041e-05
-1.1983e-07
1.57823e-05
-1.51807e-07
1.58789e-05
-1.91199e-07
1.59975e-05
-2.3955e-07
1.61444e-05
-3.00258e-07
1.63269e-05
-3.75966e-07
1.65532e-05
-4.69296e-07
1.68331e-05
-5.84063e-07
1.71793e-05
-7.20802e-07
1.7605e-05
-9.04548e-07
-1.0232e-06
1.81252e-05
1.53363e-05
4.08453e-09
1.53404e-05
8.94414e-09
1.53437e-05
8.42338e-09
1.53476e-05
7.28923e-09
1.53519e-05
6.34828e-09
1.53566e-05
4.93154e-09
1.53619e-05
2.7821e-09
1.53681e-05
-2.89245e-10
1.53753e-05
-4.00975e-09
1.53842e-05
-8.83481e-09
1.53949e-05
-1.49601e-08
1.54078e-05
-2.24045e-08
1.54237e-05
-3.14749e-08
1.5443e-05
-4.25298e-08
1.54665e-05
-5.60009e-08
1.54952e-05
-7.23939e-08
1.55301e-05
-9.24233e-08
1.55727e-05
-1.1688e-07
1.56249e-05
-1.4679e-07
1.56889e-05
-1.83816e-07
1.57671e-05
-2.30007e-07
1.58629e-05
-2.86995e-07
1.59807e-05
-3.57332e-07
1.61254e-05
-4.45004e-07
1.63035e-05
-5.54055e-07
1.6523e-05
-6.88782e-07
1.67944e-05
-8.55452e-07
1.71295e-05
-1.0559e-06
1.75449e-05
-1.31993e-06
-1.54287e-06
1.80646e-05
1.53352e-05
2.24826e-09
1.53387e-05
5.3956e-09
1.53419e-05
5.20072e-09
1.53455e-05
3.77622e-09
1.53495e-05
2.2866e-09
1.5354e-05
4.15899e-10
1.53592e-05
-2.34977e-09
1.53651e-05
-6.21948e-09
1.53722e-05
-1.11153e-08
1.53808e-05
-1.74004e-08
1.53911e-05
-2.52908e-08
1.54037e-05
-3.49754e-08
1.5419e-05
-4.67898e-08
1.54376e-05
-6.11818e-08
1.54603e-05
-7.87114e-08
1.5488e-05
-1.00066e-07
1.55217e-05
-1.26145e-07
1.55629e-05
-1.58042e-07
1.56132e-05
-1.97139e-07
1.56748e-05
-2.45403e-07
1.57501e-05
-3.05224e-07
1.58422e-05
-3.79111e-07
1.59554e-05
-4.70542e-07
1.60946e-05
-5.84225e-07
1.6266e-05
-7.25442e-07
1.64774e-05
-9.00145e-07
1.67387e-05
-1.11681e-06
1.70627e-05
-1.3799e-06
1.74636e-05
-1.72083e-06
-2.05144e-06
1.79722e-05
1.53346e-05
1.0238e-09
1.53374e-05
2.59187e-09
1.53404e-05
2.18663e-09
1.53436e-05
5.10566e-10
1.53474e-05
-1.50096e-09
1.53518e-05
-3.91516e-09
1.53567e-05
-7.29442e-09
1.53624e-05
-1.1938e-08
1.53693e-05
-1.79523e-08
1.53775e-05
-2.56135e-08
1.53874e-05
-3.52053e-08
1.53994e-05
-4.70169e-08
1.54141e-05
-6.14434e-08
1.54319e-05
-7.90158e-08
1.54536e-05
-1.00413e-07
1.548e-05
-1.26485e-07
1.55122e-05
-1.58315e-07
1.55514e-05
-1.97262e-07
1.55993e-05
-2.45034e-07
1.56578e-05
-3.03904e-07
1.57293e-05
-3.76685e-07
1.58168e-05
-4.66634e-07
1.59243e-05
-5.77984e-07
1.60562e-05
-7.16224e-07
1.62187e-05
-8.87895e-07
1.64192e-05
-1.10063e-06
1.66673e-05
-1.3649e-06
1.69758e-05
-1.68838e-06
1.73576e-05
-2.10264e-06
-2.53906e-06
1.78452e-05
1.53342e-05
1.4015e-10
1.53365e-05
3.33393e-10
1.53393e-05
-6.01061e-10
1.53424e-05
-2.58168e-09
1.53459e-05
-5.04893e-09
1.535e-05
-8.02202e-09
1.53547e-05
-1.20039e-08
1.53602e-05
-1.7391e-08
1.53667e-05
-2.44321e-08
1.53744e-05
-3.33951e-08
1.53838e-05
-4.46004e-08
1.53952e-05
-5.84093e-08
1.54091e-05
-7.52852e-08
1.54259e-05
-9.58404e-08
1.54463e-05
-1.20864e-07
1.54712e-05
-1.51352e-07
1.55015e-05
-1.88567e-07
1.55383e-05
-2.341e-07
1.55832e-05
-2.89953e-07
1.5638e-05
-3.58708e-07
1.57049e-05
-4.43589e-07
1.57868e-05
-5.48474e-07
1.58871e-05
-6.78305e-07
1.60102e-05
-8.39392e-07
1.61618e-05
-1.03946e-06
1.63489e-05
-1.28772e-06
1.65806e-05
-1.59655e-06
1.68692e-05
-1.97699e-06
1.72269e-05
-2.46041e-06
-2.99947e-06
1.76874e-05
1.5334e-05
-5.5363e-10
1.53359e-05
-1.52771e-09
1.53384e-05
-3.10298e-09
1.53413e-05
-5.45906e-09
1.53446e-05
-8.35203e-09
1.53484e-05
-1.18481e-08
1.53528e-05
-1.64154e-08
1.53579e-05
-2.25233e-08
1.5364e-05
-3.05136e-08
1.53713e-05
-4.0686e-08
1.53801e-05
-5.33903e-08
1.53907e-05
-6.90451e-08
1.54036e-05
-8.81806e-08
1.54193e-05
-1.11487e-07
1.54383e-05
-1.39855e-07
1.54613e-05
-1.7441e-07
1.54893e-05
-2.1658e-07
1.55234e-05
-2.6816e-07
1.55649e-05
-3.31413e-07
1.56154e-05
-4.09215e-07
1.56769e-05
-5.05166e-07
1.57522e-05
-6.23689e-07
1.58442e-05
-7.70372e-07
1.59571e-05
-9.52294e-07
1.60959e-05
-1.17826e-06
1.62672e-05
-1.45897e-06
1.64792e-05
-1.80861e-06
1.67438e-05
-2.2416e-06
1.70725e-05
-2.7891e-06
-3.42615e-06
1.74992e-05
1.53339e-05
-1.1221e-09
1.53355e-05
-3.09008e-09
1.53377e-05
-5.328e-09
1.53403e-05
-8.10474e-09
1.53434e-05
-1.14068e-08
1.53469e-05
-1.53898e-08
1.5351e-05
-2.05155e-08
1.53558e-05
-2.72972e-08
1.53614e-05
-3.61481e-08
1.53682e-05
-4.74172e-08
1.53763e-05
-6.14858e-08
1.5386e-05
-7.88178e-08
1.53979e-05
-1.00002e-07
1.54122e-05
-1.25801e-07
1.54295e-05
-1.57194e-07
1.54505e-05
-1.95423e-07
1.5476e-05
-2.4206e-07
1.55069e-05
-2.99081e-07
1.55445e-05
-3.68975e-07
1.55902e-05
-4.54882e-07
1.56457e-05
-5.60738e-07
1.57135e-05
-6.91431e-07
1.57962e-05
-8.53114e-07
1.58975e-05
-1.05356e-06
1.60218e-05
-1.30253e-06
1.61749e-05
-1.6121e-06
1.63644e-05
-1.99811e-06
1.66011e-05
-2.47827e-06
1.68955e-05
-3.08359e-06
-3.81203e-06
1.72814e-05
1.53338e-05
-1.59756e-09
1.53351e-05
-4.41966e-09
1.53371e-05
-7.2939e-09
1.53395e-05
-1.05109e-08
1.53423e-05
-1.42072e-08
1.53456e-05
-1.86328e-08
1.53493e-05
-2.42678e-08
1.53537e-05
-3.16604e-08
1.53588e-05
-4.12809e-08
1.53649e-05
-5.35273e-08
1.53722e-05
-6.88122e-08
1.53811e-05
-8.7636e-08
1.53917e-05
-1.10638e-07
1.54045e-05
-1.38642e-07
1.542e-05
-1.72707e-07
1.54388e-05
-2.14176e-07
1.54615e-05
-2.64743e-07
1.54889e-05
-3.26539e-07
1.55222e-05
-4.02243e-07
1.55626e-05
-4.95223e-07
1.56115e-05
-6.09701e-07
1.5671e-05
-7.50947e-07
1.57435e-05
-9.2559e-07
1.58319e-05
-1.14199e-06
1.59402e-05
-1.41075e-06
1.60731e-05
-1.74509e-06
1.62374e-05
-2.16235e-06
1.64424e-05
-2.68328e-06
1.66976e-05
-3.33883e-06
-4.14971e-06
1.70353e-05
1.53337e-05
-1.99977e-09
1.53349e-05
-5.55922e-09
1.53366e-05
-9.02078e-09
1.53388e-05
-1.26715e-08
1.53413e-05
-1.67397e-08
1.53442e-05
-2.15601e-08
1.53476e-05
-2.76481e-08
1.53515e-05
-3.5583e-08
1.53561e-05
-4.58787e-08
1.53616e-05
-5.89741e-08
1.53681e-05
-7.53118e-08
1.53759e-05
-9.5423e-08
1.53852e-05
-1.19989e-07
1.53965e-05
-1.49887e-07
1.541e-05
-1.86243e-07
1.54263e-05
-2.30483e-07
1.5446e-05
-2.84402e-07
1.54697e-05
-3.50257e-07
1.54983e-05
-4.30879e-07
1.55329e-05
-5.29823e-07
1.55747e-05
-6.5154e-07
1.56254e-05
-8.01598e-07
1.56868e-05
-9.86998e-07
1.57614e-05
-1.21658e-06
1.58522e-05
-1.50157e-06
1.59633e-05
-1.85616e-06
1.60998e-05
-2.29891e-06
1.62698e-05
-2.85325e-06
1.64811e-05
-3.55006e-06
-4.43171e-06
1.67631e-05
1.53337e-05
-2.34181e-09
1.53347e-05
-6.53683e-09
1.53362e-05
-1.05258e-08
1.53381e-05
-1.45834e-08
1.53403e-05
-1.89939e-08
1.53429e-05
-2.41614e-08
1.53459e-05
-3.06419e-08
1.53494e-05
-3.90423e-08
1.53534e-05
-4.99091e-08
1.53581e-05
-6.37142e-08
1.53638e-05
-8.09278e-08
1.53704e-05
-1.02108e-07
1.53784e-05
-1.27968e-07
1.5388e-05
-1.5943e-07
1.53994e-05
-1.97673e-07
1.54131e-05
-2.44185e-07
1.54295e-05
-3.00843e-07
1.54493e-05
-3.7e-07
1.5473e-05
-4.54602e-07
1.55015e-05
-5.5834e-07
1.55358e-05
-6.85836e-07
1.55771e-05
-8.42866e-07
1.56268e-05
-1.0367e-06
1.56867e-05
-1.27649e-06
1.57591e-05
-1.57394e-06
1.58468e-05
-1.94389e-06
1.59537e-05
-2.40583e-06
1.60858e-05
-2.98531e-06
1.62487e-05
-3.71302e-06
-4.6509e-06
1.64679e-05
1.53336e-05
-2.63207e-09
1.53345e-05
-7.37149e-09
1.53358e-05
-1.1824e-08
1.53374e-05
-1.62494e-08
1.53394e-05
-2.09656e-08
1.53417e-05
-2.64301e-08
1.53443e-05
-3.3237e-08
1.53472e-05
-4.20178e-08
1.53507e-05
-5.33434e-08
1.53547e-05
-6.77119e-08
1.53594e-05
-8.56159e-08
1.53649e-05
-1.07635e-07
1.53714e-05
-1.34507e-07
1.53792e-05
-1.67187e-07
1.53884e-05
-2.06891e-07
1.53994e-05
-2.55158e-07
1.54124e-05
-3.13917e-07
1.5428e-05
-3.85586e-07
1.54466e-05
-4.73192e-07
1.54688e-05
-5.80513e-07
1.54952e-05
-7.12271e-07
1.55267e-05
-8.74367e-07
1.55642e-05
-1.07421e-06
1.56089e-05
-1.32114e-06
1.5662e-05
-1.62707e-06
1.57254e-05
-2.00724e-06
1.58011e-05
-2.48161e-06
1.5893e-05
-3.07721e-06
1.60042e-05
-3.82422e-06
-4.80098e-06
1.61543e-05
1.53336e-05
-2.87614e-09
1.53343e-05
-8.07712e-09
1.53354e-05
-1.29292e-08
1.53368e-05
-1.76758e-08
1.53385e-05
-2.2654e-08
1.53404e-05
-2.83611e-08
1.53426e-05
-3.54238e-08
1.53451e-05
-4.44942e-08
1.53479e-05
-5.61608e-08
1.53511e-05
-7.094e-08
1.53549e-05
-8.93419e-08
1.53592e-05
-1.11961e-07
1.53642e-05
-1.39553e-07
1.53701e-05
-1.73093e-07
1.53771e-05
-2.13822e-07
1.53852e-05
-2.63306e-07
1.53948e-05
-3.23509e-07
1.54061e-05
-3.96884e-07
1.54194e-05
-4.86494e-07
1.54351e-05
-5.96157e-07
1.54534e-05
-7.30631e-07
1.54749e-05
-8.95848e-07
1.54999e-05
-1.09924e-06
1.5529e-05
-1.35016e-06
1.55624e-05
-1.66052e-06
1.56008e-05
-2.04559e-06
1.56445e-05
-2.52535e-06
1.56948e-05
-3.12752e-06
1.57518e-05
-3.88126e-06
-4.87709e-06
1.5828e-05
1.53335e-05
-3.07833e-09
1.53341e-05
-8.66511e-09
1.5335e-05
-1.38536e-08
1.53362e-05
-1.887e-08
1.53376e-05
-2.40613e-08
1.53392e-05
-2.99529e-08
1.5341e-05
-3.71977e-08
1.5343e-05
-4.64628e-08
1.53452e-05
-5.83476e-08
1.53476e-05
-7.33802e-08
1.53504e-05
-9.20821e-08
1.53534e-05
-1.15057e-07
1.5357e-05
-1.43069e-07
1.5361e-05
-1.77104e-07
1.53656e-05
-2.18412e-07
1.53708e-05
-2.6857e-07
1.53769e-05
-3.2955e-07
1.53838e-05
-4.03812e-07
1.53917e-05
-4.94418e-07
1.54007e-05
-6.05174e-07
1.54109e-05
-7.40808e-07
1.54223e-05
-9.07199e-07
1.54347e-05
-1.11168e-06
1.5448e-05
-1.36344e-06
1.54616e-05
-1.67417e-06
1.54748e-05
-2.0588e-06
1.54863e-05
-2.53683e-06
1.54945e-05
-3.13575e-06
1.54964e-05
-3.88307e-06
-4.87639e-06
1.54957e-05
1.53335e-05
-3.24235e-09
1.5334e-05
-9.1456e-09
1.53347e-05
-1.46096e-08
1.53357e-05
-1.98416e-08
1.53368e-05
-2.51924e-08
1.53381e-05
-3.12074e-08
1.53395e-05
-3.85579e-08
1.53409e-05
-4.79199e-08
1.53425e-05
-5.98971e-08
1.53441e-05
-7.50229e-08
1.53458e-05
-9.38242e-08
1.53477e-05
-1.16907e-07
1.53497e-05
-1.45038e-07
1.53518e-05
-1.79197e-07
1.5354e-05
-2.20635e-07
1.53563e-05
-2.7092e-07
1.53588e-05
-3.3201e-07
1.53613e-05
-4.06341e-07
1.53638e-05
-4.96937e-07
1.53662e-05
-6.07546e-07
1.53682e-05
-7.42802e-07
1.53694e-05
-9.08444e-07
1.53694e-05
-1.11159e-06
1.5367e-05
-1.36112e-06
1.53611e-05
-1.66823e-06
1.53495e-05
-2.04721e-06
1.53292e-05
-2.51652e-06
1.52959e-05
-3.10247e-06
1.5243e-05
-3.83016e-06
-4.7986e-06
1.51652e-05
1.53335e-05
-3.37185e-09
1.53338e-05
-9.52878e-09
1.53344e-05
-1.52102e-08
1.53352e-05
-2.06021e-08
1.53361e-05
-2.60554e-08
1.5337e-05
-3.21298e-08
1.53379e-05
-3.95082e-08
1.53389e-05
-4.88678e-08
1.53398e-05
-6.08099e-08
1.53406e-05
-7.58674e-08
1.53414e-05
-9.45665e-08
1.5342e-05
-1.1751e-07
1.53424e-05
-1.45456e-07
1.53426e-05
-1.79373e-07
1.53424e-05
-2.20494e-07
1.53419e-05
-2.70362e-07
1.53408e-05
-3.309e-07
1.53389e-05
-4.04492e-07
1.53361e-05
-4.94089e-07
1.53319e-05
-6.03335e-07
1.53258e-05
-7.36713e-07
1.53171e-05
-8.99742e-07
1.53047e-05
-1.09922e-06
1.52872e-05
-1.34356e-06
1.52622e-05
-1.64328e-06
1.52266e-05
-2.01165e-06
1.51757e-05
-2.46562e-06
1.51026e-05
-3.02936e-06
1.49972e-05
-3.72477e-06
-4.64636e-06
1.4845e-05
1.53334e-05
-3.47084e-09
1.53337e-05
-9.82597e-09
1.53342e-05
-1.56703e-08
1.53348e-05
-2.11654e-08
1.53354e-05
-2.6661e-08
1.5336e-05
-3.27291e-08
1.53365e-05
-4.00569e-08
1.5337e-05
-4.93143e-08
1.53372e-05
-6.10935e-08
1.53373e-05
-7.59214e-08
1.5337e-05
-9.43183e-08
1.53364e-05
-1.16877e-07
1.53353e-05
-1.44338e-07
1.53336e-05
-1.7765e-07
1.53311e-05
-2.18013e-07
1.53277e-05
-2.66931e-07
1.5323e-05
-3.26268e-07
1.53169e-05
-3.98333e-07
1.53087e-05
-4.85972e-07
1.52981e-05
-5.92679e-07
1.52841e-05
-7.22738e-07
1.52658e-05
-8.81376e-07
1.52415e-05
-1.07498e-06
1.52093e-05
-1.31138e-06
1.51662e-05
-1.60018e-06
1.5108e-05
-1.9534e-06
1.50284e-05
-2.386e-06
1.49182e-05
-2.91919e-06
1.47643e-05
-3.57088e-06
-4.42547e-06
1.45434e-05
1.53334e-05
-3.54409e-09
1.53336e-05
-1.00505e-08
1.5334e-05
-1.60072e-08
1.53344e-05
-2.15477e-08
1.53347e-05
-2.70229e-08
1.5335e-05
-3.30175e-08
1.53352e-05
-4.02165e-08
1.53351e-05
-4.92725e-08
1.53348e-05
-6.0762e-08
1.53341e-05
-7.52015e-08
1.53328e-05
-9.30997e-08
1.5331e-05
-1.15032e-07
1.53284e-05
-1.41717e-07
1.53248e-05
-1.74068e-07
1.532e-05
-2.13245e-07
1.53138e-05
-2.60693e-07
1.53057e-05
-3.18203e-07
1.52954e-05
-3.87982e-07
1.52821e-05
-4.7274e-07
1.52653e-05
-5.7579e-07
1.52437e-05
-7.01165e-07
1.52161e-05
-8.53747e-07
1.51805e-05
-1.03944e-06
1.51345e-05
-1.26535e-06
1.50744e-05
-1.54009e-06
1.49951e-05
-1.87415e-06
1.48893e-05
-2.28017e-06
1.47458e-05
-2.77569e-06
1.4549e-05
-3.37407e-06
-4.14472e-06
1.42682e-05
1.53334e-05
-3.59759e-09
1.53336e-05
-1.02192e-08
1.53338e-05
-1.62421e-08
1.5334e-05
-2.17679e-08
1.53341e-05
-2.71569e-08
1.53341e-05
-3.30107e-08
1.53339e-05
-4.00038e-08
1.53334e-05
-4.87607e-08
1.53325e-05
-5.98361e-08
1.5331e-05
-7.37322e-08
1.53289e-05
-9.09407e-08
1.53258e-05
-1.12014e-07
1.53218e-05
-1.37638e-07
1.53164e-05
-1.68687e-07
1.53094e-05
-2.06265e-07
1.53005e-05
-2.51747e-07
1.52891e-05
-3.0683e-07
1.52747e-05
-3.73599e-07
1.52566e-05
-4.54603e-07
1.52337e-05
-5.52943e-07
1.52049e-05
-6.72362e-07
1.51685e-05
-8.17351e-07
1.51223e-05
-9.93265e-07
1.50634e-05
-1.20645e-06
1.49877e-05
-1.46438e-06
1.48895e-05
-1.77589e-06
1.47604e-05
-2.1511e-06
1.45881e-05
-2.6034e-06
1.43553e-05
-3.14126e-06
-3.81544e-06
1.4026e-05
1.53334e-05
-3.63926e-09
1.53335e-05
-1.03534e-08
1.53337e-05
-1.64004e-08
1.53337e-05
-2.18473e-08
1.53337e-05
-2.7081e-08
1.53334e-05
-3.27279e-08
1.53328e-05
-3.94401e-08
1.53319e-05
-4.78018e-08
1.53304e-05
-5.83425e-08
1.53282e-05
-7.15461e-08
1.53251e-05
-8.78817e-08
1.5321e-05
-1.07872e-07
1.53155e-05
-1.32165e-07
1.53084e-05
-1.61585e-07
1.52993e-05
-1.97171e-07
1.52878e-05
-2.40215e-07
1.52733e-05
-2.92304e-07
1.5255e-05
-3.55383e-07
1.52323e-05
-4.31818e-07
1.52038e-05
-5.24472e-07
1.51682e-05
-6.36768e-07
1.51236e-05
-7.72775e-07
1.50676e-05
-9.37263e-07
1.49969e-05
-1.13577e-06
1.49071e-05
-1.37459e-06
1.47921e-05
-1.66087e-06
1.46432e-05
-2.00212e-06
1.44471e-05
-2.40739e-06
1.41862e-05
-2.88026e-06
-3.45079e-06
1.38215e-05
1.53334e-05
-3.67998e-09
1.53335e-05
-1.04823e-08
1.53336e-05
-1.65123e-08
1.53336e-05
-2.18094e-08
1.53333e-05
-2.68191e-08
1.53328e-05
-3.21934e-08
1.53319e-05
-3.85465e-08
1.53305e-05
-4.64189e-08
1.53285e-05
-5.63124e-08
1.53256e-05
-6.86841e-08
1.53217e-05
-8.39732e-08
1.53165e-05
-1.02669e-07
1.53097e-05
-1.25375e-07
1.5301e-05
-1.52858e-07
1.52899e-05
-1.86083e-07
1.52759e-05
-2.26247e-07
1.52584e-05
-2.74814e-07
1.52366e-05
-3.33572e-07
1.52095e-05
-4.04687e-07
1.51758e-05
-4.90761e-07
1.51339e-05
-5.94881e-07
1.50818e-05
-7.2067e-07
1.50168e-05
-8.723e-07
1.49355e-05
-1.05449e-06
1.48333e-05
-1.27239e-06
1.47039e-05
-1.53145e-06
1.45385e-05
-1.8367e-06
1.43241e-05
-2.19297e-06
1.40431e-05
-2.5993e-06
-3.06475e-06
1.36571e-05
1.53334e-05
-3.73567e-09
1.53336e-05
-1.06454e-08
1.53337e-05
-1.66156e-08
1.53335e-05
-2.16748e-08
1.53331e-05
-2.63863e-08
1.53323e-05
-3.14303e-08
1.53311e-05
-3.73567e-08
1.53294e-05
-4.46528e-08
1.53268e-05
-5.37871e-08
1.53234e-05
-6.51909e-08
1.53186e-05
-7.92713e-08
1.53125e-05
-9.64756e-08
1.53044e-05
-1.17357e-07
1.52942e-05
-1.42617e-07
1.52813e-05
-1.7314e-07
1.5265e-05
-2.10015e-07
1.52448e-05
-2.54573e-07
1.52196e-05
-3.08433e-07
1.51885e-05
-3.73546e-07
1.515e-05
-4.52237e-07
1.51023e-05
-5.47246e-07
1.50434e-05
-6.61741e-07
1.49704e-05
-7.993e-07
1.48798e-05
-9.63847e-07
1.47668e-05
-1.15944e-06
1.46254e-05
-1.38998e-06
1.44469e-05
-1.65827e-06
1.42193e-05
-1.96531e-06
1.39263e-05
-2.30636e-06
-2.67107e-06
1.35326e-05
1.53334e-05
-3.83053e-09
1.53337e-05
-1.08993e-08
1.53338e-05
-1.67521e-08
1.53336e-05
-2.14702e-08
1.5333e-05
-2.58101e-08
1.53321e-05
-3.04679e-08
1.53306e-05
-3.59e-08
1.53285e-05
-4.25327e-08
1.53255e-05
-5.08081e-08
1.53215e-05
-6.11234e-08
1.5316e-05
-7.38442e-08
1.53089e-05
-8.93743e-08
1.52998e-05
-1.08212e-07
1.52882e-05
-1.30988e-07
1.52735e-05
-1.58497e-07
1.52552e-05
-1.91714e-07
1.52325e-05
-2.31825e-07
1.52043e-05
-2.80267e-07
1.51695e-05
-3.38766e-07
1.51266e-05
-4.09365e-07
1.50738e-05
-4.94446e-07
1.50088e-05
-5.96726e-07
1.49287e-05
-7.19211e-07
1.483e-05
-8.65081e-07
1.47079e-05
-1.03741e-06
1.45567e-05
-1.23874e-06
1.43685e-05
-1.47004e-06
1.41323e-05
-1.72916e-06
1.38346e-05
-2.00865e-06
-2.28209e-06
1.34456e-05
1.53335e-05
-4.00473e-09
1.53339e-05
-1.13245e-08
1.53341e-05
-1.69649e-08
1.53339e-05
-2.12143e-08
1.53332e-05
-2.51209e-08
1.53321e-05
-2.93398e-08
1.53304e-05
-3.42056e-08
1.53279e-05
-4.0094e-08
1.53246e-05
-4.742e-08
1.532e-05
-5.65364e-08
1.53139e-05
-6.77624e-08
1.5306e-05
-8.1455e-08
1.52958e-05
-9.80526e-08
1.52829e-05
-1.18111e-07
1.52668e-05
-1.42328e-07
1.52466e-05
-1.71557e-07
1.52216e-05
-2.0683e-07
1.51907e-05
-2.49397e-07
1.51527e-05
-3.00747e-07
1.5106e-05
-3.62637e-07
1.50486e-05
-4.37091e-07
1.49783e-05
-5.26389e-07
1.48921e-05
-6.32994e-07
1.47864e-05
-7.5941e-07
1.46569e-05
-9.07864e-07
1.44979e-05
-1.0798e-06
1.43027e-05
-1.27482e-06
1.40621e-05
-1.4885e-06
1.37655e-05
-1.71205e-06
-1.90775e-06
1.33911e-05
1.53337e-05
-4.33218e-09
1.53344e-05
-1.2036e-08
1.53347e-05
-1.72812e-08
1.53344e-05
-2.09235e-08
1.53336e-05
-2.4359e-08
1.53324e-05
-2.80869e-08
1.53305e-05
-3.23135e-08
1.53278e-05
-3.73835e-08
1.5324e-05
-4.36802e-08
1.5319e-05
-5.1497e-08
1.53123e-05
-6.11069e-08
1.53037e-05
-7.28178e-08
1.52927e-05
-8.70044e-08
1.52787e-05
-1.04139e-07
1.52612e-05
-1.2482e-07
1.52394e-05
-1.49771e-07
1.52124e-05
-1.79867e-07
1.51792e-05
-2.16161e-07
1.51384e-05
-2.59905e-07
1.50883e-05
-3.12561e-07
1.5027e-05
-3.75804e-07
1.49521e-05
-4.51492e-07
1.48607e-05
-5.41587e-07
1.47493e-05
-6.47996e-07
1.46137e-05
-7.72256e-07
1.44488e-05
-9.14982e-07
1.4249e-05
-1.07494e-06
1.40068e-05
-1.24636e-06
1.37154e-05
-1.42067e-06
-1.55475e-06
1.33624e-05
1.5334e-05
-4.95519e-09
1.53351e-05
-1.32071e-08
1.53355e-05
-1.76949e-08
1.53352e-05
-2.06037e-08
1.53344e-05
-2.35475e-08
1.5333e-05
-2.67223e-08
1.5331e-05
-3.0244e-08
1.5328e-05
-3.44389e-08
1.5324e-05
-3.9643e-08
1.53186e-05
-4.60733e-08
1.53114e-05
-5.39662e-08
1.53022e-05
-6.35666e-08
1.52904e-05
-7.51954e-08
1.52755e-05
-8.92361e-08
1.52568e-05
-1.06176e-07
1.52337e-05
-1.26606e-07
1.5205e-05
-1.51239e-07
1.51698e-05
-1.80928e-07
1.51266e-05
-2.16683e-07
1.50737e-05
-2.59676e-07
1.50091e-05
-3.11237e-07
1.49305e-05
-3.72822e-07
1.48348e-05
-4.45937e-07
1.47188e-05
-5.31976e-07
1.45785e-05
-6.31947e-07
1.44094e-05
-7.45896e-07
1.42068e-05
-8.72318e-07
1.39652e-05
-1.00483e-06
1.36817e-05
-1.13715e-06
-1.22573e-06
1.33527e-05
1.53345e-05
-6.13085e-09
1.53364e-05
-1.50591e-08
1.53369e-05
-1.8211e-08
1.53366e-05
-2.03445e-08
1.53358e-05
-2.27511e-08
1.53344e-05
-2.52727e-08
1.53322e-05
-2.8026e-08
1.5329e-05
-3.13014e-08
1.53247e-05
-3.53658e-08
1.5319e-05
-4.03296e-08
1.53115e-05
-4.64377e-08
1.53017e-05
-5.38221e-08
1.52893e-05
-6.27734e-08
1.52736e-05
-7.35742e-08
1.52541e-05
-8.66054e-08
1.52298e-05
-1.02323e-07
1.51998e-05
-1.21272e-07
1.5163e-05
-1.44102e-07
1.51179e-05
-1.71578e-07
1.50628e-05
-2.04585e-07
1.49957e-05
-2.4412e-07
1.49141e-05
-2.91264e-07
1.48153e-05
-3.47111e-07
1.4696e-05
-4.12633e-07
1.45525e-05
-4.88468e-07
1.43809e-05
-5.74365e-07
1.41777e-05
-6.69062e-07
1.39386e-05
-7.65786e-07
1.36652e-05
-8.63677e-07
-9.20086e-07
1.33595e-05
1.53356e-05
-8.3665e-09
1.5338e-05
-1.75223e-08
1.53386e-05
-1.8741e-08
1.53385e-05
-2.02588e-08
1.53377e-05
-2.20004e-08
1.53362e-05
-2.37689e-08
1.53339e-05
-2.57236e-08
1.53307e-05
-2.8036e-08
1.53262e-05
-3.09291e-08
1.53202e-05
-3.43417e-08
1.53124e-05
-3.86114e-08
1.53023e-05
-4.36872e-08
1.52894e-05
-4.98881e-08
1.52732e-05
-5.73496e-08
1.52529e-05
-6.63462e-08
1.52278e-05
-7.72023e-08
1.51968e-05
-9.03023e-08
1.51588e-05
-1.06093e-07
1.51123e-05
-1.25098e-07
1.50557e-05
-1.47925e-07
1.49868e-05
-1.75255e-07
1.49034e-05
-2.0783e-07
1.48026e-05
-2.46395e-07
1.46816e-05
-2.91607e-07
1.4537e-05
-3.43875e-07
1.43656e-05
-4.02919e-07
1.41645e-05
-4.68031e-07
1.39306e-05
-5.3183e-07
1.36668e-05
-5.99922e-07
-6.2561e-07
1.33724e-05
1.53392e-05
-1.42165e-08
1.53417e-05
-1.99962e-08
1.53421e-05
-1.91463e-08
1.53416e-05
-1.98357e-08
1.53405e-05
-2.08459e-08
1.53385e-05
-2.17694e-08
1.53355e-05
-2.27618e-08
1.53314e-05
-2.394e-08
1.5326e-05
-2.54534e-08
1.53188e-05
-2.72029e-08
1.53097e-05
-2.94534e-08
1.52981e-05
-3.20901e-08
1.52835e-05
-3.5342e-08
1.52654e-05
-3.92618e-08
1.52431e-05
-4.40097e-08
1.52157e-05
-4.97659e-08
1.51821e-05
-5.67443e-08
1.51412e-05
-6.5195e-08
1.50915e-05
-7.54129e-08
1.50313e-05
-8.77408e-08
1.49586e-05
-1.02563e-07
1.48711e-05
-1.20288e-07
1.4766e-05
-1.4132e-07
1.46404e-05
-1.65986e-07
1.4491e-05
-1.94433e-07
1.43143e-05
-2.26283e-07
1.41068e-05
-2.60471e-07
1.38683e-05
-2.93387e-07
1.35958e-05
-3.27418e-07
-2.87901e-07
1.32581e-05
1.53191e-05
1.52991e-05
1.528e-05
1.52601e-05
1.52393e-05
1.52175e-05
1.51948e-05
1.51708e-05
1.51454e-05
1.51182e-05
1.50887e-05
1.50566e-05
1.50213e-05
1.4982e-05
1.4938e-05
1.48882e-05
1.48315e-05
1.47663e-05
1.46909e-05
1.46031e-05
1.45006e-05
1.43803e-05
1.4239e-05
1.4073e-05
1.38786e-05
1.36523e-05
1.33918e-05
1.30984e-05
1.2771e-05
1.24831e-05
1.76644e-05
-8.23301e-06
8.4651e-06
1.74423e-05
-8.3915e-06
8.61364e-06
1.71794e-05
-8.54471e-06
8.80757e-06
1.6879e-05
-8.68627e-06
8.98673e-06
1.65486e-05
-8.82722e-06
9.15759e-06
1.61956e-05
-8.97268e-06
9.32564e-06
1.58245e-05
-9.12439e-06
9.49552e-06
1.54378e-05
-9.28334e-06
9.67001e-06
1.50369e-05
-9.45031e-06
9.8512e-06
1.4622e-05
-9.62573e-06
1.00406e-05
1.41925e-05
-9.80976e-06
1.02393e-05
1.37474e-05
-1.00026e-05
1.04478e-05
1.32855e-05
-1.02049e-05
1.06667e-05
1.28059e-05
-1.04173e-05
1.0897e-05
1.23075e-05
-1.06413e-05
1.11397e-05
1.17891e-05
-1.08784e-05
1.13968e-05
1.12495e-05
-1.11306e-05
1.16702e-05
1.06867e-05
-1.14001e-05
1.19628e-05
1.00988e-05
-1.16899e-05
1.22779e-05
9.48278e-06
-1.20035e-05
1.26195e-05
8.83521e-06
-1.23453e-05
1.29929e-05
8.15143e-06
-1.27208e-05
1.34046e-05
7.42545e-06
-1.31368e-05
1.38627e-05
6.64941e-06
-1.36023e-05
1.43783e-05
5.81223e-06
-1.41277e-05
1.49648e-05
4.89997e-06
-1.47295e-05
1.56418e-05
3.90238e-06
-1.54192e-05
1.64168e-05
2.72519e-06
-1.62621e-05
1.74392e-05
1.5472e-06
-1.70734e-05
1.82514e-05
-1.86429e-05
2.01901e-05
1.78586e-05
-7.96635e-06
1.75507e-05
-8.08361e-06
1.72133e-05
-8.20735e-06
1.68592e-05
-8.33216e-06
1.64936e-05
-8.4616e-06
1.61187e-05
-8.59779e-06
1.5735e-05
-8.74067e-06
1.53417e-05
-8.89003e-06
1.49374e-05
-9.04597e-06
1.45203e-05
-9.20869e-06
1.40891e-05
-9.37852e-06
1.36424e-05
-9.55598e-06
1.31794e-05
-9.74186e-06
1.26992e-05
-9.93714e-06
1.22009e-05
-1.0143e-05
1.16833e-05
-1.03608e-05
1.1145e-05
-1.05923e-05
1.05842e-05
-1.08393e-05
9.99853e-06
-1.11043e-05
9.3852e-06
-1.13902e-05
8.74059e-06
-1.17007e-05
8.06009e-06
-1.20403e-05
7.33774e-06
-1.24144e-05
6.56577e-06
-1.28303e-05
5.73395e-06
-1.32958e-05
4.82898e-06
-1.38245e-05
3.83302e-06
-1.44232e-05
2.7058e-06
-1.51348e-05
1.49585e-06
-1.58635e-05
-1.71471e-05
1.77492e-05
-7.65103e-06
1.7418e-05
-7.75232e-06
1.70733e-05
-7.86268e-06
1.67206e-05
-7.97945e-06
1.63605e-05
-8.10156e-06
1.59915e-05
-8.22874e-06
1.56118e-05
-8.36097e-06
1.52202e-05
-8.49839e-06
1.48156e-05
-8.64137e-06
1.43972e-05
-8.79036e-06
1.39646e-05
-8.94588e-06
1.35171e-05
-9.10852e-06
1.30542e-05
-9.27895e-06
1.25751e-05
-9.45799e-06
1.20786e-05
-9.64657e-06
1.15636e-05
-9.8458e-06
1.10284e-05
-1.0057e-05
1.04711e-05
-1.02819e-05
9.88928e-06
-1.05225e-05
9.28012e-06
-1.0781e-05
8.63993e-06
-1.10605e-05
7.96408e-06
-1.13644e-05
7.24668e-06
-1.1697e-05
6.48009e-06
-1.20637e-05
5.65451e-06
-1.24703e-05
4.75687e-06
-1.29269e-05
3.77014e-06
-1.34365e-05
2.66782e-06
-1.40325e-05
1.45165e-06
-1.46473e-05
-1.56954e-05
1.76459e-05
-7.32478e-06
1.73101e-05
-7.41653e-06
1.69637e-05
-7.5163e-06
1.66081e-05
-7.62386e-06
1.62433e-05
-7.7367e-06
1.58681e-05
-7.85355e-06
1.54818e-05
-7.97466e-06
1.5084e-05
-8.10059e-06
1.46744e-05
-8.23174e-06
1.42524e-05
-8.36842e-06
1.38176e-05
-8.51101e-06
1.3369e-05
-8.65998e-06
1.29059e-05
-8.81585e-06
1.24272e-05
-8.97929e-06
1.19317e-05
-9.15109e-06
1.14181e-05
-9.33218e-06
1.08847e-05
-9.52367e-06
1.03297e-05
-9.72688e-06
9.75057e-06
-9.94337e-06
9.14449e-06
-1.0175e-05
8.50782e-06
-1.04238e-05
7.83601e-06
-1.06926e-05
7.12333e-06
-1.09843e-05
6.36249e-06
-1.13029e-05
5.54419e-06
-1.1652e-05
4.65622e-06
-1.20389e-05
3.6831e-06
-1.24634e-05
2.60367e-06
-1.29531e-05
1.40268e-06
-1.34463e-05
-1.42928e-05
1.75103e-05
-6.98987e-06
1.71671e-05
-7.07333e-06
1.68145e-05
-7.16367e-06
1.64529e-05
-7.26233e-06
1.60825e-05
-7.36629e-06
1.57026e-05
-7.47367e-06
1.53127e-05
-7.58473e-06
1.49122e-05
-7.70014e-06
1.45007e-05
-7.82021e-06
1.40774e-05
-7.94515e-06
1.36417e-05
-8.07526e-06
1.31926e-05
-8.21092e-06
1.27294e-05
-8.35263e-06
1.2251e-05
-8.50092e-06
1.17564e-05
-8.65643e-06
1.12441e-05
-8.81989e-06
1.07126e-05
-8.99214e-06
1.01598e-05
-9.17416e-06
9.58356e-06
-9.36709e-06
8.98084e-06
-9.57224e-06
8.34812e-06
-9.79112e-06
7.681e-06
-1.00255e-05
6.97403e-06
-1.02774e-05
6.22029e-06
-1.05491e-05
5.41114e-06
-1.08428e-05
4.53536e-06
-1.11632e-05
3.57907e-06
-1.15071e-05
2.52335e-06
-1.18974e-05
1.3488e-06
-1.22718e-05
-1.2944e-05
1.73455e-05
-6.64798e-06
1.69961e-05
-6.724e-06
1.66384e-05
-6.80593e-06
1.62723e-05
-6.89627e-06
1.58978e-05
-6.99175e-06
1.55142e-05
-7.09009e-06
1.5121e-05
-7.19151e-06
1.47176e-05
-7.29676e-06
1.43036e-05
-7.40615e-06
1.38782e-05
-7.51979e-06
1.34408e-05
-7.63791e-06
1.29908e-05
-7.76085e-06
1.25271e-05
-7.88898e-06
1.20489e-05
-8.0227e-06
1.15549e-05
-8.16248e-06
1.10439e-05
-8.30883e-06
1.05141e-05
-8.46235e-06
9.96363e-06
-8.6237e-06
9.39018e-06
-8.79364e-06
8.79094e-06
-8.97299e-06
8.16249e-06
-9.16267e-06
7.50065e-06
-9.36367e-06
6.80028e-06
-9.57699e-06
6.05496e-06
-9.80382e-06
5.25678e-06
-1.00446e-05
4.39558e-06
-1.0302e-05
3.45905e-06
-1.05706e-05
2.43035e-06
-1.08687e-05
1.29043e-06
-1.11319e-05
-1.16535e-05
1.71511e-05
-6.29986e-06
1.67961e-05
-6.36906e-06
1.64335e-05
-6.44325e-06
1.60629e-05
-6.52574e-06
1.56843e-05
-6.61306e-06
1.52969e-05
-6.70276e-06
1.49004e-05
-6.79502e-06
1.44943e-05
-6.89062e-06
1.4078e-05
-6.98984e-06
1.36509e-05
-7.09273e-06
1.32124e-05
-7.19942e-06
1.27617e-05
-7.31015e-06
1.2298e-05
-7.42521e-06
1.18201e-05
-7.54485e-06
1.1327e-05
-7.66939e-06
1.08173e-05
-7.79914e-06
1.02895e-05
-7.93448e-06
9.74152e-06
-8.07577e-06
9.17128e-06
-8.2234e-06
8.57605e-06
-8.37776e-06
7.95259e-06
-8.53922e-06
7.297e-06
-8.70808e-06
6.60451e-06
-8.8845e-06
5.86925e-06
-9.06857e-06
5.08412e-06
-9.25949e-06
4.24002e-06
-9.45786e-06
3.32628e-06
-9.65683e-06
2.32811e-06
-9.8705e-06
1.22903e-06
-1.00328e-05
-1.04245e-05
1.69277e-05
-5.9461e-06
1.65676e-05
-6.00902e-06
1.62004e-05
-6.07609e-06
1.58258e-05
-6.15113e-06
1.54435e-05
-6.23068e-06
1.50529e-05
-6.31216e-06
1.46536e-05
-6.39573e-06
1.42451e-05
-6.48215e-06
1.38269e-05
-6.57167e-06
1.33985e-05
-6.66426e-06
1.2959e-05
-6.75998e-06
1.25078e-05
-6.85898e-06
1.20441e-05
-6.96145e-06
1.15668e-05
-7.06752e-06
1.10747e-05
-7.17736e-06
1.05667e-05
-7.29109e-06
1.00411e-05
-7.40887e-06
9.4961e-06
-7.53079e-06
8.92963e-06
-7.65693e-06
8.33913e-06
-7.78726e-06
7.72158e-06
-7.92167e-06
7.07337e-06
-8.05987e-06
6.39017e-06
-8.2013e-06
5.66671e-06
-8.34511e-06
4.89669e-06
-8.48947e-06
4.07213e-06
-8.63331e-06
3.184e-06
-8.7687e-06
2.21947e-06
-8.90597e-06
1.16531e-06
-8.97863e-06
-9.25919e-06
1.66765e-05
-5.58726e-06
1.63118e-05
-5.64439e-06
1.59406e-05
-5.70489e-06
1.55624e-05
-5.7729e-06
1.51768e-05
-5.84504e-06
1.47833e-05
-5.91871e-06
1.43816e-05
-5.99402e-06
1.39712e-05
-6.0717e-06
1.35514e-05
-6.15196e-06
1.31219e-05
-6.23471e-06
1.26819e-05
-6.31993e-06
1.22306e-05
-6.4077e-06
1.17672e-05
-6.49809e-06
1.12908e-05
-6.59114e-06
1.08003e-05
-6.68684e-06
1.02944e-05
-6.78519e-06
9.77164e-06
-6.8861e-06
9.23029e-06
-6.98944e-06
8.66837e-06
-7.095e-06
8.08352e-06
-7.20241e-06
7.47298e-06
-7.31113e-06
6.83347e-06
-7.42037e-06
6.16111e-06
-7.52894e-06
5.45124e-06
-7.63524e-06
4.69838e-06
-7.73661e-06
3.89568e-06
-7.83061e-06
3.03566e-06
-7.90868e-06
2.10733e-06
-7.97765e-06
1.10117e-06
-7.97247e-06
-8.15802e-06
1.63997e-05
-5.22392e-06
1.60311e-05
-5.27574e-06
1.56564e-05
-5.33019e-06
1.5275e-05
-5.39156e-06
1.48866e-05
-5.45665e-06
1.44908e-05
-5.5229e-06
1.40872e-05
-5.59037e-06
1.36752e-05
-5.65975e-06
1.32545e-05
-5.73119e-06
1.28243e-05
-5.80456e-06
1.23842e-05
-5.87976e-06
1.19333e-05
-5.9568e-06
1.14708e-05
-6.03565e-06
1.09959e-05
-6.11623e-06
1.05075e-05
-6.19842e-06
1.00043e-05
-6.28205e-06
9.48511e-06
-6.36687e-06
8.94819e-06
-6.45253e-06
8.39174e-06
-6.53855e-06
7.81361e-06
-6.62428e-06
7.21129e-06
-6.70882e-06
6.58187e-06