/*--------------------------------*- C++ -*----------------------------------*\
  =========                 |
  \\      /  F ield         | OpenFOAM: The Open Source CFD Toolbox
   \\    /   O peration     | Website:  https://openfoam.org
    \\  /    A nd           | Version:  11
     \\/     M anipulation  |
\*---------------------------------------------------------------------------*/
FoamFile
{
    format      ascii;
    class       surfaceScalarField;
    location    "9";
    object      phi;
}
// * * * * * * * * * * * * * * * * * * * * * * * * * * * * * * * * * * * * * //

dimensions      [0 3 -1 0 0 0 0];

internalField   nonuniform List<scalar> 
24840
(
1.57973e-05
1.36429e-08
1.57788e-05
1.85337e-08
1.57615e-05
1.72875e-08
1.57443e-05
1.71623e-08
1.57269e-05
1.74799e-08
1.57093e-05
1.75761e-08
1.56918e-05
1.75169e-08
1.56744e-05
1.73973e-08
1.56572e-05
1.72194e-08
1.56402e-05
1.69721e-08
1.56235e-05
1.66521e-08
1.56073e-05
1.62524e-08
1.55915e-05
1.57612e-08
1.55763e-05
1.51634e-08
1.55619e-05
1.44349e-08
1.55484e-05
1.35275e-08
1.5536e-05
1.24172e-08
1.55249e-05
1.10762e-08
1.55155e-05
9.43477e-09
1.55081e-05
7.31494e-09
1.55034e-05
4.74184e-09
1.55018e-05
1.61416e-09
1.55041e-05
-2.26815e-09
1.55111e-05
-7.07088e-09
1.55242e-05
-1.30725e-08
1.55447e-05
-2.04884e-08
1.55748e-05
-3.01387e-08
1.56177e-05
-4.28603e-08
1.56817e-05
-6.40072e-08
-1.38054e-07
1.58197e-05
1.5817e-05
7.59231e-09
1.58208e-05
1.47801e-08
1.58235e-05
1.45964e-08
1.58257e-05
1.49056e-08
1.58278e-05
1.53868e-08
1.58298e-05
1.55466e-08
1.58319e-05
1.54401e-08
1.58341e-05
1.52155e-08
1.58365e-05
1.48678e-08
1.5839e-05
1.43843e-08
1.58419e-05
1.37615e-08
1.58452e-05
1.29837e-08
1.58489e-05
1.20289e-08
1.58532e-05
1.08699e-08
1.58582e-05
9.46748e-09
1.5864e-05
7.7147e-09
1.58709e-05
5.57201e-09
1.58789e-05
2.9807e-09
1.58885e-05
-1.47804e-10
1.59001e-05
-4.20686e-09
1.59139e-05
-9.09111e-09
1.59306e-05
-1.50615e-08
1.59507e-05
-2.2415e-08
1.59751e-05
-3.148e-08
1.60047e-05
-4.26253e-08
1.60407e-05
-5.65602e-08
1.60841e-05
-7.34531e-08
1.61388e-05
-9.76434e-08
1.61967e-05
-1.21875e-07
-1.5738e-07
1.6216e-05
1.58137e-05
4.90507e-09
1.58171e-05
1.13502e-08
1.58193e-05
1.2406e-08
1.58215e-05
1.26529e-08
1.58238e-05
1.31422e-08
1.58259e-05
1.34466e-08
1.5828e-05
1.33339e-08
1.58302e-05
1.30313e-08
1.58325e-05
1.25318e-08
1.58351e-05
1.18238e-08
1.58379e-05
1.09023e-08
1.58412e-05
9.74335e-09
1.58449e-05
8.32596e-09
1.58491e-05
6.62406e-09
1.5854e-05
4.61187e-09
1.58596e-05
2.09579e-09
1.58661e-05
-9.89192e-10
1.58738e-05
-4.67091e-09
1.58829e-05
-9.25916e-09
1.58937e-05
-1.50177e-08
1.59067e-05
-2.20702e-08
1.59224e-05
-3.07254e-08
1.59413e-05
-4.1369e-08
1.59643e-05
-5.44636e-08
1.59922e-05
-7.05473e-08
1.60261e-05
-9.04459e-08
1.60675e-05
-1.14815e-07
1.61153e-05
-1.45439e-07
1.6175e-05
-1.81619e-07
-2.13497e-07
1.62311e-05
1.58125e-05
3.33181e-09
1.58154e-05
8.51616e-09
1.58175e-05
1.02623e-08
1.58195e-05
1.06681e-08
1.58216e-05
1.10768e-08
1.58236e-05
1.14004e-08
1.58257e-05
1.12951e-08
1.58278e-05
1.091e-08
1.58301e-05
1.02537e-08
1.58326e-05
9.32281e-09
1.58353e-05
8.11369e-09
1.58385e-05
6.58692e-09
1.58421e-05
4.72066e-09
1.58462e-05
2.47925e-09
1.5851e-05
-9.19441e-11
1.58564e-05
-3.37317e-09
1.58627e-05
-7.31628e-09
1.58702e-05
-1.21175e-08
1.5879e-05
-1.80774e-08
1.58895e-05
-2.54946e-08
1.59021e-05
-3.46334e-08
1.59172e-05
-4.58716e-08
1.59355e-05
-5.96798e-08
1.59577e-05
-7.66403e-08
1.59846e-05
-9.74546e-08
1.60172e-05
-1.23046e-07
1.60567e-05
-1.5437e-07
1.61037e-05
-1.92427e-07
1.61614e-05
-2.39295e-07
-2.80654e-07
1.62286e-05
1.58119e-05
2.35065e-09
1.58141e-05
6.3835e-09
1.58161e-05
8.29116e-09
1.58179e-05
8.84775e-09
1.58198e-05
9.17939e-09
1.58218e-05
9.41835e-09
1.58237e-05
9.30679e-09
1.58258e-05
8.8364e-09
1.5828e-05
8.02909e-09
1.58305e-05
6.8838e-09
1.58332e-05
5.39238e-09
1.58363e-05
3.522e-09
1.58397e-05
1.24284e-09
1.58437e-05
-1.50307e-09
1.58483e-05
-4.68444e-09
1.58536e-05
-8.62765e-09
1.58597e-05
-1.34134e-08
1.58668e-05
-1.92808e-08
1.58753e-05
-2.65437e-08
1.58854e-05
-3.55496e-08
1.58974e-05
-4.66623e-08
1.59118e-05
-6.03405e-08
1.59293e-05
-7.71475e-08
1.59505e-05
-9.77791e-08
1.59761e-05
-1.23086e-07
1.60072e-05
-1.5411e-07
1.60449e-05
-1.92082e-07
1.60903e-05
-2.37893e-07
1.61457e-05
-2.94708e-07
-3.49679e-07
1.62148e-05
1.58116e-05
1.69195e-09
1.58133e-05
4.75308e-09
1.5815e-05
6.50204e-09
1.58168e-05
7.12619e-09
1.58186e-05
7.39232e-09
1.58204e-05
7.5333e-09
1.58224e-05
7.37481e-09
1.58244e-05
6.82059e-09
1.58265e-05
5.87042e-09
1.58289e-05
4.5209e-09
1.58315e-05
2.75343e-09
1.58345e-05
5.56237e-10
1.58379e-05
-2.10632e-09
1.58417e-05
-5.30496e-09
1.5846e-05
-9.06939e-09
1.58511e-05
-1.36501e-08
1.58569e-05
-1.92291e-08
1.58637e-05
-2.60819e-08
1.58717e-05
-3.45565e-08
1.58812e-05
-4.50543e-08
1.58926e-05
-5.80201e-08
1.59062e-05
-7.39876e-08
1.59227e-05
-9.36065e-08
1.59426e-05
-1.17679e-07
1.59667e-05
-1.47196e-07
1.59959e-05
-1.8335e-07
1.60315e-05
-2.27625e-07
1.60747e-05
-2.81137e-07
1.61276e-05
-3.47574e-07
-4.16943e-07
1.61948e-05
1.58114e-05
1.21215e-09
1.58127e-05
3.47138e-09
1.58143e-05
4.92081e-09
1.58159e-05
5.51856e-09
1.58176e-05
5.72271e-09
1.58194e-05
5.76124e-09
1.58212e-05
5.52344e-09
1.58232e-05
4.87887e-09
1.58252e-05
3.79072e-09
1.58275e-05
2.24748e-09
1.583e-05
2.28426e-10
1.58329e-05
-2.27868e-09
1.58361e-05
-5.30615e-09
1.58397e-05
-8.92273e-09
1.58438e-05
-1.3213e-08
1.58486e-05
-1.83913e-08
1.5854e-05
-2.47032e-08
1.58604e-05
-3.24643e-08
1.58679e-05
-4.20605e-08
1.58768e-05
-5.39402e-08
1.58874e-05
-6.86128e-08
1.59001e-05
-8.66832e-08
1.59154e-05
-1.08886e-07
1.59338e-05
-1.36125e-07
1.59562e-05
-1.69528e-07
1.59833e-05
-2.10453e-07
1.60163e-05
-2.60626e-07
1.60567e-05
-3.21558e-07
1.61063e-05
-3.9716e-07
-4.8063e-07
1.617e-05
1.58113e-05
8.40215e-10
1.58124e-05
2.43623e-09
1.58138e-05
3.53601e-09
1.58152e-05
4.02755e-09
1.58168e-05
4.15387e-09
1.58185e-05
4.08693e-09
1.58203e-05
3.75245e-09
1.58221e-05
3.01081e-09
1.58241e-05
1.79064e-09
1.58263e-05
6.60104e-11
1.58287e-05
-2.18277e-09
1.58314e-05
-4.97195e-09
1.58344e-05
-8.33252e-09
1.58379e-05
-1.23327e-08
1.58417e-05
-1.70906e-08
1.58462e-05
-2.28178e-08
1.58513e-05
-2.97958e-08
1.58572e-05
-3.83764e-08
1.58641e-05
-4.89839e-08
1.58723e-05
-6.21116e-08
1.5882e-05
-7.83259e-08
1.58936e-05
-9.82955e-08
1.59075e-05
-1.22831e-07
1.59243e-05
-1.52933e-07
1.59447e-05
-1.89854e-07
1.59693e-05
-2.35124e-07
1.59994e-05
-2.90701e-07
1.60364e-05
-3.58551e-07
1.60819e-05
-4.42698e-07
-5.39558e-07
1.61409e-05
1.58113e-05
5.38765e-10
1.58121e-05
1.57688e-09
1.58133e-05
2.31962e-09
1.58147e-05
2.6505e-09
1.58162e-05
2.67815e-09
1.58178e-05
2.50558e-09
1.58195e-05
2.06858e-09
1.58212e-05
1.22617e-09
1.58232e-05
-1.18307e-10
1.58252e-05
-2.00822e-09
1.58275e-05
-4.46452e-09
1.583e-05
-7.50485e-09
1.58329e-05
-1.11618e-08
1.5836e-05
-1.55074e-08
1.58396e-05
-2.06772e-08
1.58437e-05
-2.68929e-08
1.58484e-05
-3.44612e-08
1.58538e-05
-4.37664e-08
1.586e-05
-5.52678e-08
1.58674e-05
-6.94986e-08
1.58762e-05
-8.70728e-08
1.58866e-05
-1.08715e-07
1.58991e-05
-1.35304e-07
1.59141e-05
-1.67926e-07
1.59322e-05
-2.07949e-07
1.59541e-05
-2.57069e-07
1.59809e-05
-3.17463e-07
1.60139e-05
-3.91553e-07
1.60546e-05
-4.83428e-07
-5.92676e-07
1.61077e-05
1.58112e-05
2.85287e-10
1.5812e-05
8.44841e-10
1.5813e-05
1.243e-09
1.58143e-05
1.38207e-09
1.58157e-05
1.29207e-09
1.58172e-05
1.01279e-09
1.58188e-05
4.7229e-10
1.58205e-05
-4.7126e-10
1.58223e-05
-1.93223e-09
1.58242e-05
-3.96949e-09
1.58264e-05
-6.60869e-09
1.58288e-05
-9.86838e-09
1.58314e-05
-1.37828e-08
1.58343e-05
-1.84286e-08
1.58376e-05
-2.39525e-08
1.58413e-05
-3.05894e-08
1.58455e-05
-3.86661e-08
1.58503e-05
-4.85933e-08
1.58559e-05
-6.08606e-08
1.58624e-05
-7.60352e-08
1.58701e-05
-9.47715e-08
1.58793e-05
-1.17841e-07
1.58901e-05
-1.46179e-07
1.59032e-05
-1.80948e-07
1.59188e-05
-2.23615e-07
1.59378e-05
-2.76026e-07
1.59609e-05
-3.40555e-07
1.59894e-05
-4.20047e-07
1.60246e-05
-5.18643e-07
-6.3896e-07
1.60709e-05
1.58112e-05
6.51736e-11
1.58118e-05
2.06482e-10
1.58128e-05
2.80674e-10
1.5814e-05
2.13934e-10
1.58153e-05
-8.09402e-12
1.58167e-05
-3.95982e-10
1.58182e-05
-1.03803e-09
1.58198e-05
-2.07946e-09
1.58215e-05
-3.64672e-09
1.58233e-05
-5.81195e-09
1.58253e-05
-8.6069e-09
1.58275e-05
-1.20513e-08
1.58299e-05
-1.61809e-08
1.58326e-05
-2.10771e-08
1.58355e-05
-2.68948e-08
1.58388e-05
-3.38808e-08
1.58425e-05
-4.2378e-08
1.58467e-05
-5.28184e-08
1.58516e-05
-6.57162e-08
1.58572e-05
-8.16659e-08
1.58638e-05
-1.01354e-07
1.58716e-05
-1.25589e-07
1.58807e-05
-1.55352e-07
1.58916e-05
-1.91866e-07
1.59047e-05
-2.3668e-07
1.59204e-05
-2.91762e-07
1.59395e-05
-3.59655e-07
1.59631e-05
-4.43572e-07
1.59921e-05
-5.47684e-07
-6.77401e-07
1.60306e-05
1.58112e-05
-1.30544e-10
1.58117e-05
-3.6087e-10
1.58126e-05
-5.89698e-10
1.58137e-05
-8.65599e-10
1.58149e-05
-1.22772e-09
1.58162e-05
-1.72507e-09
1.58177e-05
-2.46479e-09
1.58192e-05
-3.59764e-09
1.58208e-05
-5.25865e-09
1.58225e-05
-7.53086e-09
1.58243e-05
-1.04525e-08
1.58263e-05
-1.40452e-08
1.58285e-05
-1.83461e-08
1.58309e-05
-2.34399e-08
1.58335e-05
-2.94884e-08
1.58363e-05
-3.67477e-08
1.58395e-05
-4.55731e-08
1.58431e-05
-5.64126e-08
1.58472e-05
-6.97987e-08
1.58519e-05
-8.63466e-08
1.58573e-05
-1.06766e-07
1.58636e-05
-1.31892e-07
1.5871e-05
-1.6274e-07
1.58797e-05
-2.00573e-07
1.589e-05
-2.47003e-07
1.59023e-05
-3.0409e-07
1.59172e-05
-3.74499e-07
1.59354e-05
-4.61737e-07
1.59577e-05
-5.69984e-07
-7.07075e-07
1.59873e-05
1.58111e-05
-3.06463e-10
1.58117e-05
-8.74298e-10
1.58125e-05
-1.38658e-09
1.58135e-05
-1.86963e-09
1.58146e-05
-2.37432e-09
1.58159e-05
-2.97949e-09
1.58172e-05
-3.81116e-09
1.58186e-05
-5.02646e-09
1.58201e-05
-6.76646e-09
1.58217e-05
-9.12283e-09
1.58234e-05
-1.21403e-08
1.58252e-05
-1.58432e-08
1.58271e-05
-2.02696e-08
1.58292e-05
-2.55068e-08
1.58314e-05
-3.17209e-08
1.58339e-05
-3.91748e-08
1.58365e-05
-4.82326e-08
1.58395e-05
-5.93529e-08
1.58428e-05
-7.30803e-08
1.58464e-05
-9.00431e-08
1.58506e-05
-1.10966e-07
1.58555e-05
-1.36699e-07
1.5861e-05
-1.68278e-07
1.58674e-05
-2.0699e-07
1.58749e-05
-2.54481e-07
1.58837e-05
-3.12867e-07
1.58941e-05
-3.84887e-07
1.59066e-05
-4.74245e-07
1.59217e-05
-5.85087e-07
-7.27183e-07
1.59418e-05
1.58111e-05
-4.67496e-10
1.58116e-05
-1.34641e-09
1.58123e-05
-2.12518e-09
1.58133e-05
-2.80982e-09
1.58144e-05
-3.45623e-09
1.58155e-05
-4.16549e-09
1.58168e-05
-5.08118e-09
1.58182e-05
-6.36732e-09
1.58196e-05
-8.16944e-09
1.5821e-05
-1.05859e-08
1.58226e-05
-1.36675e-08
1.58241e-05
-1.74413e-08
1.58258e-05
-2.19461e-08
1.58276e-05
-2.72706e-08
1.58295e-05
-3.35836e-08
1.58314e-05
-4.11517e-08
1.58335e-05
-5.03438e-08
1.58358e-05
-6.16239e-08
1.58383e-05
-7.55424e-08
1.5841e-05
-9.27334e-08
1.58439e-05
-1.13927e-07
1.58472e-05
-1.39978e-07
1.58509e-05
-1.71927e-07
1.58549e-05
-2.11068e-07
1.58595e-05
-2.59052e-07
1.58646e-05
-3.18009e-07
1.58705e-05
-3.90696e-07
1.58771e-05
-4.80904e-07
1.58847e-05
-5.9269e-07
-7.37147e-07
1.58947e-05
1.58111e-05
-6.17709e-10
1.58116e-05
-1.78854e-09
1.58123e-05
-2.81978e-09
1.58131e-05
-3.69809e-09
1.58142e-05
-4.48168e-09
1.58153e-05
-5.28902e-09
1.58165e-05
-6.27908e-09
1.58177e-05
-7.62251e-09
1.5819e-05
-9.46838e-09
1.58204e-05
-1.19202e-08
1.58217e-05
-1.50336e-08
1.58231e-05
-1.88381e-08
1.58246e-05
-2.33731e-08
1.5826e-05
-2.87277e-08
1.58275e-05
-3.50715e-08
1.5829e-05
-4.26725e-08
1.58306e-05
-5.18997e-08
1.58322e-05
-6.32175e-08
1.58338e-05
-7.71756e-08
1.58355e-05
-9.44067e-08
1.58372e-05
-1.15637e-07
1.58389e-05
-1.41717e-07
1.58407e-05
-1.73675e-07
1.58424e-05
-2.1279e-07
1.58441e-05
-2.60694e-07
1.58455e-05
-3.19488e-07
1.58467e-05
-3.91885e-07
1.58475e-05
-4.81645e-07
1.58474e-05
-5.92665e-07
-7.36658e-07
1.58469e-05
1.58111e-05
-7.61044e-10
1.58115e-05
-2.2113e-09
1.58122e-05
-3.48417e-09
1.5813e-05
-4.54681e-09
1.5814e-05
-5.45915e-09
1.58151e-05
-6.35563e-09
1.58162e-05
-7.4093e-09
1.58174e-05
-8.796e-09
1.58186e-05
-1.06666e-08
1.58198e-05
-1.3128e-08
1.5821e-05
-1.624e-08
1.58222e-05
-2.0034e-08
1.58234e-05
-2.45501e-08
1.58245e-05
-2.98771e-08
1.58256e-05
-3.61837e-08
1.58267e-05
-4.37359e-08
1.58277e-05
-5.28993e-08
1.58286e-05
-6.4133e-08
1.58294e-05
-7.79804e-08
1.58301e-05
-9.50649e-08
1.58305e-05
-1.161e-07
1.58307e-05
-1.4192e-07
1.58306e-05
-1.73529e-07
1.583e-05
-2.12172e-07
1.58287e-05
-2.59432e-07
1.58266e-05
-3.17339e-07
1.58232e-05
-3.88503e-07
1.58181e-05
-4.76533e-07
1.58105e-05
-5.85085e-07
-7.25746e-07
1.57996e-05
1.58111e-05
-9.01496e-10
1.58115e-05
-2.6256e-09
1.58122e-05
-4.13241e-09
1.5813e-05
-5.36854e-09
1.58139e-05
-6.39759e-09
1.58149e-05
-7.37205e-09
1.5816e-05
-8.47787e-09
1.58171e-05
-9.89311e-09
1.58182e-05
-1.17681e-08
1.58193e-05
-1.42123e-08
1.58203e-05
-1.72889e-08
1.58213e-05
-2.10313e-08
1.58223e-05
-2.54795e-08
1.58231e-05
-3.07214e-08
1.58239e-05
-3.69232e-08
1.58245e-05
-4.43459e-08
1.58249e-05
-5.33477e-08
1.58252e-05
-6.43777e-08
1.58251e-05
-7.79663e-08
1.58248e-05
-9.47208e-08
1.5824e-05
-1.15334e-07
1.58227e-05
-1.40613e-07
1.58207e-05
-1.71523e-07
1.58178e-05
-2.0926e-07
1.58137e-05
-2.5533e-07
1.5808e-05
-3.11656e-07
1.58002e-05
-3.80684e-07
1.57894e-05
-4.65765e-07
1.57746e-05
-5.70232e-07
-7.0481e-07
1.57536e-05
1.58111e-05
-1.04346e-09
1.58115e-05
-3.04347e-09
1.58122e-05
-4.7797e-09
1.5813e-05
-6.17664e-09
1.58139e-05
-7.30702e-09
1.58149e-05
-8.34629e-09
1.58159e-05
-9.49173e-09
1.58169e-05
-1.09195e-08
1.58179e-05
-1.27774e-08
1.58189e-05
-1.51769e-08
1.58198e-05
-1.81843e-08
1.58206e-05
-2.18343e-08
1.58213e-05
-2.61664e-08
1.58218e-05
-3.12668e-08
1.58222e-05
-3.72974e-08
1.58224e-05
-4.45117e-08
1.58223e-05
-5.32565e-08
1.58218e-05
-6.3966e-08
1.5821e-05
-7.71518e-08
1.58197e-05
-9.33982e-08
1.58177e-05
-1.1337e-07
1.5815e-05
-1.37835e-07
1.58112e-05
-1.67713e-07
1.5806e-05
-2.0413e-07
1.57992e-05
-2.48494e-07
1.57901e-05
-3.02588e-07
1.57781e-05
-3.68648e-07
1.5762e-05
-4.49666e-07
1.57403e-05
-5.4859e-07
-6.7462e-07
1.57102e-05
1.58111e-05
-1.19221e-09
1.58116e-05
-3.47937e-09
1.58122e-05
-5.44352e-09
1.5813e-05
-6.98541e-09
1.58139e-05
-8.19766e-09
1.58149e-05
-9.2867e-09
1.58158e-05
-1.04583e-08
1.58168e-05
-1.18812e-08
1.58177e-05
-1.36996e-08
1.58186e-05
-1.6027e-08
1.58193e-05
-1.89319e-08
1.58199e-05
-2.24494e-08
1.58204e-05
-2.66183e-08
1.58206e-05
-3.15223e-08
1.58206e-05
-3.73176e-08
1.58204e-05
-4.42472e-08
1.58198e-05
-5.26429e-08
1.58187e-05
-6.29193e-08
1.58171e-05
-7.55639e-08
1.58149e-05
-9.11317e-08
1.58117e-05
-1.10251e-07
1.58076e-05
-1.33647e-07
1.5802e-05
-1.62176e-07
1.57948e-05
-1.96885e-07
1.57854e-05
-2.39067e-07
1.57731e-05
-2.90337e-07
1.57571e-05
-3.52683e-07
1.57361e-05
-4.28673e-07
1.57084e-05
-5.20817e-07
-6.36284e-07
1.567e-05
1.58111e-05
-1.35461e-09
1.58116e-05
-3.95184e-09
1.58123e-05
-6.14445e-09
1.58131e-05
-7.80966e-09
1.5814e-05
-9.0796e-09
1.58149e-05
-1.02022e-08
1.58159e-05
-1.13856e-08
1.58168e-05
-1.27852e-08
1.58176e-05
-1.45409e-08
1.58183e-05
-1.6769e-08
1.58189e-05
-1.95389e-08
1.58194e-05
-2.28851e-08
1.58196e-05
-2.68452e-08
1.58196e-05
-3.15e-08
1.58193e-05
-3.69984e-08
1.58186e-05
-4.35703e-08
1.58175e-05
-5.15292e-08
1.58158e-05
-6.12655e-08
1.58135e-05
-7.32376e-08
1.58103e-05
-8.79655e-08
1.58061e-05
-1.06035e-07
1.58006e-05
-1.28119e-07
1.57934e-05
-1.55008e-07
1.57842e-05
-1.87653e-07
1.57723e-05
-2.2722e-07
1.57571e-05
-2.75141e-07
1.57376e-05
-3.33134e-07
1.57122e-05
-4.03307e-07
1.56791e-05
-4.87711e-07
-5.91168e-07
1.5634e-05
1.58112e-05
-1.54026e-09
1.58117e-05
-4.48581e-09
1.58124e-05
-6.90713e-09
1.58133e-05
-8.66428e-09
1.58142e-05
-9.96279e-09
1.58151e-05
-1.11025e-08
1.5816e-05
-1.22824e-08
1.58168e-05
-1.36383e-08
1.58176e-05
-1.53078e-08
1.58182e-05
-1.74101e-08
1.58187e-05
-2.00138e-08
1.5819e-05
-2.31515e-08
1.5819e-05
-2.68595e-08
1.58187e-05
-3.12151e-08
1.58181e-05
-3.63585e-08
1.5817e-05
-4.25041e-08
1.58154e-05
-4.99435e-08
1.58132e-05
-5.90394e-08
1.58102e-05
-7.02162e-08
1.58062e-05
-8.39536e-08
1.58009e-05
-1.0079e-07
1.57941e-05
-1.21341e-07
1.57855e-05
-1.4632e-07
1.57744e-05
-1.76581e-07
1.57603e-05
-2.13153e-07
1.57424e-05
-2.57273e-07
1.57197e-05
-3.10387e-07
1.56905e-05
-3.74137e-07
1.5653e-05
-4.50144e-07
-5.40812e-07
1.56026e-05
1.58112e-05
-1.76342e-09
1.58118e-05
-5.11637e-09
1.58127e-05
-7.76073e-09
1.58136e-05
-9.56295e-09
1.58145e-05
-1.0857e-08
1.58154e-05
-1.19987e-08
1.58162e-05
-1.31581e-08
1.5817e-05
-1.44479e-08
1.58177e-05
-1.60075e-08
1.58183e-05
-1.79585e-08
1.58186e-05
-2.03659e-08
1.58188e-05
-2.32596e-08
1.58186e-05
-2.66744e-08
1.5818e-05
-3.0684e-08
1.58171e-05
-3.54186e-08
1.58157e-05
-4.10741e-08
1.58136e-05
-4.79175e-08
1.58109e-05
-5.62801e-08
1.58072e-05
-6.65484e-08
1.58024e-05
-7.91572e-08
1.57962e-05
-9.45934e-08
1.57883e-05
-1.13409e-07
1.57782e-05
-1.36239e-07
1.57655e-05
-1.63833e-07
1.57494e-05
-1.9708e-07
1.57291e-05
-2.37022e-07
1.57036e-05
-2.84845e-07
1.56712e-05
-3.41752e-07
1.56301e-05
-4.09005e-07
-4.867e-07
1.5576e-05
1.58112e-05
-2.04663e-09
1.5812e-05
-5.89441e-09
1.5813e-05
-8.73847e-09
1.5814e-05
-1.05166e-08
1.58149e-05
-1.17721e-08
1.58158e-05
-1.29022e-08
1.58166e-05
-1.40209e-08
1.58174e-05
-1.5221e-08
1.58181e-05
-1.66486e-08
1.58185e-05
-1.84247e-08
1.58188e-05
-2.06076e-08
1.58187e-05
-2.32239e-08
1.58184e-05
-2.63089e-08
1.58176e-05
-2.99298e-08
1.58164e-05
-3.42044e-08
1.58146e-05
-3.93111e-08
1.58122e-05
-4.54888e-08
1.5809e-05
-5.30339e-08
1.58047e-05
-6.22914e-08
1.57992e-05
-7.36471e-08
1.57921e-05
-8.75318e-08
1.57832e-05
-1.04433e-07
1.57718e-05
-1.24903e-07
1.57576e-05
-1.49585e-07
1.57397e-05
-1.79229e-07
1.57174e-05
-2.14689e-07
1.56894e-05
-2.5691e-07
1.56544e-05
-3.0671e-07
1.56105e-05
-3.65122e-07
-4.30331e-07
1.55542e-05
1.58113e-05
-2.42822e-09
1.58123e-05
-6.8939e-09
1.58135e-05
-9.87354e-09
1.58145e-05
-1.15334e-08
1.58154e-05
-1.27217e-08
1.58164e-05
-1.38246e-08
1.58172e-05
-1.48758e-08
1.5818e-05
-1.59608e-08
1.58186e-05
-1.72357e-08
1.58189e-05
-1.88151e-08
1.58191e-05
-2.07474e-08
1.58189e-05
-2.30565e-08
1.58184e-05
-2.57766e-08
1.58174e-05
-2.897e-08
1.5816e-05
-3.27416e-08
1.58139e-05
-3.72481e-08
1.58111e-05
-4.26981e-08
1.58074e-05
-4.93504e-08
1.58026e-05
-5.75058e-08
1.57965e-05
-6.74971e-08
1.57887e-05
-7.96976e-08
1.57788e-05
-9.45281e-08
1.57663e-05
-1.12458e-07
1.57507e-05
-1.34022e-07
1.57314e-05
-1.59838e-07
1.57072e-05
-1.90575e-07
1.56773e-05
-2.26973e-07
1.56401e-05
-2.69517e-07
1.55942e-05
-3.19205e-07
-3.72824e-07
1.55367e-05
1.58115e-05
-2.98019e-09
1.58128e-05
-8.22078e-09
1.58142e-05
-1.11833e-08
1.58152e-05
-1.26177e-08
1.58162e-05
-1.37289e-08
1.58172e-05
-1.47839e-08
1.58181e-05
-1.57341e-08
1.58188e-05
-1.66804e-08
1.58193e-05
-1.77841e-08
1.58197e-05
-1.9146e-08
1.58197e-05
-2.08028e-08
1.58194e-05
-2.27769e-08
1.58188e-05
-2.5101e-08
1.58176e-05
-2.78316e-08
1.58159e-05
-3.10602e-08
1.58136e-05
-3.49201e-08
1.58105e-05
-3.95879e-08
1.58064e-05
-4.52826e-08
1.58012e-05
-5.2258e-08
1.57945e-05
-6.0789e-08
1.5786e-05
-7.11908e-08
1.57753e-05
-8.38191e-08
1.57619e-05
-9.90568e-08
1.57452e-05
-1.17333e-07
1.57245e-05
-1.3914e-07
1.56989e-05
-1.64972e-07
1.56673e-05
-1.95397e-07
1.56284e-05
-2.3058e-07
1.55809e-05
-2.71777e-07
-3.14937e-07
1.5523e-05
1.58118e-05
-3.84617e-09
1.58136e-05
-1.00334e-08
1.58151e-05
-1.2649e-08
1.58163e-05
-1.37605e-08
1.58173e-05
-1.47993e-08
1.58183e-05
-1.57721e-08
1.58192e-05
-1.65868e-08
1.58199e-05
-1.73788e-08
1.58204e-05
-1.82975e-08
1.58207e-05
-1.94246e-08
1.58206e-05
-2.07843e-08
1.58203e-05
-2.23995e-08
1.58195e-05
-2.43017e-08
1.58182e-05
-2.65409e-08
1.58163e-05
-2.91939e-08
1.58138e-05
-3.23695e-08
1.58104e-05
-3.62092e-08
1.5806e-05
-4.08908e-08
1.58003e-05
-4.662e-08
1.57932e-05
-5.36095e-08
1.57841e-05
-6.21166e-08
1.57727e-05
-7.24328e-08
1.57585e-05
-8.48563e-08
1.57409e-05
-9.97171e-08
1.57191e-05
-1.17386e-07
1.56923e-05
-1.38182e-07
1.56595e-05
-1.62534e-07
1.56191e-05
-1.90239e-07
1.55706e-05
-2.23199e-07
-2.56276e-07
1.55119e-05
1.58124e-05
-5.29301e-09
1.58149e-05
-1.2537e-08
1.58165e-05
-1.42664e-08
1.58178e-05
-1.50375e-08
1.5819e-05
-1.59765e-08
1.582e-05
-1.67884e-08
1.58208e-05
-1.74315e-08
1.58215e-05
-1.80624e-08
1.5822e-05
-1.87842e-08
1.58223e-05
-1.96617e-08
1.58222e-05
-2.07052e-08
1.58217e-05
-2.19406e-08
1.58208e-05
-2.33975e-08
1.58194e-05
-2.51193e-08
1.58174e-05
-2.71688e-08
1.58146e-05
-2.96289e-08
1.5811e-05
-3.26047e-08
1.58064e-05
-3.62331e-08
1.58004e-05
-4.06687e-08
1.57929e-05
-4.60497e-08
1.57833e-05
-5.25891e-08
1.57714e-05
-6.05112e-08
1.57566e-05
-7.00218e-08
1.57382e-05
-8.13648e-08
1.57156e-05
-9.48075e-08
1.5688e-05
-1.10511e-07
1.56542e-05
-1.28744e-07
1.56127e-05
-1.48741e-07
1.55634e-05
-1.73926e-07
-1.94976e-07
1.55021e-05
1.58135e-05
-7.83896e-09
1.58166e-05
-1.5643e-08
1.58183e-05
-1.59165e-08
1.58198e-05
-1.65497e-08
1.58211e-05
-1.72851e-08
1.58221e-05
-1.78424e-08
1.5823e-05
-1.82943e-08
1.58237e-05
-1.87546e-08
1.58242e-05
-1.92675e-08
1.58244e-05
-1.9876e-08
1.58243e-05
-2.05876e-08
1.58238e-05
-2.14269e-08
1.58228e-05
-2.24204e-08
1.58213e-05
-2.36054e-08
1.58191e-05
-2.50314e-08
1.58163e-05
-2.67523e-08
1.58125e-05
-2.88312e-08
1.58076e-05
-3.13664e-08
1.58014e-05
-3.44752e-08
1.57936e-05
-3.81932e-08
1.57837e-05
-4.26996e-08
1.57713e-05
-4.81683e-08
1.5756e-05
-5.47082e-08
1.57371e-05
-6.24781e-08
1.5714e-05
-7.16386e-08
1.56857e-05
-8.22581e-08
1.56514e-05
-9.4404e-08
1.56091e-05
-1.06492e-07
1.55588e-05
-1.23602e-07
-1.25008e-07
1.54888e-05
1.5817e-05
-1.38422e-08
1.58203e-05
-1.89752e-08
1.58222e-05
-1.78608e-08
1.58237e-05
-1.7982e-08
1.58248e-05
-1.84509e-08
1.58258e-05
-1.87599e-08
1.58264e-05
-1.89753e-08
1.58269e-05
-1.91977e-08
1.58271e-05
-1.94543e-08
1.5827e-05
-1.97601e-08
1.58265e-05
-2.01205e-08
1.58256e-05
-2.05478e-08
1.58242e-05
-2.10557e-08
1.58223e-05
-2.16634e-08
1.58197e-05
-2.23969e-08
1.58162e-05
-2.32823e-08
1.58117e-05
-2.43507e-08
1.5806e-05
-2.56582e-08
1.57988e-05
-2.72731e-08
1.57898e-05
-2.91881e-08
1.57786e-05
-3.15183e-08
1.57648e-05
-3.43607e-08
1.57479e-05
-3.77515e-08
1.57272e-05
-4.17757e-08
1.5702e-05
-4.6518e-08
1.56717e-05
-5.19535e-08
1.56355e-05
-5.81448e-08
1.55918e-05
-6.28217e-08
1.55368e-05
-6.85718e-08
-2.72898e-08
1.54391e-05
1.57971e-05
1.57781e-05
1.57603e-05
1.57423e-05
1.57239e-05
1.57051e-05
1.56861e-05
1.56669e-05
1.56475e-05
1.56277e-05
1.56076e-05
1.5587e-05
1.5566e-05
1.55443e-05
1.55219e-05
1.54986e-05
1.54743e-05
1.54486e-05
1.54214e-05
1.53922e-05
1.53607e-05
1.53263e-05
1.52885e-05
1.52468e-05
1.52002e-05
1.51483e-05
1.50901e-05
1.50273e-05
1.49588e-05
1.49315e-05
1.55344e-05
-9.07496e-06
9.36032e-06
1.52002e-05
-9.16066e-06
9.49481e-06
1.48101e-05
-9.22065e-06
9.61081e-06
1.43749e-05
-9.25493e-06
9.69009e-06
1.39148e-05
-9.28451e-06
9.74461e-06
1.34431e-05
-9.3168e-06
9.78856e-06
1.29659e-05
-9.35268e-06
9.82981e-06
1.24861e-05
-9.3918e-06
9.87165e-06
1.20045e-05
-9.43402e-06
9.91562e-06
1.15213e-05
-9.47928e-06
9.96245e-06
1.10364e-05
-9.52761e-06
1.00125e-05
1.05497e-05
-9.5793e-06
1.00661e-05
1.0061e-05
-9.63489e-06
1.01236e-05
9.57028e-06
-9.69517e-06
1.01859e-05
9.07757e-06
-9.76112e-06
1.02538e-05
8.58277e-06
-9.834e-06
1.03288e-05
8.08571e-06
-9.9154e-06
1.04125e-05
7.5861e-06
-1.00074e-05
1.0507e-05
7.08353e-06
-1.01127e-05
1.06153e-05
6.57737e-06
-1.02351e-05
1.07413e-05
6.06678e-06
-1.03796e-05
1.08902e-05
5.54997e-06
-1.05536e-05
1.10704e-05
5.02638e-06
-1.07664e-05
1.129e-05
4.48772e-06
-1.10377e-05
1.15764e-05
3.94228e-06
-1.13752e-05
1.19206e-05
3.34694e-06
-1.18728e-05
1.24681e-05
2.75826e-06
-1.24263e-05
1.30149e-05
2.0049e-06
-1.36348e-05
1.43882e-05
1.23274e-06
-1.45465e-05
1.53187e-05
-1.8646e-05
1.98787e-05
1.58124e-05
-8.67129e-06
1.53599e-05
-8.70819e-06
1.48837e-05
-8.74449e-06
1.44016e-05
-8.77279e-06
1.39202e-05
-8.80313e-06
1.34408e-05
-8.83737e-06
1.29626e-05
-8.87449e-06
1.24844e-05
-8.91361e-06
1.20051e-05
-8.95477e-06
1.15242e-05
-8.99833e-06
1.10413e-05
-9.04471e-06
1.05564e-05
-9.0944e-06
1.00695e-05
-9.14802e-06
9.58068e-06
-9.20633e-06
9.08983e-06
-9.27027e-06
8.59682e-06
-9.34099e-06
8.10143e-06
-9.42001e-06
7.60333e-06
-9.5093e-06
7.10207e-06
-9.61147e-06
6.59694e-06
-9.73001e-06
6.08698e-06
-9.86968e-06
5.57058e-06
-1.00372e-05
5.04605e-06
-1.02419e-05
4.50777e-06
-1.04995e-05
3.95701e-06
-1.08244e-05
3.36478e-06
-1.12805e-05
2.76234e-06
-1.18238e-05
2.01623e-06
-1.28887e-05
1.23688e-06
-1.37672e-05
-1.74091e-05
1.57759e-05
-8.21606e-06
1.53102e-05
-8.24246e-06
1.48392e-05
-8.27349e-06
1.43698e-05
-8.30345e-06
1.39006e-05
-8.33386e-06
1.34299e-05
-8.36672e-06
1.2957e-05
-8.40162e-06
1.24817e-05
-8.4383e-06
1.20041e-05
-8.47712e-06
1.15243e-05
-8.51857e-06
1.10426e-05
-8.56304e-06
1.05592e-05
-8.61091e-06
1.00738e-05
-8.66271e-06
9.58662e-06
-8.71912e-06
9.09737e-06
-8.78102e-06
8.6059e-06
-8.84952e-06
8.11196e-06
-8.92607e-06
7.61518e-06
-9.01252e-06
7.11505e-06
-9.11134e-06
6.61083e-06
-9.22579e-06
6.10145e-06
-9.36031e-06
5.58534e-06
-9.5211e-06
5.06032e-06
-9.71684e-06
4.52198e-06
-9.96112e-06
3.96773e-06
-1.02702e-05
3.37733e-06
-1.06901e-05
2.7646e-06
-1.12111e-05
2.02404e-06
-1.21481e-05
1.23522e-06
-1.29784e-05
-1.61739e-05
1.57681e-05
-7.75557e-06
1.53049e-05
-7.77933e-06
1.48377e-05
-7.80628e-06
1.43686e-05
-7.83429e-06
1.3898e-05
-7.86326e-06
1.34255e-05
-7.89422e-06
1.29512e-05
-7.92732e-06
1.24754e-05
-7.96248e-06
1.19981e-05
-7.99989e-06
1.15194e-05
-8.03986e-06
1.10391e-05
-8.08274e-06
1.05571e-05
-8.12889e-06
1.00733e-05
-8.17886e-06
9.58747e-06
-8.23332e-06
9.09958e-06
-8.29312e-06
8.60939e-06
-8.35933e-06
8.11661e-06
-8.43329e-06
7.62084e-06
-8.51676e-06
7.12153e-06
-8.61203e-06
6.61788e-06
-8.72213e-06
6.10876e-06
-8.85118e-06
5.59253e-06
-9.00487e-06
5.0668e-06
-9.19112e-06
4.5276e-06
-9.42192e-06
3.97043e-06
-9.71299e-06
3.38012e-06
-1.00998e-05
2.75883e-06
-1.05898e-05
2.02296e-06
-1.14123e-05
1.2279e-06
-1.21833e-05
-1.4946e-05
1.57517e-05
-7.29248e-06
1.52868e-05
-7.31445e-06
1.48193e-05
-7.33878e-06
1.43502e-05
-7.36524e-06
1.38803e-05
-7.3933e-06
1.34091e-05
-7.42308e-06
1.29366e-05
-7.45477e-06
1.24625e-05
-7.48844e-06
1.19869e-05
-7.52427e-06
1.15096e-05
-7.56258e-06
1.10306e-05
-7.60371e-06
1.05498e-05
-7.64807e-06
1.00671e-05
-7.69618e-06
9.58244e-06
-7.74866e-06
9.09564e-06
-7.80632e-06
8.60646e-06
-7.87015e-06
8.11459e-06
-7.94141e-06
7.61957e-06
-8.02174e-06
7.12081e-06
-8.11327e-06
6.61746e-06
-8.21879e-06
6.10834e-06
-8.34206e-06
5.59174e-06
-8.48827e-06
5.06517e-06
-8.66455e-06
4.52476e-06
-8.88151e-06
3.96519e-06
-9.15342e-06
3.37397e-06
-9.5086e-06
2.7462e-06
-9.96202e-06
2.01404e-06
-1.06801e-05
1.21367e-06
-1.13829e-05
-1.37323e-05
1.57311e-05
-6.8287e-06
1.5266e-05
-6.84943e-06
1.47994e-05
-6.87213e-06
1.43314e-05
-6.89728e-06
1.38624e-05
-6.92422e-06
1.3392e-05
-6.95268e-06
1.29201e-05
-6.98286e-06
1.24466e-05
-7.01499e-06
1.19716e-05
-7.04929e-06
1.14951e-05
-7.08603e-06
1.10169e-05
-7.12552e-06
1.0537e-05
-7.16817e-06
1.00553e-05
-7.21444e-06
9.57153e-06
-7.26493e-06
9.0856e-06
-7.32039e-06
8.5972e-06
-7.38175e-06
8.10598e-06
-7.45019e-06
7.61146e-06
-7.52722e-06
7.11299e-06
-7.6148e-06
6.60968e-06
-7.71548e-06
6.10031e-06
-7.83269e-06
5.58311e-06
-7.97107e-06
5.05554e-06
-8.13697e-06
4.5137e-06
-8.33967e-06
3.95198e-06
-8.5917e-06
3.35932e-06
-8.91594e-06
2.72666e-06
-9.32936e-06
1.99783e-06
-9.95128e-06
1.1942e-06
-1.05793e-05
-1.25381e-05
1.57061e-05
-6.36483e-06
1.52412e-05
-6.38451e-06
1.47749e-05
-6.4059e-06
1.43075e-05
-6.42981e-06
1.38388e-05
-6.45556e-06
1.33689e-05
-6.48275e-06
1.28976e-05
-6.51155e-06
1.24249e-05
-6.54227e-06
1.19507e-05
-6.57512e-06
1.1475e-05
-6.61032e-06
1.09976e-05
-6.64819e-06
1.05186e-05
-6.68909e-06
1.00376e-05
-6.73347e-06
9.55456e-06
-6.78191e-06
9.06926e-06
-6.83509e-06
8.5814e-06
-6.89388e-06
8.09058e-06
-6.95937e-06
7.5963e-06
-7.03295e-06
7.09789e-06
-7.11638e-06
6.59441e-06
-7.21201e-06
6.08459e-06
-7.32287e-06
5.56661e-06
-7.45309e-06
5.0379e-06
-7.60826e-06
4.49457e-06
-7.79634e-06
3.93091e-06
-8.02804e-06
3.33665e-06
-8.32168e-06
2.70054e-06
-8.69325e-06
1.97528e-06
-9.22602e-06
1.17023e-06
-9.77426e-06
-1.13679e-05
1.5677e-05
-5.90096e-06
1.52122e-05
-5.91971e-06
1.47463e-05
-5.93999e-06
1.42792e-05
-5.96274e-06
1.3811e-05
-5.98733e-06
1.33415e-05
-6.01329e-06
1.28708e-05
-6.04078e-06
1.23986e-05
-6.07011e-06
1.1925e-05
-6.10151e-06
1.14498e-05
-6.13518e-06
1.09731e-05
-6.17141e-06
1.04945e-05
-6.21055e-06
1.00141e-05
-6.25303e-06
9.53154e-06
-6.29937e-06
9.04665e-06
-6.3502e-06
8.5591e-06
-6.40633e-06
8.06847e-06
-6.46875e-06
7.57423e-06
-6.53871e-06
7.07567e-06
-6.61782e-06
6.57182e-06
-6.70816e-06
6.06138e-06
-6.81243e-06
5.54251e-06
-6.93422e-06
5.0126e-06
-7.07835e-06
4.46779e-06
-7.25152e-06
3.90239e-06
-7.46265e-06
3.30666e-06
-7.72594e-06
2.66835e-06
-8.05494e-06
1.94703e-06
-8.5047e-06
1.14265e-06
-8.96988e-06
-1.02252e-05
1.56439e-05
-5.43709e-06
1.51792e-05
-5.45501e-06
1.47135e-05
-5.4743e-06
1.42467e-05
-5.49595e-06
1.37787e-05
-5.51938e-06
1.33096e-05
-5.54414e-06
1.28391e-05
-5.57035e-06
1.23674e-05
-5.59833e-06
1.18941e-05
-5.6283e-06
1.14194e-05
-5.66045e-06
1.09431e-05
-5.69504e-06
1.04649e-05
-5.73241e-06
9.98482e-06
-5.77294e-06
9.50257e-06
-5.81712e-06
9.0179e-06
-5.86553e-06
8.53046e-06
-5.91889e-06
8.03983e-06
-5.97812e-06
7.54545e-06
-6.04432e-06
7.04657e-06
-6.11894e-06
6.54221e-06
-6.2038e-06
6.03104e-06
-6.30125e-06
5.5112e-06
-6.41438e-06
4.98009e-06
-6.54725e-06
4.43389e-06
-6.70532e-06
3.86701e-06
-6.89577e-06
3.27014e-06
-7.12907e-06
2.63078e-06
-7.41558e-06
1.9139e-06
-7.78782e-06
1.11246e-06
-8.16844e-06
-9.11278e-06
1.56069e-05
-4.97316e-06
1.51422e-05
-4.99032e-06
1.46766e-05
-5.0087e-06
1.421e-05
-5.02929e-06
1.37422e-05
-5.05161e-06
1.32732e-05
-5.07519e-06
1.2803e-05
-5.10015e-06
1.23315e-05
-5.1268e-06
1.18586e-05
-5.15535e-06
1.13841e-05
-5.18598e-06
1.0908e-05
-5.21892e-06
1.043e-05
-5.25448e-06
9.95011e-06
-5.29302e-06
9.46797e-06
-5.33498e-06
8.98334e-06
-5.38089e-06
8.49585e-06
-5.43141e-06
8.00506e-06
-5.48732e-06
7.51038e-06
-5.54965e-06
7.01105e-06
-5.61962e-06
6.50608e-06
-5.69883e-06
5.99412e-06
-5.78929e-06
5.47331e-06
-5.89357e-06
4.94107e-06
-6.01501e-06
4.39365e-06
-6.1579e-06