/*--------------------------------*- C++ -*----------------------------------*\
  =========                 |
  \\      /  F ield         | OpenFOAM: The Open Source CFD Toolbox
   \\    /   O peration     | Website:  https://openfoam.org
    \\  /    A nd           | Version:  11
     \\/     M anipulation  |
\*---------------------------------------------------------------------------*/
FoamFile
{
    format      ascii;
    class       surfaceScalarField;
    location    "9";
    object      phi;
}
// * * * * * * * * * * * * * * * * * * * * * * * * * * * * * * * * * * * * * //

dimensions      [0 3 -1 0 0 0 0];

internalField   nonuniform List<scalar> 
24840
(
1.92421e-05
6.03866e-09
1.92366e-05
5.51315e-09
1.92339e-05
2.67643e-09
1.92342e-05
-2.62123e-10
1.92373e-05
-3.11498e-09
1.92434e-05
-6.13415e-09
1.92527e-05
-9.23427e-09
1.92652e-05
-1.25062e-08
1.92812e-05
-1.60269e-08
1.93011e-05
-1.99105e-08
1.93253e-05
-2.42547e-08
1.93545e-05
-2.9177e-08
1.93894e-05
-3.48256e-08
1.94307e-05
-4.13847e-08
1.94798e-05
-4.90667e-08
1.95379e-05
-5.81113e-08
1.96067e-05
-6.87894e-08
1.96881e-05
-8.13997e-08
1.97844e-05
-9.62715e-08
1.98981e-05
-1.13763e-07
2.00324e-05
-1.34254e-07
2.01905e-05
-1.58137e-07
2.03763e-05
-1.85779e-07
2.05938e-05
-2.17541e-07
2.08477e-05
-2.53836e-07
2.11423e-05
-2.94635e-07
2.14831e-05
-3.40808e-07
2.187e-05
-3.86902e-07
2.23242e-05
-4.54189e-07
-4.31762e-07
2.2756e-05
1.92529e-05
1.23471e-09
1.92597e-05
-1.26418e-09
1.92688e-05
-6.40892e-09
1.92809e-05
-1.23443e-08
1.92962e-05
-1.83869e-08
1.93147e-05
-2.46936e-08
1.93368e-05
-3.13391e-08
1.93626e-05
-3.83168e-08
1.93922e-05
-4.55712e-08
1.94254e-05
-5.31335e-08
1.94624e-05
-6.12273e-08
1.95035e-05
-7.02634e-08
1.95493e-05
-8.07096e-08
1.96009e-05
-9.29853e-08
1.96594e-05
-1.07479e-07
1.97258e-05
-1.24606e-07
1.98019e-05
-1.44842e-07
1.98892e-05
-1.68744e-07
1.99899e-05
-1.96943e-07
2.01063e-05
-2.30124e-07
2.02411e-05
-2.69037e-07
2.03974e-05
-3.14491e-07
2.05789e-05
-3.67294e-07
2.07896e-05
-4.28225e-07
2.10338e-05
-4.98059e-07
2.13165e-05
-5.77266e-07
2.16427e-05
-6.67012e-07
2.20177e-05
-7.61921e-07
2.24478e-05
-8.84266e-07
-9.1194e-07
2.29279e-05
1.92513e-05
-1.88371e-09
1.92573e-05
-7.34972e-09
1.9266e-05
-1.50968e-08
1.92776e-05
-2.39449e-08
1.92924e-05
-3.31395e-08
1.93103e-05
-4.26424e-08
1.93315e-05
-5.25421e-08
1.93561e-05
-6.28427e-08
1.9384e-05
-7.35499e-08
1.94157e-05
-8.47941e-08
1.94514e-05
-9.68993e-08
1.94915e-05
-1.10367e-07
1.95365e-05
-1.25783e-07
1.95873e-05
-1.4374e-07
1.96447e-05
-1.64835e-07
1.97098e-05
-1.89713e-07
1.9784e-05
-2.19103e-07
1.98691e-05
-2.53843e-07
1.99671e-05
-2.94879e-07
2.00802e-05
-3.43258e-07
2.02113e-05
-4.00132e-07
2.03636e-05
-4.66753e-07
2.05407e-05
-5.44418e-07
2.07468e-05
-6.34397e-07
2.09867e-05
-7.37947e-07
2.12654e-05
-8.55886e-07
2.15882e-05
-9.89891e-07
2.19604e-05
-1.13409e-06
2.23884e-05
-1.31223e-06
-1.40252e-06
2.28789e-05
1.92503e-05
-4.07348e-09
1.92558e-05
-1.28067e-08
1.9264e-05
-2.33291e-08
1.92751e-05
-3.50388e-08
1.92893e-05
-4.73187e-08
1.93066e-05
-5.9977e-08
1.93271e-05
-7.30278e-08
1.93508e-05
-8.65001e-08
1.93777e-05
-1.00488e-07
1.94081e-05
-1.15242e-07
1.94424e-05
-1.31195e-07
1.9481e-05
-1.48937e-07
1.95244e-05
-1.69154e-07
1.95732e-05
-1.92586e-07
1.96284e-05
-2.20021e-07
1.9691e-05
-2.52329e-07
1.97624e-05
-2.90488e-07
1.98442e-05
-3.35614e-07
1.99383e-05
-3.88974e-07
2.0047e-05
-4.51986e-07
2.01731e-05
-5.2621e-07
2.03197e-05
-6.13341e-07
2.04904e-05
-7.15168e-07
2.06895e-05
-8.3352e-07
2.09218e-05
-9.70244e-07
2.11927e-05
-1.12672e-06
2.15079e-05
-1.30514e-06
2.18741e-05
-1.5003e-06
2.22971e-05
-1.73523e-06
-1.89566e-06
2.27903e-05
1.92498e-05
-5.74181e-09
1.92546e-05
-1.764e-08
1.92623e-05
-3.09895e-08
1.92728e-05
-4.55092e-08
1.92862e-05
-6.07337e-08
1.93026e-05
-7.6404e-08
1.93221e-05
-9.24783e-08
1.93446e-05
-1.09013e-07
1.93703e-05
-1.26167e-07
1.93993e-05
-1.44273e-07
1.94319e-05
-1.63855e-07
1.94686e-05
-1.85606e-07
1.95098e-05
-2.10334e-07
1.95561e-05
-2.38926e-07
1.96085e-05
-2.7235e-07
1.96678e-05
-3.11682e-07
1.97355e-05
-3.58138e-07
1.9813e-05
-4.13103e-07
1.99021e-05
-4.78151e-07
2.00052e-05
-5.5505e-07
2.01248e-05
-6.45765e-07
2.02639e-05
-7.52454e-07
2.04261e-05
-8.77443e-07
2.06158e-05
-1.02317e-06
2.08377e-05
-1.19214e-06
2.10975e-05
-1.38652e-06
2.14016e-05
-1.60922e-06
2.17577e-05
-1.85643e-06
2.21722e-05
-2.14972e-06
-2.38509e-06
2.26616e-05
1.92495e-05
-7.15648e-09
1.92539e-05
-2.19576e-08
1.92609e-05
-3.80588e-08
1.92707e-05
-5.52889e-08
1.92833e-05
-7.32983e-08
1.92987e-05
-9.18144e-08
1.9317e-05
-1.1075e-07
1.93381e-05
-1.30167e-07
1.93622e-05
-1.50283e-07
1.93895e-05
-1.71508e-07
1.94201e-05
-1.94458e-07
1.94544e-05
-2.19929e-07
1.94929e-05
-2.48844e-07
1.95362e-05
-2.82232e-07
1.95851e-05
-3.21225e-07
1.96405e-05
-3.67086e-07
1.97036e-05
-4.21244e-07
1.97758e-05
-4.85336e-07
1.98589e-05
-5.61231e-07
1.99549e-05
-6.51046e-07
2.00663e-05
-7.57151e-07
2.0196e-05
-8.82173e-07
2.03476e-05
-1.02899e-06
2.05251e-05
-1.20069e-06
2.07335e-05
-1.40059e-06
2.09788e-05
-1.63181e-06
2.12678e-05
-1.89822e-06
2.16094e-05
-2.19799e-06
2.20109e-05
-2.55122e-06
-2.86696e-06
2.24927e-05
1.92494e-05
-8.41263e-09
1.92532e-05
-2.58161e-08
1.92597e-05
-4.44969e-08
1.92687e-05
-6.4283e-08
1.92803e-05
-8.48837e-08
1.92945e-05
-1.06032e-07
1.93113e-05
-1.27616e-07
1.93309e-05
-1.49704e-07
1.93532e-05
-1.72555e-07
1.93783e-05
-1.96648e-07
1.94065e-05
-2.22681e-07
1.94381e-05
-2.51543e-07
1.94736e-05
-2.84269e-07
1.95133e-05
-3.22019e-07
1.95582e-05
-3.66073e-07
1.9609e-05
-4.17864e-07
1.96667e-05
-4.79019e-07
1.97328e-05
-5.51405e-07
1.98088e-05
-6.37166e-07
1.98965e-05
-7.38744e-07
1.99982e-05
-8.58898e-07
2.01167e-05
-1.00072e-06
2.02554e-05
-1.16765e-06
2.04182e-05
-1.36349e-06
2.061e-05
-1.59243e-06
2.0837e-05
-1.85873e-06
2.11063e-05
-2.16752e-06
2.14278e-05
-2.5195e-06
2.18102e-05
-2.93363e-06
-3.33522e-06
2.22784e-05
1.92493e-05
-9.5312e-09
1.92527e-05
-2.92463e-08
1.92585e-05
-5.0279e-08
1.92666e-05
-7.24174e-08
1.92771e-05
-9.5388e-08
1.929e-05
-1.18932e-07
1.93053e-05
-1.42924e-07
1.9323e-05
-1.67435e-07
1.93432e-05
-1.92759e-07
1.9366e-05
-2.1943e-07
1.93916e-05
-2.48219e-07
1.94201e-05
-2.80101e-07
1.94521e-05
-3.16215e-07
1.94879e-05
-3.57839e-07
1.95282e-05
-4.06385e-07
1.95738e-05
-4.63432e-07
1.96255e-05
-5.30778e-07
1.96846e-05
-6.10494e-07
1.97524e-05
-7.04971e-07
1.98306e-05
-8.16954e-07
1.99213e-05
-9.49563e-07
2.00269e-05
-1.10633e-06
2.01505e-05
-1.29127e-06
2.02959e-05
-1.5089e-06
2.04679e-05
-1.76433e-06
2.06723e-05
-2.06315e-06
2.09167e-05
-2.41198e-06
2.12118e-05
-2.81459e-06
2.15674e-05
-3.28922e-06
-3.78094e-06
2.20131e-05
1.92491e-05
-1.05146e-08
1.92521e-05
-3.22592e-08
1.92572e-05
-5.53829e-08
1.92644e-05
-7.96294e-08
1.92738e-05
-1.04719e-07
1.92852e-05
-1.30393e-07
1.92988e-05
-1.56521e-07
1.93146e-05
-1.83176e-07
1.93325e-05
-2.10676e-07
1.93527e-05
-2.39605e-07
1.93752e-05
-2.70795e-07
1.94004e-05
-3.05297e-07
1.94286e-05
-3.44339e-07
1.946e-05
-3.893e-07
1.94953e-05
-4.41706e-07
1.95352e-05
-5.03259e-07
1.95803e-05
-5.75899e-07
1.96317e-05
-6.6187e-07
1.96905e-05
-7.6378e-07
1.97582e-05
-8.84632e-07
1.98365e-05
-1.02787e-06
1.99276e-05
-1.19744e-06
2.00341e-05
-1.39786e-06
2.01596e-05
-1.63436e-06
2.03083e-05
-1.91301e-06
2.04859e-05
-2.24077e-06
2.06999e-05
-2.62598e-06
2.09612e-05
-3.07591e-06
2.12805e-05
-3.60852e-06
-4.19198e-06
2.16916e-05
1.9249e-05
-1.13612e-08
1.92516e-05
-3.48518e-08
1.9256e-05
-5.97849e-08
1.92622e-05
-8.58647e-08
1.92703e-05
-1.12795e-07
1.92802e-05
-1.4031e-07
1.9292e-05
-1.68277e-07
1.93056e-05
-1.96769e-07
1.9321e-05
-2.26127e-07
1.93384e-05
-2.5697e-07
1.93578e-05
-2.90181e-07
1.93793e-05
-3.26873e-07
1.94033e-05
-3.68349e-07
1.94301e-05
-4.16073e-07
1.94601e-05
-4.71658e-07
1.94937e-05
-5.36907e-07
1.95317e-05
-6.13869e-07
1.95747e-05
-7.04927e-07
1.96238e-05
-8.12858e-07
1.96801e-05
-9.40879e-07
1.97449e-05
-1.0927e-06
1.98201e-05
-1.2726e-06
1.99078e-05
-1.48557e-06
2.00109e-05
-1.73747e-06
2.01332e-05
-2.03529e-06
2.02797e-05
-2.3873e-06
2.04574e-05
-2.80368e-06
2.06769e-05
-3.2954e-06
2.0949e-05
-3.88061e-06
-4.55304e-06
2.131e-05
1.92488e-05
-1.2068e-08
1.9251e-05
-3.70157e-08
1.92547e-05
-6.34618e-08
1.92599e-05
-9.10775e-08
1.92666e-05
-1.19546e-07
1.92749e-05
-1.48595e-07
1.92847e-05
-1.78083e-07
1.92961e-05
-2.08087e-07
1.93089e-05
-2.38963e-07
1.93233e-05
-2.71354e-07
1.93393e-05
-3.06185e-07
1.9357e-05
-3.44616e-07
1.93767e-05
-3.88008e-07
1.93985e-05
-4.37888e-07
1.94228e-05
-4.95937e-07
1.94499e-05
-5.64024e-07
1.94803e-05
-6.44278e-07
1.95146e-05
-7.39179e-07
1.95533e-05
-8.51623e-07
1.95974e-05
-9.84981e-07
1.96479e-05
-1.14316e-06
1.9706e-05
-1.33068e-06
1.97733e-05
-1.5529e-06
1.9852e-05
-1.81618e-06
1.9945e-05
-2.12829e-06
2.00564e-05
-2.49872e-06
2.01921e-05
-2.93934e-06
2.03614e-05
-3.46476e-06
2.05745e-05
-4.09365e-06
-4.84618e-06
2.08676e-05
1.92487e-05
-1.26318e-08
1.92504e-05
-3.87413e-08
1.92534e-05
-6.63932e-08
1.92575e-05
-9.52315e-08
1.92629e-05
-1.24921e-07
1.92695e-05
-1.55177e-07
1.92772e-05
-1.85853e-07
1.92862e-05
-2.17028e-07
1.92963e-05
-2.49064e-07
1.93075e-05
-2.82625e-07
1.932e-05
-3.1866e-07
1.93338e-05
-3.58364e-07
1.93489e-05
-4.03137e-07
1.93656e-05
-4.54548e-07
1.93839e-05
-5.14319e-07
1.94043e-05
-5.84358e-07
1.94268e-05
-6.66838e-07
1.94519e-05
-7.64287e-07
1.948e-05
-8.79669e-07
1.95114e-05
-1.01644e-06
1.95469e-05
-1.1786e-06
1.9587e-05
-1.37083e-06
1.96328e-05
-1.59869e-06
1.96855e-05
-1.86888e-06
1.97469e-05
-2.18972e-06
1.98198e-05
-2.57161e-06
1.99083e-05
-3.02783e-06
2.00197e-05
-3.57614e-06
2.01619e-05
-4.23582e-06
-5.05204e-06
2.03677e-05
1.92486e-05
-1.30502e-08
1.92498e-05
-4.0021e-08
1.9252e-05
-6.85636e-08
1.92551e-05
-9.83003e-08
1.9259e-05
-1.28879e-07
1.92639e-05
-1.60004e-07
1.92695e-05
-1.91524e-07
1.9276e-05
-2.23517e-07
1.92833e-05
-2.56347e-07
1.92914e-05
-2.9069e-07
1.93002e-05
-3.27506e-07
1.93099e-05
-3.68009e-07
1.93203e-05
-4.1362e-07
1.93317e-05
-4.65927e-07
1.93441e-05
-5.26668e-07
1.93575e-05
-5.97761e-07
1.9372e-05
-6.81382e-07
1.93878e-05
-7.80065e-07
1.94049e-05
-8.96778e-07
1.94234e-05
-1.03498e-06
1.94435e-05
-1.19868e-06
1.94653e-05
-1.39258e-06
1.94889e-05
-1.62226e-06
1.95145e-05
-1.89456e-06
1.95428e-05
-2.21801e-06
1.95747e-05
-2.60351e-06
1.96121e-05
-3.06519e-06
1.9659e-05
-3.62303e-06
1.97198e-05
-4.29668e-06
-5.15206e-06
1.98198e-05
1.92484e-05
-1.33219e-08
1.92492e-05
-4.08502e-08
1.92506e-05
-6.9964e-08
1.92526e-05
-1.00268e-07
1.92551e-05
-1.31397e-07
1.92582e-05
-1.63046e-07
1.92617e-05
-1.95059e-07
1.92657e-05
-2.27509e-07
1.92701e-05
-2.60762e-07
1.92749e-05
-2.95493e-07
1.92801e-05
-3.32665e-07
1.92855e-05
-3.73493e-07
1.92913e-05
-4.194e-07
1.92974e-05
-4.71972e-07
1.93036e-05
-5.32936e-07
1.93101e-05
-6.04188e-07
1.93166e-05
-6.87873e-07
1.9323e-05
-7.86483e-07
1.93291e-05
-9.02929e-07
1.93347e-05
-1.04059e-06
1.93395e-05
-1.20339e-06
1.93428e-05
-1.39588e-06
1.9344e-05
-1.62351e-06
1.93424e-05
-1.89295e-06
1.9337e-05
-2.21259e-06
1.93268e-05
-2.59328e-06
1.93108e-05
-3.04921e-06
1.9289e-05
-3.60128e-06
1.92612e-05
-4.26882e-06
-5.13133e-06
1.92404e-05
1.92483e-05
-1.34451e-08
1.92486e-05
-4.12297e-08
1.92493e-05
-7.05932e-08
1.92501e-05
-1.01131e-07
1.92512e-05
-1.32467e-07
1.92524e-05
-1.64292e-07
1.92538e-05
-1.96442e-07
1.92553e-05
-2.28989e-07
1.92568e-05
-2.62292e-07
1.92584e-05
-2.97019e-07
1.92598e-05
-3.34123e-07
1.92611e-05
-3.7481e-07
1.92622e-05
-4.20483e-07
1.9263e-05
-4.72703e-07
1.92632e-05
-5.33159e-07
1.92627e-05
-6.03699e-07
1.92612e-05
-6.86401e-07
1.92584e-05
-7.8367e-07
1.92538e-05
-8.98302e-07
1.92467e-05
-1.03352e-06
1.92363e-05
-1.19303e-06
1.92216e-05
-1.38113e-06
1.9201e-05
-1.60292e-06
1.91727e-05
-1.86462e-06
1.91341e-05
-2.17405e-06
1.90822e-05
-2.54139e-06
1.9013e-05
-2.98e-06
1.89218e-05
-3.51007e-06
1.88025e-05
-4.14946e-06
-4.98195e-06
1.86531e-05
1.92481e-05
-1.34258e-08
1.9248e-05
-4.11607e-08
1.92479e-05
-7.04556e-08
1.92477e-05
-1.00894e-07
1.92473e-05
-1.32097e-07
1.92468e-05
-1.63748e-07
1.9246e-05
-1.95683e-07
1.9245e-05
-2.27969e-07
1.92436e-05
-2.60955e-07
1.92419e-05
-2.95292e-07
1.92397e-05
-3.31917e-07
1.92369e-05
-3.72007e-07
1.92334e-05
-4.16932e-07
1.92289e-05
-4.68204e-07
1.92231e-05
-5.27454e-07
1.92159e-05
-5.96451e-07
1.92067e-05
-6.77178e-07
1.91949e-05
-7.71911e-07
1.91799e-05
-8.83271e-07
1.91606e-05
-1.01425e-06
1.91358e-05
-1.16826e-06
1.91039e-05
-1.34919e-06
1.90626e-05
-1.56159e-06
1.90089e-05
-1.81096e-06
1.8939e-05
-2.10418e-06
1.88478e-05
-2.4501e-06
1.87281e-05
-2.86031e-06
1.85705e-05
-3.35254e-06
1.83629e-05
-3.94185e-06
-4.70587e-06
1.80869e-05
1.9248e-05
-1.32618e-08
1.92475e-05
-4.06561e-08
1.92466e-05
-6.95688e-08
1.92453e-05
-9.95809e-08
1.92435e-05
-1.30311e-07
1.92412e-05
-1.61445e-07
1.92383e-05
-1.92817e-07
1.92348e-05
-2.24489e-07
1.92307e-05
-2.56798e-07
1.92258e-05
-2.90373e-07
1.922e-05
-3.2612e-07
1.92131e-05
-3.65178e-07
1.92051e-05
-4.08864e-07
1.91955e-05
-4.58626e-07
1.9184e-05
-5.16012e-07
1.91703e-05
-5.82695e-07
1.91536e-05
-6.6053e-07
1.91334e-05
-7.51627e-07
1.91085e-05
-8.58388e-07
1.90777e-05
-9.83515e-07
1.90395e-05
-1.13002e-06
1.89916e-05
-1.30129e-06
1.89312e-05
-1.50117e-06
1.88544e-05
-1.73422e-06
1.87562e-05
-2.00596e-06
1.86295e-05
-2.32342e-06
1.84648e-05
-2.69555e-06
1.82483e-05
-3.13604e-06
1.79622e-05
-3.65582e-06
-4.31655e-06
1.75729e-05
1.92478e-05
-1.29607e-08
1.92469e-05
-3.97289e-08
1.92453e-05
-6.79557e-08
1.92429e-05
-9.72218e-08
1.92398e-05
-1.27149e-07
1.92358e-05
-1.57429e-07
1.92308e-05
-1.87901e-07
1.9225e-05
-2.18618e-07
1.92181e-05
-2.49903e-07
1.92101e-05
-2.82357e-07
1.92008e-05
-3.16847e-07
1.91901e-05
-3.54461e-07
1.91777e-05
-3.9645e-07
1.91632e-05
-4.44179e-07
1.91463e-05
-4.99099e-07
1.91264e-05
-5.62763e-07
1.91027e-05
-6.36879e-07
1.90744e-05
-7.23361e-07
1.90404e-05
-8.24353e-07
1.89991e-05
-9.42219e-07
1.89486e-05
-1.07952e-06
1.88864e-05
-1.23904e-06
1.8809e-05
-1.42382e-06
1.87121e-05
-1.63729e-06
1.85895e-05
-1.88339e-06
1.8433e-05
-2.1669e-06
1.8231e-05
-2.4935e-06
1.79666e-05
-2.87169e-06
1.76181e-05
-3.30727e-06
-3.83841e-06
1.71399e-05
1.92477e-05
-1.25288e-08
1.92464e-05
-3.83999e-08
1.92441e-05
-6.56504e-08
1.92407e-05
-9.38626e-08
1.92362e-05
-1.22667e-07
1.92306e-05
-1.51769e-07
1.92237e-05
-1.81012e-07
1.92155e-05
-2.10447e-07
1.9206e-05
-2.40376e-07
1.9195e-05
-2.7137e-07
1.91824e-05
-3.04248e-07
1.9168e-05
-3.40036e-07
1.91514e-05
-3.79906e-07
1.91324e-05
-4.25126e-07
1.91103e-05
-4.77036e-07
1.90846e-05
-5.37056e-07
1.90545e-05
-6.06729e-07
1.90188e-05
-6.87754e-07
1.89765e-05
-7.81993e-07
1.89257e-05
-8.9144e-07
1.88644e-05
-1.01817e-06
1.87896e-05
-1.16433e-06
1.86979e-05
-1.33207e-06
1.85842e-05
-1.52362e-06
1.8442e-05
-1.74122e-06
1.82623e-05
-1.98718e-06
1.80325e-05
-2.26368e-06
1.77342e-05
-2.57338e-06
1.73435e-05
-2.91661e-06
-3.30409e-06
1.68092e-05
1.92476e-05
-1.19751e-08
1.92459e-05
-3.66967e-08
1.92429e-05
-6.26969e-08
1.92386e-05
-8.95613e-08
1.92329e-05
-1.16936e-07
1.92257e-05
-1.44547e-07
1.92169e-05
-1.72252e-07
1.92066e-05
-2.00094e-07
1.91945e-05
-2.28355e-07
1.91807e-05
-2.5757e-07
1.9165e-05
-2.88506e-07
1.91471e-05
-3.22117e-07
1.91267e-05
-3.59485e-07
1.91033e-05
-4.01772e-07
1.90765e-05
-4.50195e-07
1.90454e-05
-5.06031e-07
1.90094e-05
-5.70647e-07
1.89671e-05
-6.45519e-07
1.89173e-05
-7.32216e-07
1.88582e-05
-8.32348e-07
1.87876e-05
-9.47502e-07
1.87024e-05
-1.07916e-06
1.8599e-05
-1.22863e-06
1.84723e-05
-1.39692e-06
1.83156e-05
-1.58458e-06
1.812e-05
-1.79149e-06
1.78727e-05
-2.01642e-06
1.75556e-05
-2.25628e-06
1.71452e-05
-2.50624e-06
-2.74998e-06
1.65911e-05
1.92475e-05
-1.13109e-08
1.92454e-05
-3.46544e-08
1.92419e-05
-5.91509e-08
1.92367e-05
-8.4389e-08
1.92298e-05
-1.10041e-07
1.92211e-05
-1.35866e-07
1.92106e-05
-1.61738e-07
1.91982e-05
-1.87696e-07
1.91839e-05
-2.13999e-07
1.91674e-05
-2.41141e-07
1.91488e-05
-2.69834e-07
1.91276e-05
-3.0095e-07
1.91036e-05
-3.35475e-07
1.90763e-05
-3.74457e-07
1.90451e-05
-4.18984e-07
1.90092e-05
-4.70185e-07
1.89678e-05
-5.29247e-07
1.89197e-05
-5.97418e-07
1.88635e-05
-6.75974e-07
1.87973e-05
-7.66159e-07
1.87189e-05
-8.69087e-07
1.86253e-05
-9.8563e-07
1.8513e-05
-1.11627e-06
1.8377e-05
-1.26093e-06
1.8211e-05
-1.41861e-06
1.80066e-05
-1.58703e-06
1.77521e-05
-1.76193e-06
1.7431e-05
-1.93525e-06
1.70227e-05
-2.09793e-06
-2.21068e-06
1.64834e-05
1.92474e-05
-1.05507e-08
1.9245e-05
-3.23184e-08
1.9241e-05
-5.50809e-08
1.9235e-05
-7.84296e-08
1.9227e-05
-1.0208e-07
1.9217e-05
-1.25841e-07
1.92049e-05
-1.49608e-07
1.91906e-05
-1.73412e-07
1.91741e-05
-1.97487e-07
1.91552e-05
-2.2229e-07
1.91339e-05
-2.48466e-07
1.91097e-05
-2.76805e-07
1.90824e-05
-3.08188e-07
1.90515e-05
-3.43547e-07
1.90164e-05
-3.83838e-07
1.89762e-05
-4.30039e-07
1.89302e-05
-4.83158e-07
1.8877e-05
-5.4422e-07
1.88152e-05
-6.14229e-07
1.87431e-05
-6.94084e-07
1.86585e-05
-7.84474e-07
1.85586e-05
-8.85732e-07
1.844e-05
-9.97638e-07
1.82982e-05
-1.11917e-06
1.81277e-05
-1.24809e-06
1.79211e-05
-1.38037e-06
1.76685e-05
-1.5094e-06
1.73567e-05
-1.62338e-06
1.69691e-05
-1.71033e-06
-1.71455e-06
1.64729e-05
1.92473e-05
-9.71342e-09
1.92447e-05
-2.97485e-08
1.92402e-05
-5.05718e-08
1.92336e-05
-7.17789e-08
1.92246e-05
-9.31611e-08
1.92134e-05
-1.14601e-07
1.91998e-05
-1.36012e-07
1.91838e-05
-1.57416e-07
1.91654e-05
-1.79021e-07
1.91443e-05
-2.01243e-07
1.91205e-05
-2.24661e-07
1.90937e-05
-2.49975e-07
1.90634e-05
-2.77961e-07
1.90293e-05
-3.09431e-07
1.89907e-05
-3.45208e-07
1.89468e-05
-3.86124e-07
1.88966e-05
-4.33011e-07
1.88391e-05
-4.86689e-07
1.87728e-05
-5.47911e-07
1.8696e-05
-6.17278e-07
1.86066e-05
-6.95114e-07
1.85022e-05
-7.81309e-07
1.83797e-05
-8.75097e-07
1.82352e-05
-9.74753e-07
1.80643e-05
-1.07713e-06
1.78609e-05
-1.17701e-06
1.76178e-05
-1.26628e-06
1.73253e-05
-1.33086e-06
1.69723e-05
-1.35732e-06
-1.28154e-06
1.65392e-05
1.92472e-05
-8.82591e-09
1.92445e-05
-2.7026e-08
1.92397e-05
-4.57253e-08
1.92324e-05
-6.45434e-08
1.92227e-05
-8.34073e-08
1.92104e-05
-1.02289e-07
1.91955e-05
-1.21115e-07
1.9178e-05
-1.39892e-07
1.91577e-05
-1.58809e-07
1.91347e-05
-1.78237e-07
1.91088e-05
-1.98686e-07
1.90796e-05
-2.20765e-07
1.90467e-05
-2.4514e-07
1.90098e-05
-2.72503e-07
1.89681e-05
-3.03549e-07
1.8921e-05
-3.38966e-07
1.88674e-05
-3.79424e-07
1.88063e-05
-4.25557e-07
1.87363e-05
-4.77899e-07
1.86558e-05
-5.36801e-07
1.8563e-05
-6.02301e-07
1.84556e-05
-6.73963e-07
1.83312e-05
-7.50646e-07
1.81866e-05
-8.30188e-07
1.80184e-05
-9.08933e-07
1.78224e-05
-9.81059e-07
1.7594e-05
-1.03781e-06
1.73276e-05
-1.06445e-06
1.70176e-05
-1.04734e-06
-9.21765e-07
1.66578e-05
1.92472e-05
-7.93356e-09
1.92445e-05
-2.42705e-08
1.92394e-05
-4.06574e-08
1.92317e-05
-5.68269e-08
1.92212e-05
-7.29437e-08
1.9208e-05
-8.90656e-08
1.9192e-05
-1.05103e-07
1.91732e-05
-1.21052e-07
1.91514e-05
-1.37086e-07
1.91267e-05
-1.53535e-07
1.90989e-05
-1.70833e-07
1.90676e-05
-1.89495e-07
1.90326e-05
-2.1008e-07
1.89932e-05
-2.33164e-07
1.8949e-05
-2.59314e-07
1.88991e-05
-2.89082e-07
1.88427e-05
-3.22989e-07
1.87786e-05
-3.61506e-07
1.87057e-05
-4.04987e-07
1.86225e-05
-4.53585e-07
1.85273e-05
-5.07135e-07
1.84183e-05
-5.64996e-07
1.82935e-05
-6.25836e-07
1.81507e-05
-6.87322e-07
1.79874e-05
-7.45683e-07
1.78014e-05
-7.95081e-07
1.75906e-05
-8.2694e-07
1.73534e-05
-8.27286e-07
1.70895e-05
-7.83397e-07
-6.36458e-07
1.68042e-05
1.92473e-05
-7.11933e-09
1.92447e-05
-2.16755e-08
1.92396e-05
-3.55045e-08
1.92315e-05
-4.87341e-08
1.92204e-05
-6.1888e-08
1.92064e-05
-7.50615e-08
1.91894e-05
-8.8129e-08
1.91695e-05
-1.01081e-07
1.91465e-05
-1.14077e-07
1.91203e-05
-1.27395e-07
1.90909e-05
-1.41395e-07
1.90579e-05
-1.56496e-07
1.9021e-05
-1.73152e-07
1.89796e-05
-1.91822e-07
1.89333e-05
-2.12954e-07
1.88811e-05
-2.36972e-07
1.88224e-05
-2.64265e-07
1.87561e-05
-2.95165e-07
1.8681e-05
-3.29884e-07
1.85958e-05
-3.68429e-07
1.84992e-05
-4.10506e-07
1.83896e-05
-4.55393e-07
1.82655e-05
-5.01745e-07
1.81255e-05
-5.47309e-07
1.79684e-05
-5.88551e-07
1.77934e-05
-6.20117e-07
1.76008e-05
-6.34331e-07
1.73926e-05
-6.19076e-07
1.71728e-05
-5.63617e-07
-4.19674e-07
1.6956e-05
1.92476e-05
-6.54068e-09
1.92454e-05
-1.9508e-08
1.92403e-05
-3.0416e-08
1.9232e-05
-4.04325e-08
1.92206e-05
-5.04497e-08
1.9206e-05
-6.04889e-08
1.91883e-05
-7.0401e-08
1.91674e-05
-8.01974e-08
1.91433e-05
-9.00183e-08
1.9116e-05
-1.00079e-07
1.90853e-05
-1.10658e-07
1.90508e-05
-1.22081e-07
1.90124e-05
-1.34698e-07
1.89694e-05
-1.4886e-07
1.89214e-05
-1.64898e-07
1.88675e-05
-1.83115e-07
1.8807e-05
-2.03783e-07
1.8739e-05
-2.27123e-07
1.86624e-05
-2.53241e-07
1.8576e-05
-2.82032e-07
1.84786e-05
-3.13147e-07
1.83691e-05
-3.45896e-07
1.82464e-05
-3.7907e-07
1.81098e-05
-4.10712e-07
1.79591e-05
-4.37834e-07
1.77949e-05
-4.55955e-07
1.76194e-05
-4.5882e-07
1.74372e-05
-4.36813e-07
1.72557e-05
-3.82165e-07
-2.59359e-07
1.70954e-05
1.92483e-05
-6.734e-09
1.92467e-05
-1.78983e-08
1.92417e-05
-2.53494e-08
1.92332e-05
-3.19604e-08
1.92215e-05
-3.87226e-08
1.92065e-05
-4.54989e-08
1.91882e-05
-5.21516e-08
1.91667e-05
-5.87004e-08
1.91419e-05
-6.52447e-08
1.91138e-05
-7.1941e-08
1.90821e-05
-7.89993e-08
1.90467e-05
-8.66639e-08
1.90072e-05
-9.51843e-08
1.89631e-05
-1.04795e-07
1.8914e-05
-1.1571e-07
1.8859e-05
-1.28117e-07
1.87974e-05
-1.42178e-07
1.87283e-05
-1.58043e-07
1.86508e-05
-1.75739e-07
1.85638e-05
-1.95063e-07
1.84663e-05
-2.15682e-07
1.83575e-05
-2.37054e-07
1.82367e-05
-2.58221e-07
1.81036e-05
-2.77661e-07
1.79589e-05
-2.93136e-07
1.78042e-05
-3.01296e-07
1.76431e-05
-2.97691e-07
1.74814e-05
-2.75118e-07
1.733e-05
-2.30752e-07
-1.3919e-07
1.72098e-05
1.9251e-05
-9.63808e-09
1.92493e-05
-1.6181e-08
1.92437e-05
-1.97774e-08
1.92351e-05
-2.32631e-08
1.92229e-05
-2.66125e-08
1.92073e-05
-2.98378e-08
1.91881e-05
-3.30188e-08
1.91657e-05
-3.62038e-08
1.91399e-05
-3.94527e-08
1.91108e-05
-4.28578e-08
1.90783e-05
-4.65206e-08
1.90422e-05
-5.0538e-08
1.9002e-05
-5.50078e-08
1.89572e-05
-6.00323e-08
1.89072e-05
-6.57147e-08
1.88513e-05
-7.21488e-08
1.87885e-05
-7.9402e-08
1.87179e-05
-8.74644e-08
1.86385e-05
-9.63095e-08
1.85493e-05
-1.05927e-07
1.84498e-05
-1.16135e-07
1.83393e-05
-1.26535e-07
1.82176e-05
-1.36544e-07
1.80852e-05
-1.45275e-07
1.79435e-05
-1.5143e-07
1.77954e-05
-1.53139e-07
1.76456e-05
-1.47907e-07
1.75021e-05
-1.31685e-07
1.7374e-05
-1.02603e-07
-3.08107e-08
1.72656e-05
1.92385e-05
1.92223e-05
1.92025e-05
1.91793e-05
1.91527e-05
1.91228e-05
1.90898e-05
1.90536e-05
1.90141e-05
1.89713e-05
1.89248e-05
1.88742e-05
1.88192e-05
1.87592e-05
1.86935e-05
1.86213e-05
1.85419e-05
1.84545e-05
1.83582e-05
1.82522e-05
1.81361e-05
1.80096e-05
1.7873e-05
1.77277e-05
1.75763e-05
1.74232e-05
1.72753e-05
1.71436e-05
1.7041e-05
1.70102e-05
2.23151e-05
-1.05707e-05
1.10115e-05
2.18684e-05
-1.07047e-05
1.11514e-05
2.13934e-05
-1.08318e-05
1.13068e-05
2.08868e-05
-1.09476e-05
1.14542e-05
2.03552e-05
-1.10612e-05
1.15927e-05
1.98049e-05
-1.11767e-05
1.1727e-05
1.92401e-05
-1.1295e-05
1.18599e-05
1.86637e-05
-1.14173e-05
1.19937e-05
1.80777e-05
-1.15447e-05
1.21307e-05
1.7483e-05
-1.16783e-05
1.2273e-05
1.68795e-05
-1.18186e-05
1.2422e-05
1.62669e-05
-1.19661e-05
1.25787e-05
1.56443e-05
-1.21217e-05
1.27443e-05
1.50108e-05
-1.22864e-05
1.29199e-05
1.43655e-05
-1.24619e-05
1.31072e-05
1.37073e-05
-1.26498e-05
1.33079e-05
1.30348e-05
-1.28522e-05
1.35247e-05
1.2346e-05
-1.30716e-05
1.37605e-05
1.16382e-05
-1.33109e-05
1.40187e-05
1.09082e-05
-1.35736e-05
1.43036e-05
1.01515e-05
-1.38638e-05
1.46205e-05
9.36248e-06
-1.41868e-05
1.49758e-05
8.53341e-06
-1.45485e-05
1.53775e-05
7.65393e-06
-1.49572e-05
1.58366e-05
6.70976e-06
-1.54202e-05
1.63643e-05
5.68052e-06
-1.59529e-05
1.69822e-05
4.54659e-06
-1.65575e-05
1.76915e-05
3.22719e-06
-1.72779e-05
1.85973e-05
1.80946e-06
-1.80084e-05
1.94262e-05
-1.92149e-05
2.10244e-05
2.24588e-05
-1.01016e-05
2.19538e-05
-1.01998e-05
2.14227e-05
-1.03006e-05
2.08762e-05
-1.0401e-05
2.03191e-05
-1.05041e-05
1.9754e-05
-1.06115e-05
1.91821e-05
-1.07232e-05
1.8604e-05
-1.08391e-05
1.80189e-05
-1.09597e-05
1.74261e-05
-1.10854e-05
1.68244e-05
-1.12168e-05
1.62129e-05
-1.13546e-05
1.55908e-05
-1.14996e-05
1.49575e-05
-1.16531e-05
1.4312e-05
-1.18164e-05
1.36531e-05
-1.19909e-05
1.29792e-05
-1.21783e-05
1.22882e-05
-1.23806e-05
1.15774e-05
-1.26001e-05
1.08433e-05
-1.28396e-05
1.00817e-05
-1.31022e-05
9.28668e-06
-1.33918e-05
8.45085e-06
-1.37126e-05
7.56419e-06
-1.40705e-05
6.61343e-06
-1.44694e-05
5.58104e-06
-1.49205e-05
4.44228e-06
-1.54188e-05
3.16e-06
-1.59957e-05
1.73617e-06
-1.65846e-05
-1.74787e-05
2.23678e-05
-9.5904e-06
2.18421e-05
-9.67406e-06
2.13041e-05
-9.7627e-06
2.07592e-05
-9.85609e-06
2.02086e-05
-9.95349e-06
1.96514e-05
-1.00543e-05
1.90866e-05
-1.01584e-05
1.85135e-05
-1.0266e-05
1.79315e-05
-1.03777e-05
1.73402e-05
-1.04941e-05
1.6739e-05
-1.06157e-05
1.61278e-05
-1.07433e-05
1.5506e-05
-1.08778e-05
1.48728e-05
-1.102e-05
1.42273e-05
-1.11709e-05
1.35681e-05
-1.13317e-05
1.28934e-05
-1.15036e-05
1.2201e-05
-1.16882e-05
1.14882e-05
-1.18873e-05
1.07515e-05
-1.21029e-05
9.9866e-06
-1.23373e-05
9.18783e-06
-1.2593e-05
8.348e-06
-1.28728e-05
7.45763e-06
-1.31801e-05
6.50449e-06
-1.35163e-05
5.47243e-06
-1.38885e-05
4.33924e-06
-1.42856e-05
3.08003e-06
-1.47364e-05
1.6645e-06
-1.51691e-05
-1.58143e-05
2.22706e-05
-9.07075e-06
2.17423e-05
-9.14574e-06
2.1205e-05
-9.22543e-06
2.06604e-05
-9.31151e-06
2.01088e-05
-9.40182e-06
1.95492e-05
-9.49477e-06
1.89813e-05
-9.5905e-06
1.8405e-05
-9.68969e-06
1.78201e-05
-9.79289e-06
1.72266e-05
-9.90052e-06
1.66239e-05
-1.00131e-05
1.60116e-05
-1.0131e-05
1.53888e-05
-1.0255e-05
1.47546e-05
-1.03857e-05
1.41076e-05
-1.05239e-05
1.34465e-05
-1.06705e-05
1.27694e-05
-1.08265e-05
1.20741e-05
-1.0993e-05
1.1358e-05
-1.11712e-05
1.06176e-05
-1.13625e-05
9.84863e-06
-1.15683e-05
9.04577e-06
-1.17901e-05
8.20219e-06
-1.20292e-05
7.30914e-06
-1.22871e-05
6.35565e-06
-1.25628e-05
5.32726e-06
-1.28601e-05
4.20564e-06
-1.3164e-05
2.9702e-06
-1.3501e-05
1.58443e-06
-1.37833e-05
-1.42298e-05
2.2136e-05
-8.54509e-06
2.1603e-05
-8.61278e-06
2.10621e-05
-8.68456e-06
2.05141e-05
-8.76353e-06
1.99592e-05
-8.84691e-06
1.9397e-05
-8.93257e-06
1.88272e-05
-9.02069e-06
1.82496e-05
-9.11207e-06
1.76639e-05
-9.20715e-06
1.70695e-05
-9.30619e-06
1.6466e-05
-9.4095e-06
1.58525e-05
-9.5175e-06
1.52281e-05
-9.63068e-06
1.4592e-05
-9.74957e-06
1.39428e-05
-9.87475e-06
1.32791e-05
-1.00069e-05
1.25993e-05
-1.01466e-05
1.1901e-05
-1.02947e-05
1.11816e-05
-1.04518e-05
1.04379e-05
-1.06188e-05
9.66576e-06
-1.07962e-05
8.86019e-06
-1.09846e-05
8.01494e-06
-1.1184e-05
7.12211e-06
-1.13942e-05
6.17209e-06
-1.16128e-05
5.15233e-06
-1.18403e-05
4.04803e-06
-1.20597e-05
2.84075e-06
-1.22937e-05
1.4988e-06
-1.24414e-05
-1.2731e-05
2.19622e-05
-8.01458e-06
2.14252e-05
-8.07577e-06
2.08811e-05
-8.14043e-06
2.03303e-05
-8.21271e-06
1.97728e-05
-8.28943e-06
1.92083e-05
-8.36805e-06
1.86363e-05
-8.44871e-06
1.80565e-05
-8.53227e-06
1.74685e-05
-8.61914e-06
1.68717e-05
-8.70945e-06
1.62656e-05
-8.80341e-06
1.56495e-05
-8.90136e-06
1.50225e-05
-9.00366e-06
1.43836e-05
-9.11066e-06
1.37316e-05
-9.22275e-06
1.3065e-05
-9.34031e-06
1.23821e-05
-9.46373e-06
1.16809e-05
-9.59338e-06
1.09586e-05
-9.72955e-06
1.02122e-05
-9.87244e-06
9.43809e-06
-1.0022e-05
8.63152e-06
-1.0178e-05
7.78697e-06
-1.03394e-05
6.89754e-06
-1.05048e-05
5.95505e-06
-1.06703e-05
4.94893e-06
-1.08342e-05
3.86756e-06
-1.09783e-05
2.69501e-06
-1.11212e-05
1.40817e-06
-1.11545e-05
-1.13229e-05
2.17432e-05
-7.47936e-06
2.1202e-05
-7.53459e-06
2.06542e-05
-7.59263e-06
2.01e-05
-7.65845e-06
1.95392e-05
-7.72865e-06
1.89715e-05
-7.80035e-06
1.83964e-05
-7.87367e-06
1.78137e-05
-7.94951e-06
1.72228e-05
-8.02823e-06
1.66232e-05
-8.10988e-06
1.60143e-05
-8.19455e-06
1.53955e-05
-8.28248e-06
1.47657e-05
-8.37389e-06
1.4124e-05
-8.469e-06
1.34693e-05
-8.568e-06
1.28e-05
-8.67105e-06
1.21146e-05
-8.7783e-06
1.1411e-05
-8.88978e-06
1.06869e-05
-9.00542e-06
9.93939e-06
-9.12496e-06
9.16517e-06
-9.24782e-06
8.36017e-06
-9.373e-06
7.51955e-06
-9.49878e-06
6.63749e-06
-9.62276e-06
5.70726e-06
-9.74006e-06
4.7203e-06
-9.84722e-06
3.66798e-06
-9.926e-06
2.5373e-06
-9.99049e-06
1.31437e-06
-9.93159e-06
-1.00085e-05
2.14731e-05
-6.93936e-06
2.09276e-05
-6.98907e-06
2.03759e-05
-7.04092e-06
1.9818e-05
-7.10051e-06
1.92536e-05
-7.1643e-06
1.86825e-05
-7.22924e-06
1.81042e-05
-7.29537e-06
1.75183e-05
-7.36361e-06
1.69244e-05
-7.43428e-06
1.63218e-05
-7.50734e-06
1.57101e-05
-7.5828e-06
1.50884e-05
-7.66079e-06
1.44559e-05
-7.74142e-06
1.38117e-05
-7.82479e-06
1.31546e-05
-7.91091e-06
1.24833e-05
-7.99977e-06
1.17963e-05
-8.09127e-06
1.10917e-05
-8.18519e-06
1.03674e-05
-8.28114e-06
9.62093e-06
-8.37847e-06
8.84929e-06
-8.47617e-06
8.04903e-06
-8.57275e-06
7.21614e-06
-8.6659e-06
6.3459e-06
-8.75251e-06
5.43304e-06
-8.8272e-06
4.47098e-06
-8.88515e-06
3.4539e-06
-8.90892e-06
2.37179e-06
-8.90838e-06
1.21929e-06
-8.77909e-06
-8.78919e-06
2.11468e-05
-6.39459e-06
2.05969e-05
-6.43917e-06
2.00412e-05
-6.48527e-06
1.94796e-05
-6.53883e-06
1.89116e-05
-6.59635e-06
1.8337e-05
-6.65467e-06
1.77555e-05
-6.71378e-06
1.71664e-05
-6.77459e-06
1.65695e-05
-6.83738e-06
1.59642e-05
-6.90204e-06
1.53499e-05
-6.96849e-06
1.47259e-05
-7.03679e-06
1.40915e-05
-7.10695e-06
1.34456e-05
-7.17893e-06
1.27873e-05
-7.25263e-06
1.21154e-05
-7.32785e-06
1.14285e-05
-7.40433e-06
1.07249e-05
-7.48161e-06
1.00028e-05
-7.55906e-06
9.26009e-06
-7.63576e-06
8.49428e-06
-7.71036e-06
7.70255e-06
-7.78102e-06
6.88171e-06
-7.84506e-06
6.02814e-06
-7.89894e-06
5.13798e-06
-7.93704e-06
4.20656e-06
-7.95373e-06
3.23057e-06
-7.93293e-06
2.2029e-06
-7.88071e-06
1.12543e-06
-7.70163e-06
-7.66376e-06
2.07607e-05
-5.84521e-06
2.02066e-05
-5.8851e-06
1.96472e-05
-5.92589e-06
1.90821e-05
-5.97368e-06
1.85108e-05
-6.02509e-06
1.79332e-05
-6.077e-06
1.73487e-05
-6.12936e-06
1.67571e-05
-6.183e-06
1.61579e-05
-6.23819e-06
1.55507e-05
-6.29476e-06
1.49347e-05
-6.35257e-06
1.43095e-05
-6.41158e-06
1.36743e-05
-6.47174e-06
1.30283e-05
-6.5329e-06
1.23705e-05
-6.59485e-06
1.16999e-05
-6.65727e-06
1.10153e-05
-6.71973e-06
1.03153e-05
-6.78163e-06
9.59842e-06
-6.84215e-06
8.86282e-06