/*--------------------------------*- C++ -*----------------------------------*\
  =========                 |
  \\      /  F ield         | OpenFOAM: The Open Source CFD Toolbox
   \\    /   O peration     | Website:  https://openfoam.org
    \\  /    A nd           | Version:  11
     \\/     M anipulation  |
\*---------------------------------------------------------------------------*/
FoamFile
{
    format      ascii;
    class       volVectorField;
    location    "9";
    object      U;
}
// * * * * * * * * * * * * * * * * * * * * * * * * * * * * * * * * * * * * * //

dimensions      [0 1 -1 0 0 0 0];

internalField   nonuniform List<vector> 
12600
(
(0.412293 4.73269e-05 0)
(0.412242 8.82299e-05 0)
(0.412186 7.44554e-05 0)
(0.412153 5.82358e-05 0)
(0.41218 3.82079e-05 0)
(0.412278 1.58546e-05 0)
(0.412443 -6.08724e-06 0)
(0.412676 -2.8539e-05 0)
(0.41298 -5.27489e-05 0)
(0.413364 -8.17864e-05 0)
(0.413835 -0.000116789 0)
(0.414405 -0.000158243 0)
(0.415087 -0.000206259 0)
(0.415899 -0.000261488 0)
(0.416863 -0.000325486 0)
(0.418005 -0.000400451 0)
(0.419357 -0.000488954 0)
(0.420957 -0.000593628 0)
(0.42285 -0.000717107 0)
(0.425087 -0.000862321 0)
(0.427731 -0.00103252 0)
(0.430847 -0.00123114 0)
(0.434515 -0.00146165 0)
(0.438816 -0.00172758 0)
(0.443845 -0.00203386 0)
(0.449699 -0.0023763 0)
(0.456484 -0.00276657 0)
(0.46427 -0.00312363 0)
(0.473191 -0.00377217 0)
(0.48439 -0.00313076 0)
(0.412482 7.4378e-05 0)
(0.412609 5.76255e-05 0)
(0.412793 2.0147e-06 0)
(0.413023 -7.03858e-05 0)
(0.413311 -0.000144141 0)
(0.41367 -0.000218524 0)
(0.414106 -0.000295762 0)
(0.41462 -0.000377521 0)
(0.415214 -0.000464485 0)
(0.415887 -0.000557315 0)
(0.416639 -0.000658338 0)
(0.417473 -0.000771628 0)
(0.418401 -0.000902093 0)
(0.419441 -0.00105471 0)
(0.420615 -0.00123442 0)
(0.421947 -0.00144651 0)
(0.423468 -0.00169694 0)
(0.42521 -0.00199264 0)
(0.427215 -0.00234148 0)
(0.42953 -0.00275198 0)
(0.432208 -0.00323311 0)
(0.435312 -0.0037942 0)
(0.438916 -0.00444415 0)
(0.443099 -0.00519137 0)
(0.447952 -0.0060443 0)
(0.453572 -0.00700688 0)
(0.460073 -0.00809709 0)
(0.467545 -0.00922366 0)
(0.476181 -0.0107675 0)
(0.485833 -0.0106836 0)
(0.412482 -1.46309e-05 0)
(0.412569 -8.40063e-05 0)
(0.412732 -0.00019003 0)
(0.412955 -0.000309857 0)
(0.413237 -0.000432773 0)
(0.413585 -0.000560285 0)
(0.414004 -0.000694988 0)
(0.414494 -0.00083637 0)
(0.415057 -0.000982452 0)
(0.415695 -0.00113338 0)
(0.416415 -0.00129363 0)
(0.417225 -0.00147151 0)
(0.418135 -0.00167661 0)
(0.419159 -0.00191753 0)
(0.420313 -0.00220208 0)
(0.421619 -0.00253852 0)
(0.423106 -0.00293624 0)
(0.424806 -0.00340621 0)
(0.426757 -0.00396079 0)
(0.429008 -0.00461344 0)
(0.431611 -0.00537922 0)
(0.434632 -0.00627486 0)
(0.438144 -0.00731729 0)
(0.442231 -0.00852278 0)
(0.446988 -0.00990768 0)
(0.452522 -0.0114829 0)
(0.45893 -0.0132712 0)
(0.46639 -0.0151825 0)
(0.474819 -0.01758 0)
(0.485123 -0.0185317 0)
(0.412476 -4.87187e-05 0)
(0.412546 -0.000162153 0)
(0.412692 -0.000305797 0)
(0.412904 -0.000467599 0)
(0.413176 -0.000637922 0)
(0.413513 -0.000814107 0)
(0.413918 -0.000996124 0)
(0.414391 -0.00118432 0)
(0.414933 -0.00138031 0)
(0.415547 -0.00158789 0)
(0.416239 -0.0018132 0)
(0.417018 -0.00206445 0)
(0.417894 -0.0023512 0)
(0.418879 -0.00268381 0)
(0.419989 -0.00307338 0)
(0.421246 -0.00353216 0)
(0.422676 -0.0040739 0)
(0.424309 -0.00471442 0)
(0.426184 -0.00547167 0)
(0.428347 -0.00636567 0)
(0.43085 -0.0074183 0)
(0.433756 -0.008653 0)
(0.437139 -0.0100943 0)
(0.441083 -0.0117671 0)
(0.445682 -0.0136959 0)
(0.451051 -0.0158971 0)
(0.45729 -0.0184008 0)
(0.464609 -0.0211144 0)
(0.472895 -0.0244168 0)
(0.483255 -0.0264034 0)
(0.412473 -7.76449e-05 0)
(0.412531 -0.000245075 0)
(0.412662 -0.000437147 0)
(0.41286 -0.000647717 0)
(0.413118 -0.000869039 0)
(0.413438 -0.00109736 0)
(0.413821 -0.00133224 0)
(0.414271 -0.00157435 0)
(0.414787 -0.00182556 0)
(0.415373 -0.00209019 0)
(0.416033 -0.00237578 0)
(0.416774 -0.00269272 0)
(0.417606 -0.00305318 0)
(0.41854 -0.00347036 0)
(0.419594 -0.00395846 0)
(0.420786 -0.00453313 0)
(0.42214 -0.00521201 0)
(0.423688 -0.00601511 0)
(0.425465 -0.00696506 0)
(0.427515 -0.00808721 0)
(0.429888 -0.00940972 0)
(0.432645 -0.0109635 0)
(0.435858 -0.0127815 0)
(0.43961 -0.0148977 0)
(0.443995 -0.0173467 0)
(0.449136 -0.0201566 0)
(0.455132 -0.023368 0)
(0.462227 -0.0269074 0)
(0.470284 -0.0311306 0)
(0.480606 -0.0342845 0)
(0.412471 -0.000102448 0)
(0.412522 -0.000318043 0)
(0.41264 -0.000554642 0)
(0.412824 -0.000808922 0)
(0.413065 -0.00107507 0)
(0.413365 -0.00134889 0)
(0.413726 -0.00162906 0)
(0.414148 -0.00191649 0)
(0.414633 -0.00221439 0)
(0.415183 -0.00252894 0)
(0.415801 -0.00286946 0)
(0.416496 -0.00324783 0)
(0.417274 -0.00367786 0)
(0.418148 -0.00417481 0)
(0.419132 -0.00475549 0)
(0.420245 -0.00543861 0)
(0.421509 -0.00624538 0)
(0.422952 -0.00720007 0)
(0.424608 -0.0083304 0)
(0.426518 -0.00966764 0)
(0.428728 -0.0112466 0)
(0.431298 -0.0131057 0)
(0.434296 -0.0152863 0)
(0.437804 -0.0178328 0)
(0.441915 -0.0207915 0)
(0.446756 -0.0242042 0)
(0.452431 -0.0281242 0)
(0.459214 -0.0325044 0)
(0.466943 -0.037678 0)
(0.47714 -0.0420744 0)
(0.41247 -0.000123967 0)
(0.412515 -0.000382998 0)
(0.412622 -0.000662286 0)
(0.412789 -0.000959088 0)
(0.413012 -0.00126862 0)
(0.413289 -0.00158673 0)
(0.413621 -0.00191181 0)
(0.414011 -0.00224492 0)
(0.414459 -0.00258988 0)
(0.414967 -0.00295378 0)
(0.415538 -0.00334709 0)
(0.416178 -0.00378324 0)
(0.416894 -0.00427794 0)
(0.417697 -0.00484875 0)
(0.418601 -0.00551504 0)
(0.419622 -0.0062985 0)
(0.42078 -0.0072237 0)
(0.422101 -0.00831878 0)
(0.423615 -0.00961587 0)
(0.42536 -0.0111515 0)
(0.427379 -0.0129667 0)
(0.429727 -0.0151073 0)
(0.432468 -0.0176241 0)
(0.435681 -0.0205722 0)
(0.439458 -0.0240114 0)
(0.443925 -0.0280005 0)
(0.449188 -0.0326111 0)
(0.455552 -0.0378324 0)
(0.462828 -0.0439773 0)
(0.472766 -0.049707 0)
(0.412469 -0.000143011 0)
(0.412509 -0.000441134 0)
(0.412605 -0.000759963 0)
(0.412755 -0.0010963 0)
(0.412957 -0.00144573 0)
(0.413208 -0.00180419 0)
(0.41351 -0.00216973 0)
(0.413864 -0.00254341 0)
(0.41427 -0.00292965 0)
(0.414731 -0.00333658 0)
(0.415248 -0.00377605 0)
(0.415826 -0.00426303 0)
(0.416473 -0.00481498 0)
(0.417197 -0.00545143 0)
(0.41801 -0.00619401 0)
(0.418926 -0.00706686 0)
(0.419965 -0.00809745 0)
(0.421147 -0.00931739 0)
(0.422501 -0.0107631 0)
(0.424058 -0.0124763 0)
(0.425858 -0.0145041 0)
(0.42795 -0.0168998 0)
(0.430393 -0.019723 0)
(0.43326 -0.0230405 0)
(0.436638 -0.0269267 0)
(0.440653 -0.0314602 0)
(0.445406 -0.0367348 0)
(0.451228 -0.0427847 0)
(0.457906 -0.0499079 0)
(0.467394 -0.0570527 0)
(0.412468 -0.00015983 0)
(0.412503 -0.000492635 0)
(0.412587 -0.000847039 0)
(0.41272 -0.00121918 0)
(0.412899 -0.00160464 0)
(0.413122 -0.00199937 0)
(0.413391 -0.00240132 0)
(0.413705 -0.00281164 0)
(0.414066 -0.00323527 0)
(0.414474 -0.00368119 0)
(0.414931 -0.00416228 0)
(0.415442 -0.00469477 0)
(0.416012 -0.00529764 0)
(0.416649 -0.00599218 0)
(0.417362 -0.00680197 0)
(0.418164 -0.00775336 0)
(0.419071 -0.00887637 0)
(0.4201 -0.0102056 0)
(0.421276 -0.0117813 0)
(0.422625 -0.0136495 0)
(0.424181 -0.0158628 0)
(0.425987 -0.0184814 0)
(0.428094 -0.0215737 0)
(0.430567 -0.025218 0)
(0.433485 -0.0295041 0)
(0.436966 -0.0345322 0)
(0.441107 -0.0404222 0)
(0.446247 -0.0472618 0)
(0.452156 -0.0553409 0)
(0.460942 -0.0639532 0)
(0.412467 -0.00017446 0)
(0.412497 -0.000537474 0)
(0.41257 -0.000923101 0)
(0.412685 -0.00132684 0)
(0.412839 -0.00174409 0)
(0.413032 -0.00217069 0)
(0.413264 -0.00260453 0)
(0.413536 -0.00304681 0)
(0.413847 -0.0035028 0)
(0.414199 -0.00398215 0)
(0.414592 -0.00449862 0)
(0.415031 -0.00506956 0)
(0.415518 -0.0057153 0)
(0.416061 -0.00645861 0)
(0.416666 -0.00732472 0)
(0.417346 -0.00834174 0)
(0.41811 -0.00954172 0)
(0.418975 -0.0109618 0)
(0.419958 -0.0126452 0)
(0.421082 -0.0146419 0)
(0.422373 -0.0170093 0)
(0.423867 -0.0198136 0)
(0.425603 -0.0231312 0)
(0.427638 -0.0270512 0)
(0.430037 -0.0316785 0)
(0.432906 -0.0371356 0)
(0.436329 -0.0435708 0)
(0.440638 -0.0511306 0)
(0.445589 -0.0601043 0)
(0.453357 -0.0701802 0)
(0.412466 -0.000186874 0)
(0.412491 -0.00057553 0)
(0.412552 -0.000987761 0)
(0.412648 -0.00141852 0)
(0.412777 -0.00186287 0)
(0.412938 -0.00231654 0)
(0.413132 -0.00277733 0)
(0.413359 -0.00324647 0)
(0.413617 -0.00372952 0)
(0.413909 -0.00423662 0)
(0.414235 -0.00478226 0)
(0.414596 -0.00538471 0)
(0.414996 -0.00606534 0)
(0.415439 -0.00684813 0)
(0.415931 -0.00775953 0)
(0.416481 -0.00882899 0)
(0.417095 -0.0100901 0)
(0.417785 -0.0115818 0)
(0.418565 -0.0133498 0)
(0.41945 -0.015447 0)
(0.420459 -0.0179345 0)
(0.421617 -0.0208831 0)
(0.422955 -0.024376 0)
(0.424514 -0.0285116 0)
(0.426342 -0.0334084 0)
(0.428527 -0.0392098 0)
(0.431132 -0.0460928 0)
(0.434458 -0.054264 0)
(0.438258 -0.0640181 0)
(0.444643 -0.0754686 0)
(0.412465 -0.000197027 0)
(0.412485 -0.000606653 0)
(0.412533 -0.00104066 0)
(0.41261 -0.00149352 0)
(0.412712 -0.00196001 0)
(0.412841 -0.00243565 0)
(0.412995 -0.00291817 0)
(0.413174 -0.00340881 0)
(0.413378 -0.00391332 0)
(0.413607 -0.00444222 0)
(0.413862 -0.0050105 0)
(0.414142 -0.00563709 0)
(0.414451 -0.00634413 0)
(0.414791 -0.00715644 0)
(0.415166 -0.00810136 0)
(0.41558 -0.00920919 0)
(0.416038 -0.0105145 0)
(0.416548 -0.0120574 0)
(0.417116 -0.0138851 0)
(0.417752 -0.0160523 0)
(0.418467 -0.0186226 0)
(0.419275 -0.0216702 0)
(0.420194 -0.0252827 0)
(0.421247 -0.0295655 0)
(0.422464 -0.034648 0)
(0.423904 -0.0406908 0)
(0.425603 -0.0478964 0)
(0.427804 -0.0565269 0)
(0.430271 -0.0668864 0)
(0.434881 -0.0795112 0)
(0.412463 -0.000204876 0)
(0.412478 -0.000630701 0)
(0.412514 -0.00108149 0)
(0.412571 -0.00155135 0)
(0.412647 -0.00203475 0)
(0.412741 -0.00252705 0)
(0.412854 -0.00302586 0)
(0.412984 -0.00353244 0)
(0.413132 -0.00405263 0)
(0.413297 -0.00459716 0)
(0.413478 -0.00518134 0)
(0.413676 -0.00582451 0)
(0.413891 -0.00654929 0)
(0.414125 -0.00738102 0)
(0.414379 -0.00834747 0)
(0.414655 -0.00947936 0)
(0.414954 -0.0108116 0)
(0.415279 -0.0123848 0)
(0.415632 -0.0142466 0)
(0.416014 -0.0164526 0)
(0.416428 -0.0190672 0)
(0.416877 -0.0221659 0)
(0.417364 -0.0258384 0)
(0.417894 -0.0301936 0)
(0.418474 -0.0353676 0)
(0.419127 -0.0415323 0)
(0.419857 -0.0489089 0)
(0.420818 -0.0578037 0)
(0.421796 -0.0685288 0)
(0.424261 -0.0819982 0)
(0.412462 -0.000210392 0)
(0.412472 -0.000647578 0)
(0.412495 -0.00111007 0)
(0.412531 -0.00159166 0)
(0.41258 -0.00208659 0)
(0.41264 -0.00259006 0)
(0.41271 -0.00309958 0)
(0.412791 -0.00361638 0)
(0.412882 -0.00414631 0)
(0.412981 -0.0047002 0)
(0.413088 -0.00529348 0)
(0.413202 -0.00594563 0)
(0.413323 -0.00667947 0)
(0.41345 -0.00752047 0)
(0.413582 -0.00849643 0)
(0.413718 -0.00963796 0)
(0.413857 -0.0109797 0)
(0.413997 -0.0125621 0)
(0.414133 -0.0144323 0)
(0.414261 -0.0166453 0)
(0.414374 -0.0192648 0)
(0.414463 -0.0223654 0)
(0.414517 -0.0260358 0)
(0.414521 -0.0303848 0)
(0.414455 -0.035549 0)
(0.414302 -0.0417042 0)
(0.414029 -0.0490792 0)
(0.41368 -0.0580062 0)
(0.413068 -0.0687975 0)
(0.413097 -0.0826523 0)
(0.412461 -0.000213557 0)
(0.412465 -0.000657235 0)
(0.412476 -0.0011263 0)
(0.412492 -0.00161429 0)
(0.412513 -0.0021153 0)
(0.412538 -0.00262436 0)
(0.412567 -0.00313892 0)
(0.412597 -0.00366015 0)
(0.41263 -0.00419387 0)
(0.412663 -0.00475081 0)
(0.412695 -0.00534638 0)
(0.412725 -0.00599997 0)
(0.412752 -0.00673426 0)
(0.412772 -0.00757449 0)
(0.412783 -0.00854809 0)
(0.412781 -0.0096851 0)
(0.412761 -0.0110194 0)
(0.412717 -0.0125903 0)
(0.41264 -0.0144436 0)
(0.412519 -0.0166324 0)
(0.412337 -0.019218 0)
(0.412074 -0.0222716 0)
(0.411704 -0.0258782 0)
(0.411192 -0.0301415 0)
(0.410492 -0.0351925 0)
(0.409545 -0.0412011 0)
(0.408277 -0.04839 0)
(0.406608 -0.0570933 0)
(0.404379 -0.0676088 0)
(0.401821 -0.081284 0)
(0.41246 -0.000214395 0)
(0.412459 -0.00065971 0)
(0.412457 -0.0011302 0)
(0.412453 -0.00161926 0)
(0.412447 -0.00212084 0)
(0.412437 -0.0026299 0)
(0.412423 -0.00314384 0)
(0.412405 -0.00366374 0)
(0.41238 -0.00419529 0)
(0.412347 -0.00474906 0)
(0.412305 -0.00534021 0)
(0.412252 -0.00598785 0)
(0.412185 -0.00671423 0)
(0.4121 -0.007544 0)
(0.411992 -0.00850376 0)
(0.411855 -0.00962255 0)
(0.41168 -0.010933 0)
(0.411458 -0.0124726 0)
(0.411175 -0.0142848 0)
(0.410813 -0.0164198 0)
(0.410348 -0.0189344 0)
(0.409749 -0.0218947 0)
(0.408976 -0.0253783 0)
(0.407974 -0.0294796 0)
(0.406673 -0.0343172 0)
(0.404975 -0.0400449 0)
(0.402764 -0.0468642 0)
(0.399838 -0.0550834 0)
(0.396057 -0.0649659 0)
(0.390962 -0.0778426 0)
(0.412459 -0.000212941 0)
(0.412453 -0.000655113 0)
(0.412438 -0.00112195 0)
(0.412415 -0.00160678 0)
(0.412382 -0.00210347 0)
(0.412338 -0.002607 0)
(0.412283 -0.00311469 0)
(0.412215 -0.00362757 0)
(0.412134 -0.00415113 0)
(0.412037 -0.00469565 0)
(0.411922 -0.00527588 0)
(0.411788 -0.00591042 0)
(0.411629 -0.00662081 0)
(0.411442 -0.00743079 0)
(0.411218 -0.00836585 0)
(0.41095 -0.00945359 0)
(0.410627 -0.0107248 0)
(0.410235 -0.0122147 0)
(0.409756 -0.0139636 0)
(0.409167 -0.0160172 0)
(0.408436 -0.018427 0)
(0.407524 -0.0212514 0)
(0.406378 -0.0245583 0)
(0.404928 -0.0284284 0)
(0.403081 -0.0329616 0)
(0.400705 -0.0382863 0)
(0.397648 -0.044568 0)
(0.393603 -0.0520618 0)
(0.388434 -0.0609754 0)
(0.381076 -0.0724542 0)
(0.412458 -0.000209246 0)
(0.412447 -0.000643626 0)
(0.41242 -0.00110188 0)
(0.412378 -0.00157728 0)
(0.412319 -0.00206374 0)
(0.412242 -0.00255626 0)
(0.412146 -0.0030522 0)
(0.412031 -0.0035525 0)
(0.411894 -0.0040624 0)
(0.411735 -0.0045918 0)
(0.41155 -0.00515489 0)
(0.411337 -0.00576953 0)
(0.411091 -0.00645633 0)
(0.410804 -0.00723783 0)
(0.41047 -0.00813808 0)
(0.410078 -0.00918294 0)
(0.409615 -0.010401 0)
(0.409063 -0.0118245 0)
(0.408401 -0.0134899 0)
(0.407601 -0.0154378 0)
(0.406627 -0.0177131 0)
(0.405432 -0.0203651 0)
(0.403953 -0.0234492 0)
(0.402108 -0.0270296 0)
(0.399788 -0.0311824 0)
(0.396834 -0.0360027 0)
(0.393068 -0.0416084 0)
(0.388107 -0.0481789 0)
(0.381809 -0.0558473 0)
(0.372673 -0.0654303 0)
(0.412457 -0.000203412 0)
(0.412441 -0.000625541 0)
(0.412403 -0.00107043 0)
(0.412343 -0.00153137 0)
(0.412258 -0.00200238 0)
(0.41215 -0.0024786 0)
(0.412016 -0.00295747 0)
(0.411854 -0.00343981 0)
(0.411665 -0.00393062 0)
(0.411446 -0.00443931 0)
(0.411194 -0.00497938 0)
(0.410905 -0.00556777 0)
(0.410575 -0.00622391 0)
(0.410195 -0.00696892 0)
(0.409757 -0.00782518 0)
(0.409248 -0.0088165 0)
(0.408654 -0.00996892 0)
(0.407954 -0.0113114 0)
(0.407125 -0.0128761 0)
(0.406135 -0.0146978 0)
(0.404944 -0.0168139 0)
(0.4035 -0.0192636 0)
(0.401734 -0.0220887 0)
(0.399556 -0.0253345 0)
(0.396848 -0.0290504 0)
(0.393438 -0.0332932 0)
(0.389128 -0.038126 0)
(0.383503 -0.0436381 0)
(0.376409 -0.0498778 0)
(0.366132 -0.0572394 0)
(0.412456 -0.000195567 0)
(0.412436 -0.000601238 0)
(0.412387 -0.00102823 0)
(0.41231 -0.00146988 0)
(0.412202 -0.00192042 0)
(0.412063 -0.00237524 0)
(0.411892 -0.00283191 0)
(0.411687 -0.00329119 0)
(0.411448 -0.00375775 0)
(0.411172 -0.00424045 0)
(0.410856 -0.00475201 0)
(0.410496 -0.00530828 0)
(0.410087 -0.00592733 0)
(0.40962 -0.00662865 0)
(0.409085 -0.00743272 0)
(0.408468 -0.00836114 0)
(0.407753 -0.00943722 0)
(0.40692 -0.0106864 0)
(0.40594 -0.0121361 0)
(0.404783 -0.0138153 0)
(0.403403 -0.0157531 0)
(0.401747 -0.0179785 0)
(0.399745 -0.0205192 0)
(0.397302 -0.0234008 0)
(0.394299 -0.0266454 0)
(0.390562 -0.0302702 0)
(0.38589 -0.0342818 0)
(0.379878 -0.0386756 0)
(0.372353 -0.0434149 0)
(0.361639 -0.0484444 0)
(0.412455 -0.000185875 0)
(0.412431 -0.000571212 0)
(0.412373 -0.000976057 0)
(0.412279 -0.00139384 0)
(0.41215 -0.0018191 0)
(0.411983 -0.00224766 0)
(0.411777 -0.00267731 0)
(0.411532 -0.00310869 0)
(0.411246 -0.00354616 0)
(0.410916 -0.00399796 0)
(0.410541 -0.00447594 0)
(0.410115 -0.00499474 0)
(0.409633 -0.00557093 0)
(0.409085 -0.0062222 0)
(0.408461 -0.006967 0)
(0.407746 -0.00782461 0)
(0.406923 -0.00881551 0)
(0.405969 -0.00996146 0)
(0.404858 -0.0112852 0)
(0.403555 -0.0128095 0)
(0.402016 -0.0145559 0)
(0.400188 -0.0165432 0)
(0.397999 -0.0187853 0)
(0.39536 -0.0212892 0)
(0.392155 -0.024051 0)
(0.388222 -0.0270505 0)
(0.38337 -0.0302425 0)
(0.377238 -0.0335351 0)
(0.369648 -0.0368166 0)
(0.359165 -0.039622 0)
(0.412454 -0.000174547 0)
(0.412426 -0.000536099 0)
(0.41236 -0.000914904 0)
(0.412253 -0.00130448 0)
(0.412103 -0.00169989 0)
(0.411911 -0.00209759 0)
(0.411673 -0.00249568 0)
(0.41139 -0.00289472 0)
(0.411061 -0.00329865 0)
(0.410682 -0.00371508 0)
(0.410252 -0.00415485 0)
(0.409765 -0.00463131 0)
(0.409216 -0.00515942 0)
(0.408595 -0.00575503 0)
(0.40789 -0.00643452 0)
(0.407087 -0.00721476 0)
(0.406168 -0.00811328 0)
(0.405109 -0.00914827 0)
(0.403885 -0.0103379 0)
(0.402459 -0.0116993 0)
(0.400791 -0.0132466 0)
(0.398827 -0.0149894 0)
(0.396502 -0.0169294 0)
(0.393732 -0.0190572 0)
(0.390413 -0.0213461 0)
(0.386403 -0.0237445 0)
(0.381535 -0.0261638 0)
(0.375522 -0.0284413 0)
(0.368188 -0.0304084 0)
(0.358488 -0.0312801 0)
(0.412453 -0.00016186 0)
(0.412423 -0.000496715 0)
(0.41235 -0.000845965 0)
(0.41223 -0.00120325 0)
(0.412063 -0.00156449 0)
(0.411847 -0.00192701 0)
(0.411581 -0.00228925 0)
(0.411264 -0.00265172 0)
(0.410895 -0.00301803 0)
(0.410472 -0.00339511 0)
(0.409992 -0.00379276 0)
(0.409451 -0.00422288 0)
(0.408842 -0.00469873 0)
(0.408154 -0.00523427 0)
(0.407378 -0.00584373 0)
(0.406497 -0.00654161 0)
(0.405494 -0.00734261 0)
(0.404346 -0.00826145 0)
(0.403026 -0.00931208 0)
(0.4015 -0.0105064 0)
(0.39973 -0.0118524 0)
(0.397665 -0.0133514 0)
(0.395248 -0.0149953 0)
(0.392405 -0.0167614 0)
(0.389047 -0.0186057 0)
(0.385063 -0.0204528 0)
(0.380315 -0.0221829 0)
(0.37461 -0.0235852 0)
(0.367783 -0.0244558 0)
(0.359252 -0.0238086 0)
(0.412453 -0.000148204 0)
(0.412421 -0.000454145 0)
(0.412343 -0.000770644 0)
(0.412214 -0.00109171 0)
(0.412032 -0.00141478 0)
(0.411795 -0.00173834 0)
(0.411504 -0.002061 0)
(0.411156 -0.00238302 0)
(0.410752 -0.00270765 0)
(0.410289 -0.00304121 0)
(0.409765 -0.0033925 0)
(0.409175 -0.003772 0)
(0.408512 -0.00419129 0)
(0.407767 -0.00466238 0)
(0.406928 -0.00519744 0)
(0.40598 -0.00580858 0)
(0.404905 -0.0065078 0)
(0.403682 -0.00730667 0)
(0.402283 -0.00821542 0)
(0.400678 -0.00924153 0)
(0.39883 -0.0103877 0)
(0.396696 -0.0116492 0)
(0.394225 -0.0130103 0)
(0.391357 -0.0144393 0)
(0.388022 -0.0158808 0)
(0.38414 -0.0172449 0)
(0.379613 -0.0183946 0)
(0.374342 -0.0190956 0)
(0.368186 -0.0191303 0)
(0.361025 -0.0174416 0)
(0.412453 -0.000134172 0)
(0.41242 -0.000409983 0)
(0.41234 -0.000690693 0)
(0.412204 -0.000971374 0)
(0.41201 -0.00125219 0)
(0.411756 -0.00153326 0)
(0.411442 -0.00181342 0)
(0.411068 -0.00209262 0)
(0.410634 -0.00237357 0)
(0.410137 -0.00266176 0)
(0.409574 -0.0029648 0)
(0.408942 -0.00329168 0)
(0.408233 -0.00365223 0)
(0.407438 -0.00405657 0)
(0.406546 -0.0045148 0)
(0.405541 -0.00503685 0)
(0.404406 -0.00563226 0)
(0.403121 -0.00630979 0)
(0.401659 -0.00707649 0)
(0.399993 -0.00793622 0)
(0.39809 -0.00888776 0)
(0.395912 -0.0099222 0)
(0.393417 -0.0110193 0)
(0.39056 -0.0121424 0)
(0.38729 -0.0132312 0)
(0.383562 -0.0141908 0)
(0.379315 -0.014881 0)
(0.374542 -0.0150687 0)
(0.369132 -0.014542 0)
(0.363367 -0.0122912 0)
(0.412453 -0.000120658 0)
(0.412423 -0.000366481 0)
(0.412345 -0.000608743 0)
(0.412205 -0.000845053 0)
(0.412 -0.00107931 0)
(0.411731 -0.00131293 0)
(0.411398 -0.00154493 0)
(0.411002 -0.00177554 0)
(0.410542 -0.00200744 0)
(0.410016 -0.00224539 0)
(0.409421 -0.00249569 0)
(0.408753 -0.00276582 0)
(0.408005 -0.00306388 0)
(0.407169 -0.00339817 0)
(0.406232 -0.00377675 0)
(0.405181 -0.00420737 0)
(0.403997 -0.00469724 0)
(0.402662 -0.00525269 0)
(0.401153 -0.00587814 0)
(0.399442 -0.0065747 0)
(0.397501 -0.00733852 0)
(0.395299 -0.00815846 0)
(0.392802 -0.00901264 0)
(0.38998 -0.00986379 0)
(0.386802 -0.0106526 0)
(0.383251 -0.0112882 0)
(0.379305 -0.0116387 0)
(0.375032 -0.0114923 0)
(0.370358 -0.0106598 0)
(0.365871 -0.00826799 0)
(0.412455 -0.000109668 0)
(0.41243 -0.000325329 0)
(0.412359 -0.000525999 0)
(0.412221 -0.000716828 0)
(0.412009 -0.000906072 0)
(0.411729 -0.00109481 0)
(0.411381 -0.00128094 0)
(0.410968 -0.00146444 0)
(0.410486 -0.001648 0)
(0.409936 -0.00183585 0)
(0.409315 -0.00203317 0)
(0.408618 -0.0022459 0)
(0.407839 -0.00248039 0)
(0.406968 -0.00274312 0)
(0.405996 -0.00304035 0)
(0.404908 -0.00337796 0)
(0.403687 -0.00376132 0)
(0.402314 -0.00419491 0)
(0.400769 -0.0046812 0)
(0.399028 -0.00521924 0)
(0.397065 -0.00580365 0)
(0.394855 -0.00642289 0)
(0.392373 -0.00705614 0)
(0.389599 -0.00766919 0)
(0.386522 -0.00820916 0)
(0.38315 -0.00859683 0)
(0.379493 -0.00871976 0)
(0.375675 -0.00840353 0)
(0.371659 -0.00749744 0)
(0.368219 -0.00532694 0)
(0.412461 -0.000107837 0)
(0.412449 -0.000288067 0)
(0.41239 -0.000431141 0)
(0.412252 -0.000561621 0)
(0.412033 -0.000693607 0)
(0.411743 -0.000827379 0)
(0.411386 -0.000960204 0)
(0.410961 -0.00109153 0)
(0.410465 -0.00122301 0)
(0.409898 -0.00135761 0)
(0.409258 -0.00149921 0)
(0.40854 -0.00165239 0)
(0.407739 -0.00182199 0)
(0.406846 -0.00201281 0)
(0.405849 -0.00222918 0)
(0.404736 -0.0024749 0)
(0.403491 -0.00275323 0)
(0.402095 -0.003067 0)
(0.40053 -0.0034173 0)
(0.398773 -0.00380181 0)
(0.396802 -0.00421481 0)
(0.394596 -0.00464608 0)
(0.392139 -0.00507807 0)
(0.389421 -0.00548261 0)
(0.386442 -0.00581735 0)
(0.383232 -0.00601823 0)
(0.379825 -0.00599835 0)
(0.376374 -0.00562102 0)
(0.372889 -0.00479923 0)
(0.37019 -0.00307919 0)
(0.41248 -0.000136606 0)
(0.412503 -0.000305978 0)
(0.412445 -0.000403342 0)
(0.412299 -0.000482127 0)
(0.412071 -0.00056111 0)
(0.411768 -0.000640259 0)
(0.411395 -0.000718195 0)
(0.410949 -0.000795143 0)
(0.410431 -0.000872167 0)
(0.409843 -0.000951258 0)
(0.409184 -0.00103525 0)
(0.40845 -0.00112729 0)
(0.407634 -0.00123039 0)
(0.406727 -0.00134724 0)
(0.405715 -0.00148036 0)
(0.404583 -0.00163205 0)
(0.403315 -0.00180415 0)
(0.401892 -0.00199754 0)
(0.40029 -0.00221179 0)
(0.398487 -0.00244478 0)
(0.396469 -0.00269205 0)
(0.394222 -0.0029457 0)
(0.391735 -0.00319268 0)
(0.389012 -0.00341277 0)
(0.38607 -0.00357702 0)
(0.382952 -0.00364319 0)
(0.379737 -0.0035532 0)
(0.376557 -0.00321825 0)
(0.373611 -0.00256898 0)
(0.37094 -0.00126045 0)
(0.412262 -8.1465e-05 0)
(0.412077 -0.000170306 0)
(0.411734 -0.00021452 0)
(0.411265 -0.000247761 0)
(0.410717 -0.000278233 0)
(0.410108 -0.000305674 0)
(0.409435 -0.000331062 0)
(0.408694 -0.00035641 0)
(0.407884 -0.000383416 0)
(0.407003 -0.000413055 0)
(0.406046 -0.000445641 0)
(0.405008 -0.000481235 0)
(0.403879 -0.000520112 0)
(0.402649 -0.000562906 0)
(0.401305 -0.000610415 0)
(0.399831 -0.000663349 0)
(0.398212 -0.000722272 0)
(0.396428 -0.000787348 0)
(0.394463 -0.000858558 0)
(0.3923 -0.000935757 0)
(0.389923 -0.0010175 0)
(0.387324 -0.00110057 0)
(0.384504 -0.00118013 0)
(0.381478 -0.00124878 0)
(0.378287 -0.00129474 0)
(0.375002 -0.00130131 0)
(0.371743 -0.00124813 0)
(0.368697 -0.00109297 0)
(0.366122 -0.000883663 0)
(0.363964 8.86534e-05 0)
(0.48874 -0.00669269 -9.96349e-20)
(0.493213 -0.0101449 -9.89741e-20)
(0.497045 -0.0142731 -1.40952e-18)
(0.500049 -0.0187433 -4.04582e-19)
(0.502664 -0.023464 4.10382e-19)
(0.505077 -0.0284088 0)
(0.507327 -0.0335982 0)
(0.509466 -0.0390726 4.17057e-19)
(0.511574 -0.0448702 -4.23947e-19)
(0.513705 -0.0510231 -8.47549e-19)
(0.515888 -0.0575648 8.6214e-19)
(0.518129 -0.0645356 0)
(0.520435 -0.0719928 -8.66872e-19)
(0.522809 -0.0800076 8.82678e-19)
(0.52526 -0.0886681 0)
(0.527801 -0.0980814 1.76566e-18)
(0.53045 -0.108379 8.84599e-19)
(0.53322 -0.119723 8.72802e-19)
(0.536123 -0.132315 8.84362e-19)
(0.539167 -0.146405 8.63668e-19)
(0.542353 -0.162311 -8.7142e-19)
(0.54568 -0.180439 2.61472e-18)
(0.549106 -0.20132 0)
(0.552619 -0.225626 -1.62841e-18)
(0.555988 -0.254328 7.58774e-19)
(0.559278 -0.288557 -1.50752e-18)
(0.561659 -0.329796 -1.96899e-18)
(0.562144 -0.383635 0)
(0.56471 -0.433961 0)
(0.54344 -0.559437 -2.37183e-20)
(0.492841 -0.0151346 -1.6325e-18)
(0.495645 -0.0188342 0)
(0.49791 -0.0231843 0)
(0.499735 -0.0277932 -1.67101e-18)
(0.501446 -0.03259 1.68669e-18)
(0.503181 -0.0376123 1.70259e-18)
(0.504942 -0.0429104 -4.26492e-19)
(0.506732 -0.0485172 4.33677e-19)
(0.508568 -0.0544541 1.31896e-18)
(0.510449 -0.0607456 2.21333e-18)
(0.512362 -0.0674286 -8.85502e-19)
(0.514292 -0.0745546 1.81499e-18)
(0.516234 -0.0821896 9.10365e-19)
(0.518189 -0.0904116 9.32964e-19)
(0.520163 -0.0993119 9.27162e-19)
(0.522161 -0.109 1.87526e-18)
(0.524181 -0.119607 0)
(0.526218 -0.131296 -9.32788e-19)
(0.528256 -0.144265 -9.58965e-19)
(0.530272 -0.158762 0)
(0.532226 -0.175097 9.30768e-19)
(0.534065 -0.193661 9.58603e-19)
(0.535678 -0.21496 -1.89397e-18)
(0.536962 -0.239619 0)
(0.537554 -0.268541 8.49306e-19)
(0.537427 -0.302676 8.74363e-19)
(0.535258 -0.343714 -1.63715e-18)
(0.530922 -0.394624 6.17044e-19)
(0.525829 -0.447055 -6.38827e-19)
(0.497712 -0.559921 1.29811e-19)
(0.491341 -0.0232409 1.66191e-18)
(0.49321 -0.0268496 0)
(0.494836 -0.0311247 -2.11147e-19)
(0.496423 -0.0357206 3.63978e-18)
(0.49806 -0.0405571 -1.29269e-18)
(0.499741 -0.045649 -2.61373e-18)
(0.501423 -0.0510214 2.2172e-18)
(0.503083 -0.0566929 -4.44577e-19)
(0.504717 -0.0626882 -1.34279e-18)
(0.506322 -0.0690457 -4.32604e-19)
(0.507893 -0.0758164 4.6285e-19)
(0.509431 -0.0830593 -2.78306e-18)
(0.510938 -0.0908408 1.88631e-18)
(0.512416 -0.0992364 -2.8516e-18)
(0.51386 -0.108335 0)
(0.515259 -0.118244 -1.93128e-18)
(0.516592 -0.129094 0)
(0.517832 -0.141044 0)
(0.518942 -0.154288 1.97615e-18)
(0.519868 -0.169068 0)
(0.520533 -0.185681 0)
(0.520834 -0.204497 -1.98601e-18)
(0.520599 -0.22599 1.97374e-18)
(0.519642 -0.250737 0)
(0.517496 -0.279558 0)
(0.514022 -0.313272 -1.83844e-18)
(0.507579 -0.353537 6.79312e-19)
(0.498667 -0.401829 -5.0301e-19)
(0.485629 -0.455299 -4.06527e-19)
(0.452043 -0.555677 0)
(0.48939 -0.0316267 -5.31086e-20)
(0.490908 -0.0353342 -5.34408e-20)
(0.492233 -0.0396685 1.64222e-18)
(0.493643 -0.0443086 -3.52435e-18)
(0.495094 -0.0491809 2.23367e-19)
(0.496502 -0.054302 4.49521e-19)
(0.497844 -0.0597052 -4.36428e-19)
(0.499129 -0.0654214 0)
(0.500366 -0.0714857 2.35074e-18)
(0.501558 -0.0779404 -4.26771e-18)
(0.502701 -0.0848335 1.93575e-18)
(0.503789 -0.0922186 9.69327e-19)
(0.504813 -0.100157 -2.97923e-18)
(0.505756 -0.108722 0)
(0.506599 -0.118003 0)
(0.507313 -0.128106 2.07552e-18)
(0.507864 -0.139159 2.10448e-18)
(0.508206 -0.151317 1.04534e-18)
(0.508278 -0.164767 -1.39004e-20)
(0.507999 -0.179736 -1.08331e-18)
(0.507256 -0.196504 0)
(0.505898 -0.215412 0)
(0.503698 -0.236892 -1.17084e-18)
(0.500398 -0.261458 -3.38886e-18)
(0.495445 -0.289837 0)
(0.488611 -0.322702 -1.21112e-18)
(0.478003 -0.361577 1.96331e-18)
(0.464685 -0.407071 -3.75146e-18)
(0.44393 -0.45938 5.11418e-19)
(0.406701 -0.547125 0)
(0.486585 -0.0399819 0)
(0.487749 -0.043727 1.78119e-18)
(0.488699 -0.0480611 -1.56354e-18)
(0.489801 -0.0527047 1.58198e-18)
(0.490951 -0.0576021 2.29711e-19)
(0.492026 -0.0627712 -2.33846e-19)
(0.493016 -0.0682428 -1.88061e-18)
(0.493942 -0.0740448 0)
(0.494811 -0.0802077 3.00123e-20)
(0.495608 -0.0867691 1.96054e-18)
(0.496319 -0.0937743 -2.48896e-18)
(0.496927 -0.101276 2.56706e-18)
(0.497412 -0.109337 2.56424e-18)
(0.497751 -0.118032 -5.26777e-19)
(0.497913 -0.127448 3.22491e-18)
(0.497861 -0.137689 -2.11486e-18)
(0.497547 -0.148877 -2.21026e-18)
(0.496906 -0.161158 -1.12537e-18)
(0.495855 -0.174706 0)
(0.494287 -0.189731 0)
(0.492053 -0.206489 0)
(0.488965 -0.225287 1.18384e-18)
(0.484748 -0.246507 3.6307e-18)
(0.479082 -0.270594 1.17604e-18)
(0.471354 -0.298171 2.47722e-18)
(0.461257 -0.329768 -1.46527e-18)
(0.446744 -0.366748 2.63012e-18)
(0.429256 -0.40909 -2.91804e-19)
(0.401517 -0.458804 2.06019e-18)
(0.362126 -0.534366 3.14015e-18)
(0.482911 -0.0482706 -1.81385e-18)
(0.48373 -0.0520736 -1.81941e-18)
(0.484309 -0.0564468 -1.86975e-18)
(0.485093 -0.0611358 0)
(0.485936 -0.066089 0)
(0.486674 -0.0713201 -1.95453e-18)
(0.487294 -0.0768559 0)
(0.487826 -0.0827234 1.51941e-18)
(0.488269 -0.088954 -3.55927e-18)
(0.488601 -0.0955866 2.08811e-18)
(0.4888 -0.102667 1.60094e-18)
(0.488845 -0.11025 -4.28069e-18)
(0.488713 -0.118394 2.44201e-21)
(0.488372 -0.127173 -1.69248e-18)
(0.487781 -0.136667 5.92708e-20)
(0.48689 -0.146974 -2.27631e-18)
(0.485636 -0.158208 -7.12891e-20)
(0.483936 -0.170502 2.44371e-18)
(0.481688 -0.184017 -1.27752e-18)
(0.478758 -0.198941 -1.25748e-18)
(0.474973 -0.215501 2.61987e-18)
(0.470107 -0.233964 0)
(0.463851 -0.254656 -2.61451e-18)
(0.455835 -0.27795 0)
(0.445408 -0.304356 -2.90958e-18)
(0.432196 -0.334269 2.77206e-18)
(0.414078 -0.368858 2.66502e-19)
(0.392751 -0.407623 2.85526e-18)
(0.358993 -0.453554 -3.60148e-18)
(0.318701 -0.517495 1.34431e-18)
(0.478253 -0.0564332 1.79526e-18)
(0.47871 -0.0602965 -5.90655e-20)
(0.478892 -0.0647062 2.27431e-18)
(0.479322 -0.0694286 7.4209e-19)
(0.479814 -0.0744167 0)
(0.480168 -0.0796841 2.00483e-18)
(0.480368 -0.0852578 1.55174e-18)
(0.48045 -0.0911654 -2.59798e-18)
(0.480412 -0.0974384 1.03348e-18)
(0.480227 -0.104115 -1.05121e-18)
(0.479865 -0.111238 -2.19064e-18)
(0.479299 -0.118858 2.23352e-18)
(0.478499 -0.127033 -5.93517e-19)
(0.477423 -0.135828 1.73623e-18)
(0.476022 -0.145319 -5.51569e-19)
(0.474232 -0.155596 -6.17235e-19)
(0.471977 -0.166762 3.77017e-18)
(0.469161 -0.178938 -3.86356e-18)
(0.465663 -0.192265 2.60786e-18)
(0.461331 -0.206908 7.14146e-19)
(0.455967 -0.223059 -2.04371e-18)
(0.44932 -0.240943 1.48408e-18)
(0.441054 -0.260827 0)
(0.430764 -0.283006 -7.68169e-19)
(0.417783 -0.307879 3.8971e-18)
(0.401682 -0.335715 0)
(0.380351 -0.367459 -5.97815e-18)
(0.355634 -0.402262 9.12394e-19)
(0.316983 -0.443547 0)
(0.276852 -0.496646 -3.66923e-18)
(0.472488 -0.0643315 -9.75684e-19)
(0.472558 -0.0682494 -1.23057e-19)
(0.472316 -0.0726833 -7.62156e-19)
(0.472359 -0.0774224 -1.13995e-18)
(0.472465 -0.0824253 2.59421e-19)
(0.472399 -0.087706 -2.64741e-19)
(0.472141 -0.0932905 -1.06771e-18)
(0.471735 -0.0992056 -1.11307e-18)
(0.471175 -0.105481 1.11019e-18)
(0.470428 -0.112152 -5.60471e-19)
(0.469457 -0.119259 -5.86237e-19)
(0.468231 -0.126849 0)
(0.46671 -0.134974 1.82348e-18)
(0.464848 -0.143696 -6.29097e-19)
(0.462585 -0.153082 -1.27038e-18)