/*--------------------------------*- C++ -*----------------------------------*\
  =========                 |
  \\      /  F ield         | OpenFOAM: The Open Source CFD Toolbox
   \\    /   O peration     | Website:  https://openfoam.org
    \\  /    A nd           | Version:  11
     \\/     M anipulation  |
\*---------------------------------------------------------------------------*/
FoamFile
{
    format      ascii;
    class       volVectorField;
    location    "9";
    object      U;
}
// * * * * * * * * * * * * * * * * * * * * * * * * * * * * * * * * * * * * * //

dimensions      [0 1 -1 0 0 0 0];

internalField   nonuniform List<vector> 
12600
(
(0.399658 0.000106467 0)
(0.399405 0.000176508 0)
(0.39902 0.000181857 0)
(0.39859 0.000181155 0)
(0.398179 0.000181938 0)
(0.397792 0.000180597 0)
(0.397425 0.000176658 0)
(0.397082 0.0001709 0)
(0.39677 0.000163244 0)
(0.396499 0.000152913 0)
(0.396279 0.00013904 0)
(0.396123 0.000121899 0)
(0.396045 0.000102937 0)
(0.396062 7.57792e-05 0)
(0.396195 3.95179e-05 0)
(0.396471 -5.72288e-06 0)
(0.396924 -6.12627e-05 0)
(0.397594 -0.000124684 0)
(0.398532 -0.00020632 0)
(0.399804 -0.000308045 0)
(0.40148 -0.000430596 0)
(0.403653 -0.000583808 0)
(0.406439 -0.0007758 0)
(0.409983 -0.00100699 0)
(0.414463 -0.00128702 0)
(0.420106 -0.00162873 0)
(0.427191 -0.00206072 0)
(0.435987 -0.00252977 0)
(0.446897 -0.00337801 0)
(0.46206 -0.00304121 0)
(0.400036 0.000149926 0)
(0.40018 0.000259745 0)
(0.40036 0.000234687 0)
(0.400456 0.000218088 0)
(0.400554 0.000209123 0)
(0.400672 0.000197299 0)
(0.400809 0.00017975 0)
(0.400969 0.000155822 0)
(0.401157 0.00012636 0)
(0.401382 9.16563e-05 0)
(0.401653 4.8915e-05 0)
(0.401982 -3.73895e-06 0)
(0.402381 -6.87994e-05 0)
(0.402864 -0.000148074 0)
(0.403449 -0.000244052 0)
(0.404156 -0.000360913 0)
(0.405008 -0.000503701 0)
(0.406048 -0.000679257 0)
(0.407287 -0.000894711 0)
(0.408788 -0.0011616 0)
(0.410599 -0.00149457 0)
(0.412881 -0.00190474 0)
(0.415658 -0.00240827 0)
(0.41909 -0.00303456 0)
(0.423351 -0.00381579 0)
(0.42864 -0.00478184 0)
(0.435191 -0.00597094 0)
(0.443293 -0.00736711 0)
(0.453303 -0.00932268 0)
(0.46551 -0.0101917 0)
(0.400023 7.33613e-05 0)
(0.400109 0.000124208 0)
(0.400225 0.000107189 0)
(0.400329 9.47091e-05 0)
(0.400429 8.68662e-05 0)
(0.400542 7.18114e-05 0)
(0.400671 4.7365e-05 0)
(0.400821 1.5727e-05 0)
(0.400995 -2.9943e-05 0)
(0.401203 -8.77847e-05 0)
(0.401456 -0.000156385 0)
(0.401762 -0.000240232 0)
(0.402135 -0.000342363 0)
(0.40259 -0.000466481 0)
(0.403144 -0.000617484 0)
(0.40382 -0.000800879 0)
(0.404643 -0.00102575 0)
(0.405647 -0.00130028 0)
(0.406874 -0.00163412 0)
(0.408379 -0.00204795 0)
(0.410218 -0.0025672 0)
(0.412469 -0.00320386 0)
(0.415235 -0.00398801 0)
(0.418636 -0.00497627 0)
(0.422811 -0.00621358 0)
(0.427959 -0.00774051 0)
(0.434288 -0.0096199 0)
(0.442207 -0.01187 0)
(0.451715 -0.0148508 0)
(0.464572 -0.0171566 0)
(0.400015 4.15454e-05 0)
(0.400077 9.18142e-05 0)
(0.400175 9.67018e-05 0)
(0.400274 8.41365e-05 0)
(0.400371 6.91401e-05 0)
(0.400478 4.76201e-05 0)
(0.400603 1.7295e-05 0)
(0.400747 -2.57606e-05 0)
(0.400915 -8.45365e-05 0)
(0.401118 -0.000158179 0)
(0.401362 -0.0002509 0)
(0.401659 -0.000364775 0)
(0.40202 -0.000503818 0)
(0.402459 -0.000673524 0)
(0.402995 -0.000880655 0)
(0.403647 -0.00113332 0)
(0.404442 -0.00144212 0)
(0.405412 -0.00181915 0)
(0.406596 -0.00228079 0)
(0.408045 -0.00285112 0)
(0.409816 -0.00355957 0)
(0.411981 -0.00443629 0)
(0.414638 -0.00552309 0)
(0.417907 -0.00687427 0)
(0.421924 -0.00854822 0)
(0.426883 -0.0106141 0)
(0.432974 -0.0131749 0)
(0.440625 -0.0162718 0)
(0.449782 -0.0203193 0)
(0.46238 -0.0240066 0)
(0.400011 2.19208e-05 0)
(0.400055 5.14209e-05 0)
(0.400136 4.77143e-05 0)
(0.400227 2.60533e-05 0)
(0.400319 5.81638e-07 0)
(0.400422 -3.09293e-05 0)
(0.400541 -7.36135e-05 0)
(0.400679 -0.000131281 0)
(0.400842 -0.000204885 0)
(0.401037 -0.000298398 0)
(0.401271 -0.000415702 0)
(0.401555 -0.000559894 0)
(0.401901 -0.000735805 0)
(0.402322 -0.000949872 0)
(0.402834 -0.00121029 0)
(0.403457 -0.00152726 0)
(0.404216 -0.00191399 0)
(0.40514 -0.00238701 0)
(0.406268 -0.00296723 0)
(0.407645 -0.00368288 0)
(0.409327 -0.00456917 0)
(0.411385 -0.00566444 0)
(0.413908 -0.00701836 0)
(0.417009 -0.00869872 0)
(0.420817 -0.0107869 0)
(0.42552 -0.0133753 0)
(0.431295 -0.0165898 0)
(0.438581 -0.0205098 0)
(0.447266 -0.0255541 0)
(0.459433 -0.0306762 0)
(0.400008 7.70031e-06 0)
(0.400043 1.80551e-05 0)
(0.40011 8.92145e-06 0)
(0.400193 -1.46622e-05 0)
(0.400282 -4.34507e-05 0)
(0.400379 -7.87574e-05 0)
(0.400492 -0.000126645 0)
(0.400624 -0.000192175 0)
(0.400779 -0.000278519 0)
(0.400964 -0.000389029 0)
(0.401186 -0.000527453 0)
(0.401455 -0.000698101 0)
(0.401782 -0.00090674 0)
(0.402179 -0.00116101 0)
(0.402662 -0.00147074 0)
(0.403248 -0.00184831 0)
(0.403962 -0.00230943 0)
(0.404831 -0.00287381 0)
(0.405889 -0.00356629 0)
(0.40718 -0.00441923 0)
(0.408756 -0.00547288 0)
(0.410681 -0.00677479 0)
(0.413039 -0.00838652 0)
(0.415933 -0.0103877 0)
(0.419486 -0.0128737 0)
(0.423876 -0.0159562 0)
(0.429264 -0.0197874 0)
(0.436086 -0.0244923 0)
(0.444184 -0.0304922 0)
(0.455749 -0.0370112 0)
(0.400006 -2.84959e-06 0)
(0.400034 -8.91912e-06 0)
(0.400092 -2.57953e-05 0)
(0.400166 -5.42539e-05 0)
(0.400249 -8.9763e-05 0)
(0.400341 -0.000133161 0)
(0.400447 -0.000190645 0)
(0.400571 -0.00026801 0)
(0.400716 -0.000369036 0)
(0.400889 -0.000497408 0)
(0.401097 -0.000657585 0)
(0.401349 -0.00085482 0)
(0.401653 -0.00109578 0)
(0.402023 -0.00138919 0)
(0.402472 -0.00174624 0)
(0.403016 -0.00218111 0)
(0.403678 -0.00271175 0)
(0.404482 -0.0033608 0)
(0.405459 -0.00415679 0)
(0.40665 -0.00513618 0)
(0.408101 -0.00634457 0)
(0.409872 -0.00783761 0)
(0.412038 -0.00968571 0)
(0.414693 -0.0119781 0)
(0.417948 -0.0148251 0)
(0.421969 -0.01836 0)
(0.426898 -0.0227608 0)
(0.43316 -0.0281978 0)
(0.44056 -0.0350884 0)
(0.451349 -0.0429488 0)
(0.400005 -1.10758e-05 0)
(0.400029 -3.13617e-05 0)
(0.400078 -5.7185e-05 0)
(0.400145 -9.12674e-05 0)
(0.400221 -0.000132441 0)
(0.400307 -0.00018243 0)
(0.400405 -0.000247201 0)
(0.40052 -0.000333131 0)
(0.400655 -0.000445317 0)
(0.400815 -0.000588252 0)
(0.401007 -0.000766813 0)
(0.401238 -0.000986881 0)
(0.401518 -0.00125596 0)
(0.401856 -0.00158377 0)
(0.402266 -0.00198277 0)
(0.402763 -0.00246883 0)
(0.403365 -0.00306195 0)
(0.404096 -0.00378737 0)
(0.404983 -0.00467687 0)
(0.406061 -0.00577066 0)
(0.407372 -0.00711911 0)
(0.408969 -0.0087845 0)
(0.410917 -0.0108453 0)
(0.413301 -0.0134007 0)
(0.416218 -0.0165751 0)
(0.419818 -0.020521 0)
(0.424223 -0.0254391 0)
(0.429833 -0.0315443 0)
(0.436427 -0.0392516 0)
(0.446256 -0.0483807 0)
(0.400005 -1.7987e-05 0)
(0.400024 -5.04162e-05 0)
(0.400067 -8.48737e-05 0)
(0.400126 -0.000124875 0)
(0.400196 -0.000171472 0)
(0.400275 -0.000227582 0)
(0.400365 -0.000299434 0)
(0.40047 -0.000394066 0)
(0.400593 -0.000517431 0)
(0.400739 -0.00067458 0)
(0.400913 -0.000870791 0)
(0.401122 -0.00111247 0)
(0.401374 -0.00140783 0)
(0.401678 -0.00176743 0)
(0.402045 -0.0022049 0)
(0.402489 -0.00273752 0)
(0.403026 -0.0033871 0)
(0.403676 -0.0041811 0)
(0.404462 -0.00515407 0)
(0.405416 -0.0063495 0)
(0.406573 -0.00782192 0)
(0.407978 -0.00963926 0)
(0.409687 -0.011887 0)
(0.411773 -0.014673 0)
(0.414317 -0.0181334 0)
(0.41745 -0.0224376 0)
(0.42127 -0.0278075 0)
(0.426144 -0.0345007 0)
(0.431829 -0.0429308 0)
(0.440507 -0.0532253 0)
(0.400004 -2.3837e-05 0)
(0.400021 -6.68033e-05 0)
(0.400058 -0.00010938 0)
(0.40011 -0.000155273 0)
(0.400173 -0.000207033 0)
(0.400244 -0.000268736 0)
(0.400326 -0.000347041 0)
(0.40042 -0.000449428 0)
(0.400531 -0.000582459 0)
(0.400661 -0.000751738 0)
(0.400816 -0.000962971 0)
(0.401001 -0.00122304 0)
(0.401223 -0.00154076 0)
(0.40149 -0.00192752 0)
(0.401811 -0.00239792 0)
(0.402197 -0.00297047 0)
(0.402663 -0.00366847 0)
(0.403226 -0.00452127 0)
(0.403904 -0.00556569 0)
(0.404723 -0.00684801 0)
(0.405714 -0.0084262 0)
(0.406913 -0.0103727 0)
(0.408365 -0.0127788 0)
(0.410128 -0.0157594 0)
(0.41227 -0.0194605 0)
(0.414895 -0.0240658 0)
(0.418078 -0.0298154 0)
(0.422139 -0.0370056 0)
(0.426822 -0.0460488 0)
(0.43416 -0.057372 0)
(0.400003 -2.88096e-05 0)
(0.400018 -8.08641e-05 0)
(0.40005 -0.000130834 0)
(0.400096 -0.000182372 0)
(0.400151 -0.000238947 0)
(0.400215 -0.000305617 0)
(0.400287 -0.000389566 0)
(0.400371 -0.000498678 0)
(0.400468 -0.000640017 0)
(0.400582 -0.000819695 0)
(0.400716 -0.00104383 0)
(0.400875 -0.00131968 0)
(0.401065 -0.00165658 0)
(0.401292 -0.00206654 0)
(0.401564 -0.00256495 0)
(0.40189 -0.00317129 0)
(0.402281 -0.00391009 0)
(0.40275 -0.00481217 0)
(0.403313 -0.00591614 0)
(0.403991 -0.00727043 0)
(0.404805 -0.0089357 0)
(0.405785 -0.0109878 0)
(0.406965 -0.0135221 0)
(0.408388 -0.016659 0)
(0.410102 -0.020552 0)
(0.412188 -0.0253953 0)
(0.414691 -0.0314437 0)
(0.417873 -0.0390257 0)
(0.421475 -0.0485522 0)
(0.427293 -0.0607288 0)
(0.400003 -3.30371e-05 0)
(0.400015 -9.29074e-05 0)
(0.400042 -0.000149444 0)
(0.400082 -0.000206163 0)
(0.400131 -0.000267105 0)
(0.400186 -0.000338094 0)
(0.400249 -0.000426837 0)
(0.400322 -0.000541597 0)
(0.400405 -0.000689834 0)
(0.400501 -0.000878038 0)
(0.400614 -0.00111264 0)
(0.400746 -0.00140124 0)
(0.400903 -0.00175353 0)
(0.401088 -0.00218204 0)
(0.401308 -0.00270278 0)
(0.40157 -0.00333597 0)
(0.401882 -0.00410705 0)
(0.402254 -0.00504791 0)
(0.402697 -0.00619845 0)
(0.403226 -0.00760862 0)
(0.403857 -0.00934085 0)
(0.404609 -0.0114732 0)
(0.405505 -0.0141039 0)
(0.406574 -0.0173566 0)
(0.407844 -0.0213893 0)
(0.409366 -0.0264035 0)
(0.411158 -0.0326633 0)
(0.41341 -0.0405215 0)
(0.41587 -0.0503844 0)
(0.420011 -0.0632008 0)
(0.400002 -3.66092e-05 0)
(0.400013 -0.000103149 0)
(0.400036 -0.000165417 0)
(0.40007 -0.000226736 0)
(0.400111 -0.000291483 0)
(0.400159 -0.000366082 0)
(0.400212 -0.00045872 0)
(0.400273 -0.000577966 0)
(0.400342 -0.000731555 0)
(0.40042 -0.000926264 0)
(0.40051 -0.0011688 0)
(0.400615 -0.001467 0)
(0.400737 -0.00183086 0)
(0.400879 -0.00227326 0)
(0.401045 -0.00281061 0)
(0.401241 -0.00346366 0)
(0.401471 -0.00425843 0)
(0.401742 -0.00522747 0)
(0.402062 -0.00641146 0)
(0.402438 -0.00786118 0)
(0.40288 -0.00964002 0)
(0.403398 -0.0118271 0)
(0.404004 -0.0145216 0)
(0.40471 -0.0178485 0)
(0.405524 -0.0219674 0)
(0.406469 -0.0270824 0)
(0.407533 -0.0334611 0)
(0.408822 -0.041471 0)
(0.410099 -0.051508 0)
(0.412444 -0.0647148 0)
(0.400002 -3.95939e-05 0)
(0.400011 -0.000111754 0)
(0.40003 -0.000178902 0)
(0.400058 -0.000244155 0)
(0.400093 -0.000312088 0)
(0.400132 -0.000389558 0)
(0.400176 -0.000485127 0)
(0.400225 -0.000607607 0)
(0.400279 -0.000764931 0)
(0.400339 -0.000964082 0)
(0.400407 -0.00121195 0)
(0.400482 -0.00151654 0)
(0.400568 -0.00188802 0)
(0.400666 -0.00233945 0)
(0.400778 -0.00288751 0)
(0.400906 -0.00355319 0)
(0.401053 -0.00436278 0)
(0.401222 -0.00534911 0)
(0.401415 -0.00655311 0)
(0.401636 -0.00802573 0)
(0.401886 -0.00983038 0)
(0.402168 -0.012046 0)
(0.40248 -0.0147713 0)
(0.402819 -0.0181303 0)
(0.403176 -0.022281 0)
(0.40354 -0.0274254 0)
(0.40387 -0.0338282 0)
(0.404186 -0.0418597 0)
(0.404267 -0.0518983 0)
(0.404745 -0.0652171 0)
(0.400002 -4.2045e-05 0)
(0.400009 -0.000118859 0)
(0.400024 -0.000190064 0)
(0.400047 -0.000258548 0)
(0.400076 -0.000328977 0)
(0.400107 -0.000408512 0)
(0.400141 -0.000506006 0)
(0.400178 -0.000630436 0)
(0.400217 -0.000789841 0)
(0.400259 -0.000991311 0)
(0.400303 -0.00124185 0)
(0.40035 -0.00154954 0)
(0.4004 -0.00192461 0)
(0.400453 -0.00238018 0)
(0.400509 -0.00293297 0)
(0.400569 -0.00360399 0)
(0.400632 -0.00441949 0)
(0.400697 -0.00541218 0)
(0.400764 -0.00662273 0)
(0.400828 -0.00810162 0)
(0.400887 -0.00991142 0)
(0.400932 -0.0121298 0)
(0.400952 -0.0148533 0)
(0.400928 -0.0182028 0)
(0.400831 -0.0223314 0)
(0.40062 -0.0274346 0)
(0.400227 -0.0337668 0)
(0.399583 -0.0416889 0)
(0.398484 -0.0515521 0)
(0.397087 -0.0646867 0)
(0.400001 -4.40123e-05 0)
(0.400007 -0.000124599 0)
(0.400019 -0.000199066 0)
(0.400037 -0.000270045 0)
(0.400059 -0.000342228 0)
(0.400083 -0.000422994 0)
(0.400108 -0.000521386 0)
(0.400133 -0.000646451 0)
(0.400157 -0.00080624 0)
(0.40018 -0.00100788 0)
(0.400201 -0.0012584 0)
(0.400219 -0.00156588 0)
(0.400232 -0.0019405 0)
(0.40024 -0.00239529 0)
(0.400241 -0.00294682 0)
(0.400233 -0.00361589 0)
(0.400212 -0.00442841 0)
(0.400174 -0.0054166 0)
(0.400115 -0.00662038 0)
(0.400025 -0.00808912 0)
(0.399894 -0.00988376 0)
(0.399706 -0.0120795 0)
(0.399438 -0.0147695 0)
(0.399058 -0.0180691 0)
(0.398519 -0.0221237 0)
(0.397752 -0.0271176 0)
(0.396661 -0.033288 0)
(0.395093 -0.0409735 0)
(0.392861 -0.0504875 0)
(0.389653 -0.0631391 0)
(0.400001 -4.55478e-05 0)
(0.400005 -0.000129115 0)
(0.400015 -0.00020609 0)
(0.400028 -0.000278813 0)
(0.400044 -0.00035197 0)
(0.400061 -0.000433101 0)
(0.400076 -0.000531347 0)
(0.400089 -0.000655714 0)
(0.400099 -0.000814182 0)
(0.400104 -0.00101383 0)
(0.400102 -0.00126166 0)
(0.400091 -0.00156564 0)
(0.400068 -0.00193578 0)
(0.400032 -0.0023849 0)
(0.399978 -0.00292924 0)
(0.399902 -0.00358916 0)
(0.399798 -0.00438996 0)
(0.399659 -0.00536299 0)
(0.399476 -0.00654697 0)
(0.399234 -0.00798959 0)
(0.398918 -0.00974941 0)
(0.398503 -0.0118983 0)
(0.397956 -0.0145242 0)
(0.397233 -0.0177358 0)
(0.396271 -0.0216676 0)
(0.394975 -0.0264886 0)
(0.393225 -0.0324125 0)
(0.390794 -0.0397434 0)
(0.387507 -0.0487467 0)
(0.382625 -0.0606313 0)
(0.400001 -4.67113e-05 0)
(0.400004 -0.000132569 0)
(0.400011 -0.000211346 0)
(0.400021 -0.000285051 0)
(0.400031 -0.000358365 0)
(0.40004 -0.000438974 0)
(0.400046 -0.000536024 0)
(0.400048 -0.000658366 0)
(0.400044 -0.000813816 0)
(0.400031 -0.00100934 0)
(0.400006 -0.00125181 0)
(0.399967 -0.00154904 0)
(0.399909 -0.00191075 0)
(0.399829 -0.00234941 0)
(0.399722 -0.00288076 0)
(0.39958 -0.0035245 0)
(0.399395 -0.00430506 0)
(0.399158 -0.00525259 0)
(0.398854 -0.0064042 0)
(0.398465 -0.00780537 0)
(0.39797 -0.00951164 0)
(0.397336 -0.0115905 0)
(0.396523 -0.0141242 0)
(0.395475 -0.0172123 0)
(0.394113 -0.0209767 0)
(0.392325 -0.0255676 0)
(0.389967 -0.0311698 0)
(0.386754 -0.0380425 0)
(0.382522 -0.0463939 0)
(0.376171 -0.0572618 0)
(0.4 -4.75762e-05 0)
(0.400003 -0.000135158 0)
(0.400008 -0.000215085 0)
(0.400014 -0.000288988 0)
(0.40002 -0.000361609 0)
(0.400022 -0.000440804 0)
(0.400019 -0.00053562 0)
(0.40001 -0.000654615 0)
(0.399992 -0.000805368 0)
(0.399962 -0.000994677 0)
(0.399915 -0.00122921 0)
(0.399849 -0.00151651 0)
(0.399757 -0.00186594 0)
(0.399635 -0.00228948 0)
(0.399476 -0.00280221 0)
(0.39927 -0.003423 0)
(0.399007 -0.00417512 0)
(0.398675 -0.00508724 0)
(0.398255 -0.0061945 0)
(0.397726 -0.00753972 0)
(0.397059 -0.00917482 0)
(0.396218 -0.0111624 0)
(0.395154 -0.0135776 0)
(0.393801 -0.0165103 0)
(0.392071 -0.0200679 0)
(0.389833 -0.0243794 0)
(0.38693 -0.0295967 0)
(0.383034 -0.0359265 0)
(0.377988 -0.0435136 0)
(0.370433 -0.0531666 0)
(0.4 -4.82377e-05 0)
(0.400002 -0.000137131 0)
(0.400006 -0.00021761 0)
(0.400009 -0.000290899 0)
(0.40001 -0.000361929 0)
(0.400006 -0.000438801 0)
(0.399996 -0.000530375 0)
(0.399976 -0.00064475 0)
(0.399945 -0.000789167 0)
(0.399898 -0.000970213 0)
(0.399831 -0.00119431 0)
(0.399738 -0.00146865 0)
(0.399614 -0.00180211 0)
(0.399451 -0.00220606 0)
(0.399242 -0.00269479 0)
(0.398976 -0.00328613 0)
(0.398639 -0.00400201 0)
(0.398216 -0.00486934 0)
(0.397686 -0.00592095 0)
(0.397024 -0.00719665 0)
(0.396196 -0.00874429 0)
(0.395161 -0.010621 0)
(0.393864 -0.0128944 0)
(0.39223 -0.0156437 0)
(0.390164 -0.0189609 0)
(0.387525 -0.0229524 0)
(0.384146 -0.0277356 0)
(0.379677 -0.03346 0)
(0.373967 -0.040205 0)
(0.365513 -0.0485114 0)
(0.4 -4.88236e-05 0)
(0.400002 -0.000138818 0)
(0.400005 -0.000219279 0)
(0.400007 -0.000291064 0)
(0.400004 -0.000359619 0)
(0.399994 -0.000433314 0)
(0.399976 -0.000520602 0)
(0.399947 -0.000629051 0)
(0.399903 -0.000765567 0)
(0.399841 -0.000936428 0)
(0.399753 -0.0011477 0)
(0.399636 -0.00140614 0)
(0.399481 -0.00172013 0)
(0.399281 -0.00210028 0)
(0.399024 -0.00255997 0)
(0.398701 -0.00311581 0)
(0.398294 -0.0037882 0)
(0.397786 -0.00460204 0)
(0.397153 -0.00558761 0)
(0.396366 -0.00678135 0)
(0.39539 -0.00822676 0)
(0.394175 -0.00997511 0)
(0.392664 -0.0120861 0)
(0.390776 -0.0146281 0)
(0.38841 -0.0176773 0)
(0.385421 -0.0213176 0)
(0.38164 -0.0256323 0)
(0.376712 -0.030713 0)
(0.370496 -0.0365762 0)
(0.361465 -0.0434792 0)
(0.4 -4.95149e-05 0)
(0.400002 -0.000140658 0)
(0.400006 -0.000220537 0)
(0.400007 -0.000289792 0)
(0.400001 -0.000354916 0)
(0.399986 -0.000424588 0)
(0.39996 -0.000506631 0)
(0.399923 -0.000607999 0)
(0.399868 -0.000735154 0)
(0.399791 -0.00089399 0)
(0.399685 -0.00109016 0)
(0.399544 -0.00132992 0)
(0.399361 -0.00162102 0)
(0.399125 -0.00197328 0)
(0.398825 -0.00239904 0)
(0.398448 -0.00291356 0)
(0.397976 -0.00353551 0)
(0.397389 -0.00428764 0)
(0.396661 -0.00519745 0)
(0.39576 -0.00629783 0)
(0.394646 -0.00762766 0)
(0.393269 -0.00923223 0)
(0.391564 -0.0111632 0)
(0.38945 -0.0134782 0)
(0.386822 -0.0162384 0)
(0.383536 -0.019506 0)
(0.379424 -0.0233325 0)
(0.374151 -0.0277554 0)
(0.367585 -0.0327358 0)
(0.35829 -0.0382567 0)
(0.400001 -5.05831e-05 0)
(0.400004 -0.000143252 0)
(0.40001 -0.0002219 0)
(0.400011 -0.00028746 0)
(0.400002 -0.000348137 0)
(0.399982 -0.00041291 0)
(0.399951 -0.000488758 0)
(0.399905 -0.000581903 0)
(0.39984 -0.000698351 0)
(0.399749 -0.000843595 0)
(0.399627 -0.00102281 0)
(0.399465 -0.00124167 0)
(0.399255 -0.00150718 0)
(0.398987 -0.00182823 0)
(0.398647 -0.00221603 0)
(0.398221 -0.00268439 0)
(0.39769 -0.00325007 0)
(0.397031 -0.00393347 0)
(0.396217 -0.00475912 0)
(0.395212 -0.00575618 0)
(0.393975 -0.0069588 0)
(0.392451 -0.00840624 0)
(0.390575 -0.0101423 0)
(0.388262 -0.0122144 0)
(0.38541 -0.0146697 0)
(0.381876 -0.017551 0)
(0.377503 -0.0208825 0)
(0.371989 -0.0246552 0)
(0.365217 -0.0287867 0)
(0.35594 -0.0330197 0)
(0.400001 -5.24667e-05 0)
(0.400007 -0.000147431 0)
(0.400017 -0.000223847 0)
(0.40002 -0.000284378 0)
(0.400009 -0.00033988 0)
(0.399985 -0.000399125 0)
(0.399948 -0.000467709 0)
(0.399895 -0.000551084 0)
(0.39982 -0.000654973 0)
(0.399718 -0.00078443 0)
(0.39958 -0.000944065 0)
(0.399399 -0.00113897 0)
(0.399166 -0.00137541 0)
(0.398868 -0.00166127 0)
(0.398492 -0.0020065 0)
(0.398022 -0.00242335 0)
(0.397438 -0.00292668 0)
(0.396715 -0.00353442 0)
(0.395824 -0.00426801 0)
(0.394727 -0.00515278 0)
(0.39338 -0.00621813 0)
(0.391728 -0.00749738 0)
(0.389703 -0.00902694 0)
(0.38722 -0.0108446 0)
(0.384179 -0.0129854 0)
(0.380445 -0.0154756 0)
(0.375874 -0.018318 0)
(0.370209 -0.0214675 0)
(0.36335 -0.0248146 0)
(0.354316 -0.0279168 0)
(0.400003 -5.5934e-05 0)
(0.400014 -0.000154483 0)
(0.400029 -0.000226725 0)
(0.400035 -0.000280206 0)
(0.400022 -0.000329919 0)
(0.399995 -0.000383761 0)
(0.399953 -0.00044544 0)
(0.399895 -0.000519503 0)
(0.399812 -0.000611184 0)
(0.399699 -0.000724874 0)
(0.399548 -0.000864561 0)
(0.399351 -0.00103465 0)
(0.399096 -0.0012407 0)
(0.398773 -0.00148959 0)
(0.398366 -0.00178987 0)
(0.397857 -0.00215198 0)
(0.397226 -0.00258868 0)
(0.396447 -0.00311538 0)
(0.395488 -0.00375042 0)
(0.394312 -0.00451524 0)
(0.39287 -0.00543451 0)
(0.391108 -0.00653578 0)
(0.388955 -0.00784849 0)
(0.38633 -0.00940191 0)
(0.383133 -0.0112209 0)
(0.379242 -0.0133187 0)
(0.374525 -0.0156837 0)
(0.36878 -0.0182467 0)
(0.361925 -0.0208916 0)
(0.353284 -0.0230622 0)
(0.400005 -6.2295e-05 0)
(0.400025 -0.000166561 0)
(0.400051 -0.000232101 0)
(0.400059 -0.000275435 0)
(0.400045 -0.000316018 0)
(0.400013 -0.000360413 0)
(0.399968 -0.000411102 0)
(0.399905 -0.00047219 0)
(0.399815 -0.000548333 0)
(0.399694 -0.000642945 0)
(0.399531 -0.00075948 0)
(0.39932 -0.000901455 0)
(0.399047 -0.00107339 0)
(0.398702 -0.00128117 0)
(0.398268 -0.00153225 0)
(0.397727 -0.0018354 0)
(0.397056 -0.00220106 0)
(0.39623 -0.00264188 0)
(0.395214 -0.00317296 0)
(0.39397 -0.00381189 0)
(0.392449 -0.00457871 0)
(0.390595 -0.0054955 0)
(0.388338 -0.00658531 0)
(0.385597 -0.00787002 0)
(0.382277 -0.00936632 0)
(0.378267 -0.0110782 0)
(0.373451 -0.0129864 0)
(0.367679 -0.015009 0)
(0.360889 -0.0170484 0)
(0.352718 -0.0185146 0)
(0.400009 -7.33712e-05 0)
(0.400044 -0.000184531 0)
(0.400085 -0.000243895 0)
(0.400098 -0.000282875 0)
(0.400082 -0.000320643 0)
(0.400049 -0.000360055 0)
(0.400001 -0.000402962 0)
(0.399933 -0.000453387 0)
(0.399838 -0.000515653 0)
(0.399709 -0.000592075 0)
(0.399538 -0.000685701 0)
(0.399315 -0.000799585 0)
(0.399028 -0.000937498 0)
(0.398665 -0.00110351 0)
(0.398209 -0.0013034 0)
(0.397641 -0.00154441 0)
(0.396939 -0.00183505 0)
(0.396074 -0.00218538 0)
(0.395014 -0.0026072 0)
(0.393716 -0.00311421 0)
(0.392134 -0.00372189 0)
(0.390209 -0.00444712 0)
(0.387872 -0.00530713 0)
(0.385045 -0.00631756 0)
(0.381639 -0.00748904 0)
(0.377553 -0.00881964 0)
(0.372691 -0.0102898 0)
(0.366944 -0.0118107 0)
(0.360276 -0.0133304 0)
(0.352604 -0.0143107 0)
(0.400016 -9.64532e-05 0)
(0.400074 -0.00019105 0)
(0.400133 -0.000221329 0)
(0.400149 -0.000244874 0)
(0.400132 -0.000272815 0)
(0.400098 -0.000302029 0)
(0.400049 -0.000333771 0)
(0.399978 -0.000371602 0)
(0.399879 -0.000417814 0)
(0.399745 -0.000474614 0)
(0.399567 -0.000543759 0)
(0.399334 -0.000627529 0)
(0.399037 -0.000728707 0)
(0.39866 -0.000851126 0)
(0.398188 -0.000998984 0)
(0.397601 -0.00117722 0)
(0.396875 -0.00139189 0)
(0.395981 -0.00165024 0)
(0.394887 -0.00196085 0)
(0.393552 -0.00233365 0)
(0.391926 -0.00277979 0)
(0.389953 -0.00331126 0)
(0.387566 -0.0039402 0)
(0.384692 -0.00467725 0)
(0.381247 -0.00552925 0)
(0.377144 -0.00649237 0)
(0.372309 -0.00755325 0)
(0.366646 -0.00861749 0)
(0.36018 -0.00969116 0)
(0.352776 -0.0102415 0)
(0.400026 -0.000164701 0)
(0.400173 -0.000313148 0)
(0.400246 -0.000303743 0)
(0.400237 -0.00030936 0)
(0.400207 -0.000325411 0)
(0.400163 -0.000343 0)
(0.400101 -0.000362244 0)
(0.40001 -0.000384719 0)
(0.399887 -0.000415123 0)
(0.399724 -0.000448389 0)
(0.399513 -0.000492858 0)
(0.399245 -0.000543506 0)
(0.398907 -0.000607102 0)
(0.398484 -0.000683191 0)
(0.397961 -0.000774884 0)
(0.397316 -0.00088592 0)
(0.396526 -0.00102063 0)
(0.395562 -0.00118379 0)
(0.394388 -0.00138084 0)
(0.392965 -0.0016181 0)
(0.391243 -0.00190273 0)
(0.389166 -0.00224247 0)
(0.386669 -0.0026451 0)
(0.383678 -0.00311726 0)
(0.380111 -0.00366275 0)
(0.375879 -0.00427702 0)
(0.37091 -0.00494907 0)
(0.36503 -0.00560144 0)
(0.358525 -0.00630113 0)
(0.349968 -0.00616915 0)
(0.399647 -0.000114743 0)
(0.399353 -0.000187962 0)
(0.398898 -0.000202704 0)
(0.398368 -0.000210887 0)
(0.397822 -0.000220346 0)
(0.397266 -0.000228891 0)
(0.396687 -0.000237163 0)
(0.39608 -0.000246571 0)
(0.395437 -0.000257123 0)
(0.394752 -0.000270329 0)
(0.394015 -0.000286069 0)
(0.393215 -0.000304848 0)
(0.392339 -0.000327257 0)
(0.39137 -0.000355108 0)
(0.390288 -0.000389275 0)
(0.389071 -0.000430414 0)
(0.387689 -0.000479767 0)
(0.386107 -0.000539181 0)
(0.384283 -0.000610973 0)
(0.382167 -0.000697819 0)
(0.379699 -0.000802676 0)
(0.37681 -0.00092869 0)
(0.373417 -0.001079 0)
(0.369431 -0.00125624 0)
(0.364754 -0.00146174 0)
(0.359289 -0.00169257 0)
(0.352957 -0.00194391 0)
(0.345716 -0.00217344 0)
(0.337703 -0.00251376 0)
(0.326153 -0.00186159 0)
(0.468591 -0.00712535 9.23706e-21)
(0.474975 -0.0110423 -1.47711e-17)
(0.480525 -0.0153827 1.48724e-17)
(0.484924 -0.0201199 7.49076e-18)
(0.488709 -0.025211 5.66758e-18)
(0.492164 -0.0306572 1.14542e-17)
(0.495373 -0.0365044 5.76878e-18)
(0.498403 -0.0428137 1.55629e-17)
(0.501326 -0.0496328 7.87093e-18)
(0.504187 -0.0569936 3.96559e-18)
(0.506996 -0.0649243 -4.01752e-18)
(0.509742 -0.0734598 8.09881e-18)
(0.512408 -0.0826463 4.12645e-18)
(0.514982 -0.0925428 4.15985e-18)
(0.517462 -0.103224 8.40855e-18)
(0.519847 -0.11478 4.27238e-18)
(0.522145 -0.127324 1.29069e-17)
(0.524363 -0.14099 0)
(0.526507 -0.155946 0)
(0.52859 -0.172399 4.42905e-18)
(0.530622 -0.190607 -3.20541e-20)
(0.53262 -0.210895 4.54878e-18)
(0.534597 -0.233673 0)
(0.536579 -0.25948 9.17412e-18)
(0.538607 -0.288946 4.60758e-18)
(0.540464 -0.323287 -4.68418e-18)
(0.543521 -0.361859 4.62595e-18)
(0.541716 -0.415657 4.65828e-18)
(0.555039 -0.44991 1.37374e-17)
(0.525412 -0.576994 -4.43542e-18)
(0.474973 -0.0149939 -7.42657e-18)
(0.478805 -0.0187926 8.42026e-18)
(0.481873 -0.0233663 -8.49925e-18)
(0.484343 -0.0283329 0)
(0.48667 -0.0336169 -7.72297e-18)
(0.489038 -0.0392663 -7.78902e-18)
(0.491435 -0.0453447 -1.96814e-18)
(0.493833 -0.0518891 -1.39397e-17)
(0.496219 -0.0589152 -8.04341e-18)
(0.498564 -0.0664393 -8.15942e-18)
(0.500831 -0.0744912 4.11563e-18)
(0.502986 -0.0831149 -4.17364e-18)
(0.505008 -0.0923655 -8.42137e-18)
(0.50689 -0.102309 -8.52399e-18)
(0.508625 -0.113023 -8.62979e-18)
(0.510209 -0.1246 -8.73856e-18)
(0.511635 -0.137151 -1.77519e-17)
(0.512892 -0.150811 4.48801e-18)
(0.513967 -0.165744 -4.56299e-18)
(0.514842 -0.182153 -1.38686e-17)
(0.515495 -0.20029 2.28248e-20)
(0.5159 -0.220467 -4.68653e-20)
(0.516011 -0.24308 -3.27108e-20)
(0.515792 -0.26863 -1.45989e-17)
(0.515134 -0.297738 -9.84117e-18)
(0.513901 -0.331408 -4.88803e-18)
(0.512525 -0.369675 8.73092e-20)
(0.506927 -0.419694 -1.10219e-19)
(0.51291 -0.458097 -1.47907e-17)
(0.477854 -0.574027 0)
(0.472696 -0.0223522 0)
(0.475255 -0.0261741 0)
(0.477485 -0.0308221 0)
(0.479642 -0.0358966 -9.7454e-19)
(0.481845 -0.0412919 8.86866e-18)
(0.484073 -0.0470359 -1.99247e-18)
(0.486253 -0.0531684 2.01869e-18)
(0.488336 -0.0597125 8.15127e-18)
(0.490301 -0.0666923 -2.06305e-18)
(0.492132 -0.0741446 1.04398e-17)
(0.493815 -0.0821168 4.22911e-18)
(0.49534 -0.0906611 -4.29185e-18)
(0.496701 -0.0998339 4.34e-18)
(0.49789 -0.109699 -4.40774e-18)
(0.498892 -0.12033 -8.95284e-18)
(0.499689 -0.131819 9.08114e-18)
(0.500257 -0.144273 9.15761e-18)
(0.500567 -0.157825 0)
(0.500584 -0.172635 0)
(0.500266 -0.1889 9.56094e-18)
(0.499557 -0.206861 0)
(0.498389 -0.226816 1.48452e-17)
(0.496662 -0.249141 5.02827e-18)
(0.494275 -0.2743 1.01147e-17)
(0.491002 -0.302897 1.5374e-17)
(0.486706 -0.335751 5.27754e-18)
(0.481173 -0.37333 0)
(0.47195 -0.420188 2.12419e-17)
(0.469645 -0.461509 0)
(0.431358 -0.565715 1.06181e-17)
(0.47018 -0.0300194 0)
(0.472228 -0.0340166 0)
(0.474015 -0.0387344 0)
(0.47586 -0.043823 -7.98159e-18)
(0.477708 -0.0492075 0)
(0.479458 -0.0549254 0)
(0.481075 -0.0610233 0)
(0.48256 -0.0675325 8.38251e-18)
(0.483915 -0.0744826 0)
(0.48513 -0.0819094 0)
(0.486192 -0.0898535 0)
(0.487085 -0.0983591 -8.84994e-18)
(0.487788 -0.107477 -8.97878e-18)
(0.488278 -0.117269 -4.54003e-18)
(0.488527 -0.127808 -4.38598e-20)
(0.488503 -0.139185 -9.33194e-18)
(0.488169 -0.151505 9.78179e-21)
(0.487483 -0.164897 1.45477e-17)
(0.486389 -0.179513 4.90936e-18)
(0.484822 -0.19554 -5.00538e-18)
(0.482696 -0.213204 -5.07602e-18)
(0.479903 -0.232783 -5.11402e-18)
(0.476294 -0.254625 -5.25149e-18)
(0.471712 -0.279148 1.61523e-17)
(0.465832 -0.306917 0)
(0.458509 -0.338584 -1.66635e-17)
(0.449022 -0.374847 -5.6635e-18)
(0.43624 -0.418579 2.47492e-19)
(0.425946 -0.460563 -1.74844e-17)
(0.385769 -0.553119 4.95055e-19)
(0.466758 -0.0373042 0)
(0.468283 -0.0413372 7.9617e-18)
(0.469537 -0.0460224 -1.00577e-18)
(0.470925 -0.0510777 1.73234e-17)
(0.47232 -0.0564514 0)
(0.473579 -0.0621712 0)
(0.474688 -0.0682695 8.48752e-18)
(0.475662 -0.0747683 -8.57273e-18)
(0.476496 -0.0816911 0)
(0.477168 -0.0890696 0)
(0.477652 -0.0969427 0)
(0.477924 -0.105356 9.0778e-18)
(0.47796 -0.114362 9.21765e-18)
(0.477729 -0.124023 -4.69127e-18)
(0.477199 -0.134413 1.42909e-17)
(0.47633 -0.145616 0)
(0.475073 -0.157735 9.91014e-18)
(0.47337 -0.170887 -1.50844e-17)
(0.471148 -0.185217 -5.12288e-18)
(0.468317 -0.200896 0)
(0.464763 -0.218134 0)
(0.460346 -0.237183 0)
(0.454873 -0.258355 0)
(0.448135 -0.282022 -5.59534e-18)
(0.439734 -0.308692 -5.7878e-18)
(0.429499 -0.338874 5.83161e-18)
(0.416336 -0.373387 6.05732e-18)
(0.400149 -0.413852 -1.22078e-17)
(0.38242 -0.455121 1.24905e-17)
(0.34144 -0.536338 -1.25205e-17)
(0.462526 -0.0442038 -8.02953e-18)
(0.463572 -0.0482833 -7.60531e-18)
(0.464334 -0.0529745 -1.54301e-18)
(0.465289 -0.0580277 -6.24334e-18)
(0.466257 -0.0633942 -1.08431e-21)
(0.467056 -0.0690919 -3.21337e-18)
(0.467671 -0.0751467 3.54133e-20)
(0.468127 -0.0815811 -8.83694e-18)
(0.468417 -0.0884213 -6.73396e-18)
(0.468511 -0.095701 9.11314e-18)
(0.468382 -0.10346 0)
(0.468004 -0.111743 1.17579e-17)
(0.467349 -0.120599 -1.19598e-17)
(0.466382 -0.130089 -9.74056e-18)
(0.465059 -0.140278 1.48564e-17)
(0.463331 -0.151247 -1.51379e-17)
(0.461137 -0.163089 -5.09547e-18)
(0.458403 -0.175914 -5.31563e-18)
(0.45504 -0.189854 -5.33361e-18)
(0.450937 -0.205064 1.64042e-17)
(0.445957 -0.221731 0)
(0.439928 -0.240079 5.69053e-18)
(0.432624 -0.260382 -1.16611e-17)
(0.42379 -0.282958 1.20455e-17)
(0.412976 -0.308247 6.13887e-18)
(0.399975 -0.336637 1.2692e-17)
(0.383438 -0.368966 0)
(0.364047 -0.405934 1.34679e-17)
(0.339677 -0.445295 0)
(0.298752 -0.515523 -1.42673e-17)
(0.457498 -0.0506527 8.17925e-18)
(0.458079 -0.0547557 4.15799e-18)
(0.458357 -0.0594254 -4.21788e-18)
(0.45887 -0.0644377 3.21105e-18)
(0.459396 -0.0697515 8.6105e-22)
(0.45972 -0.0753832 7.97796e-22)
(0.459829 -0.0813577 -7.79211e-18)
(0.459758 -0.0876975 2.2373e-18)
(0.459498 -0.0944282 1.37973e-17)
(0.459015 -0.101581 -1.16841e-17)
(0.458277 -0.109193 2.38043e-18)
(0.457254 -0.117305 -1.20893e-17)
(0.45591 -0.125963 9.83926e-18)
(0.454204 -0.135221 1.00217e-17)
(0.452086 -0.145143 -5.07203e-18)
(0.449494 -0.155802 1.04163e-17)
(0.446359 -0.167282 0)
(0.442594 -0.179682 5.40813e-18)
(0.438095 -0.193119 5.57398e-18)
(0.432735 -0.207731 -1.13529e-17)
(0.426354 -0.223678 0)
(0.418757 -0.241154 -5.9883e-18)
(0.409689 -0.26039 7.10592e-21)
(0.398861 -0.281649 -1.25629e-17)
(0.385788 -0.305294 1.30313e-17)
(0.37022 -0.331611 -2.00768e-17)
(0.350664 -0.361376 0)
(0.328341 -0.39464 -1.41809e-17)
(0.298266 -0.431149 6.71873e-20)
(0.258117 -0.490882 1.53458e-17)
(0.451688 -0.0565431 4.19173e-18)
(0.451815 -0.0606475 -3.7085e-18)
(0.451621 -0.0652711 3.76422e-18)
(0.451695 -0.070217 -8.75199e-18)
(0.451779 -0.0754513 -4.4521e-18)
(0.451632 -0.0809895 -1.12794e-18)
(0.451243 -0.0868537 4.5977e-18)
(0.450651 -0.0930643 1.04929e-17)