/*--------------------------------*- C++ -*----------------------------------*\
  =========                 |
  \\      /  F ield         | OpenFOAM: The Open Source CFD Toolbox
   \\    /   O peration     | Website:  https://openfoam.org
    \\  /    A nd           | Version:  11
     \\/     M anipulation  |
\*---------------------------------------------------------------------------*/
FoamFile
{
    format      ascii;
    class       volVectorField;
    location    "9";
    object      U;
}
// * * * * * * * * * * * * * * * * * * * * * * * * * * * * * * * * * * * * * //

dimensions      [0 1 -1 0 0 0 0];

internalField   nonuniform List<vector> 
12600
(
(0.412113 0.000106665 0)
(0.411843 0.00018116 0)
(0.411431 0.000191575 0)
(0.410961 0.000194781 0)
(0.410493 0.000199103 0)
(0.410035 0.000202042 0)
(0.409578 0.00020353 0)
(0.409123 0.000204287 0)
(0.408671 0.000204528 0)
(0.408225 0.000204198 0)
(0.407786 0.000203238 0)
(0.407356 0.000201581 0)
(0.406938 0.000199155 0)
(0.406534 0.000195864 0)
(0.406147 0.000191565 0)
(0.405782 0.00018601 0)
(0.405442 0.000178837 0)
(0.405134 0.000169778 0)
(0.404865 0.000158776 0)
(0.404645 0.000145014 0)
(0.404485 0.000128341 0)
(0.404399 0.000109316 0)
(0.404403 8.25126e-05 0)
(0.40452 4.87493e-05 0)
(0.404777 4.3289e-06 0)
(0.405206 -4.90908e-05 0)
(0.405856 -0.000116052 0)
(0.406785 -0.000201099 0)
(0.408176 -0.000340275 0)
(0.408948 -0.000876007 0)
(0.412492 0.000153747 0)
(0.412639 0.000280548 0)
(0.412776 0.000262166 0)
(0.412828 0.000254599 0)
(0.412873 0.000257944 0)
(0.412924 0.000258685 0)
(0.412979 0.000256639 0)
(0.413035 0.000253267 0)
(0.413093 0.00024871 0)
(0.413157 0.000242885 0)
(0.413228 0.000235726 0)
(0.413308 0.000227067 0)
(0.413399 0.00021666 0)
(0.413503 0.000204215 0)
(0.413624 0.000189268 0)
(0.413763 0.000170647 0)
(0.413928 0.00014802 0)
(0.414121 0.000121325 0)
(0.41435 8.75169e-05 0)
(0.414624 4.65848e-05 0)
(0.414952 -3.68178e-06 0)
(0.415348 -6.55285e-05 0)
(0.415825 -0.000141385 0)
(0.416401 -0.000234704 0)
(0.417102 -0.000349587 0)
(0.417944 -0.000493326 0)
(0.419 -0.000671274 0)
(0.420151 -0.000925969 0)
(0.421869 -0.0012007 0)
(0.422332 -0.0021394 0)
(0.41248 8.35384e-05 0)
(0.412555 0.000149871 0)
(0.412648 0.000154813 0)
(0.412716 0.000157247 0)
(0.412769 0.000163823 0)
(0.412821 0.000166898 0)
(0.412875 0.000165681 0)
(0.412932 0.000162262 0)
(0.412991 0.000156752 0)
(0.413054 0.000148961 0)
(0.413124 0.000138898 0)
(0.413203 0.000126349 0)
(0.413294 0.00011094 0)
(0.413397 9.22213e-05 0)
(0.413515 6.98762e-05 0)
(0.413651 4.20906e-05 0)
(0.413809 8.53566e-06 0)
(0.413993 -3.45814e-05 0)
(0.414211 -8.86153e-05 0)
(0.414469 -0.000153268 0)
(0.414777 -0.000232782 0)
(0.415148 -0.000330557 0)
(0.415596 -0.000450911 0)
(0.416139 -0.000598996 0)
(0.416799 -0.000780639 0)
(0.417598 -0.00100626 0)
(0.418573 -0.00128133 0)
(0.41973 -0.00164476 0)
(0.421109 -0.00209126 0)
(0.422698 -0.00248227 0)
(0.412473 5.43056e-05 0)
(0.412523 0.000128781 0)
(0.412598 0.000155707 0)
(0.412663 0.000165503 0)
(0.412714 0.000173507 0)
(0.412763 0.000180179 0)
(0.412815 0.000179068 0)
(0.41287 0.000175088 0)
(0.412928 0.000168146 0)
(0.412989 0.000157846 0)
(0.413058 0.000143894 0)
(0.413135 0.000126091 0)
(0.413223 0.000104119 0)
(0.413324 7.75008e-05 0)
(0.413439 4.53791e-05 0)
(0.413571 7.84911e-06 0)
(0.413724 -3.78393e-05 0)
(0.413902 -9.48174e-05 0)
(0.414113 -0.000165036 0)
(0.414363 -0.000252688 0)
(0.414662 -0.000360689 0)
(0.415021 -0.000493498 0)
(0.415454 -0.000656688 0)
(0.415978 -0.000857281 0)
(0.416614 -0.00110376 0)
(0.417385 -0.0014079 0)
(0.418319 -0.00178119 0)
(0.419446 -0.00224205 0)
(0.420786 -0.00280151 0)
(0.422471 -0.00324205 0)
(0.412468 3.82179e-05 0)
(0.412503 9.75203e-05 0)
(0.412561 0.000122288 0)
(0.412619 0.000128067 0)
(0.412668 0.00013097 0)
(0.412715 0.000132538 0)
(0.412766 0.000130398 0)
(0.41282 0.000123809 0)
(0.412876 0.000112975 0)
(0.412936 9.82328e-05 0)
(0.413003 7.97675e-05 0)
(0.413078 5.65792e-05 0)
(0.413163 2.8692e-05 0)
(0.41326 -4.59749e-06 0)
(0.413371 -4.51651e-05 0)
(0.413499 -9.29901e-05 0)
(0.413647 -0.000151523 0)
(0.413819 -0.000223226 0)
(0.414021 -0.000311853 0)
(0.414261 -0.000421706 0)
(0.414547 -0.00055701 0)
(0.414891 -0.0007235 0)
(0.415304 -0.000928154 0)
(0.415804 -0.00117948 0)
(0.41641 -0.00148781 0)
(0.417145 -0.00186617 0)
(0.418034 -0.00232936 0)
(0.41912 -0.00288922 0)
(0.420406 -0.00357847 0)
(0.422101 -0.0042193 0)
(0.412466 2.72469e-05 0)
(0.412491 7.28663e-05 0)
(0.412538 9.68794e-05 0)
(0.412589 0.000105597 0)
(0.412637 0.000110309 0)
(0.412683 0.00011369 0)
(0.412731 0.000113006 0)
(0.412783 0.000107093 0)
(0.412838 9.61617e-05 0)
(0.412896 8.02165e-05 0)
(0.412961 5.89628e-05 0)
(0.413034 3.22006e-05 0)
(0.413116 -2.13156e-07 0)
(0.413209 -3.87453e-05 0)
(0.413315 -8.4971e-05 0)
(0.413437 -0.000141473 0)
(0.413578 -0.000210193 0)
(0.413742 -0.000294646 0)
(0.413934 -0.000399329 0)
(0.414161 -0.00052934 0)
(0.414431 -0.00069011 0)
(0.414755 -0.000888173 0)
(0.415145 -0.00113152 0)
(0.415616 -0.0014301 0)
(0.416186 -0.00179627 0)
(0.416878 -0.00224498 0)
(0.417715 -0.00279452 0)
(0.418744 -0.00345756 0)
(0.419965 -0.00428058 0)
(0.421611 -0.00510823 0)
(0.412464 1.95707e-05 0)
(0.412483 5.40161e-05 0)
(0.412522 7.50484e-05 0)
(0.412567 8.38083e-05 0)
(0.412612 8.7325e-05 0)
(0.412656 8.84317e-05 0)
(0.412702 8.55035e-05 0)
(0.412752 7.7164e-05 0)
(0.412804 6.31504e-05 0)
(0.412861 4.33774e-05 0)
(0.412923 1.76667e-05 0)
(0.412993 -1.43706e-05 0)
(0.413071 -5.30396e-05 0)
(0.41316 -9.89196e-05 0)
(0.413261 -0.000153136 0)
(0.413376 -0.00021864 0)
(0.413509 -0.000298454 0)
(0.413662 -0.000396527 0)
(0.413842 -0.000517691 0)
(0.414055 -0.000667517 0)
(0.414307 -0.000852331 0)
(0.414609 -0.00107978 0)
(0.414972 -0.00135921 0)
(0.415409 -0.00170209 0)
(0.415937 -0.00212259 0)
(0.416578 -0.00263771 0)
(0.417354 -0.00326884 0)
(0.418313 -0.00403335 0)
(0.419455 -0.00498147 0)
(0.421013 -0.00600256 0)
(0.412463 1.3833e-05 0)
(0.412479 3.89118e-05 0)
(0.41251 5.55985e-05 0)
(0.412551 6.30915e-05 0)
(0.412593 6.5496e-05 0)
(0.412635 6.52769e-05 0)
(0.412679 6.14439e-05 0)
(0.412726 5.23226e-05 0)
(0.412777 3.70929e-05 0)
(0.412831 1.54541e-05 0)
(0.412891 -1.27777e-05 0)
(0.412957 -4.78703e-05 0)
(0.413031 -9.02402e-05 0)
(0.413115 -0.000140745 0)
(0.41321 -0.000200878 0)
(0.413318 -0.000273458 0)
(0.413441 -0.000361939 0)
(0.413584 -0.000470759 0)
(0.41375 -0.000605376 0)
(0.413946 -0.000772136 0)
(0.414178 -0.000978257 0)
(0.414454 -0.00123225 0)
(0.414785 -0.00154441 0)
(0.415184 -0.00192742 0)
(0.415665 -0.00239716 0)
(0.416249 -0.00297291 0)
(0.416955 -0.00367928 0)
(0.417832 -0.00453941 0)
(0.418876 -0.00560638 0)
(0.420321 -0.00681048 0)
(0.412463 9.29408e-06 0)
(0.412475 2.64526e-05 0)
(0.412502 3.84655e-05 0)
(0.412538 4.4018e-05 0)
(0.412577 4.52138e-05 0)
(0.412617 4.36824e-05 0)
(0.412659 3.85623e-05 0)
(0.412704 2.80427e-05 0)
(0.412752 1.09462e-05 0)
(0.412804 -1.32216e-05 0)
(0.412861 -4.47113e-05 0)
(0.412923 -8.37388e-05 0)
(0.412993 -0.000130747 0)
(0.413071 -0.000186657 0)
(0.413159 -0.000253145 0)
(0.413259 -0.000333106 0)
(0.413372 -0.000430454 0)
(0.413503 -0.000550121 0)
(0.413654 -0.00069802 0)
(0.413831 -0.000880982 0)
(0.41404 -0.00110687 0)
(0.414289 -0.00138499 0)
(0.414586 -0.00172665 0)
(0.414942 -0.00214579 0)
(0.41537 -0.00265996 0)
(0.41589 -0.0032907 0)
(0.416518 -0.00406565 0)
(0.4173 -0.0050141 0)
(0.418232 -0.00619005 0)
(0.419535 -0.00756786 0)
(0.412462 5.57679e-06 0)
(0.412473 1.59373e-05 0)
(0.412496 2.33227e-05 0)
(0.412528 2.64648e-05 0)
(0.412564 2.61634e-05 0)
(0.412602 2.32096e-05 0)
(0.412642 1.66926e-05 0)
(0.412685 4.77869e-06 0)
(0.412731 -1.39441e-05 0)
(0.41278 -4.01618e-05 0)
(0.412833 -7.4188e-05 0)
(0.412892 -0.000116248 0)
(0.412957 -0.000166784 0)
(0.413029 -0.000226786 0)
(0.41311 -0.000298133 0)
(0.4132 -0.000383893 0)
(0.413303 -0.000488297 0)
(0.41342 -0.000616652 0)
(0.413555 -0.000775301 0)
(0.413712 -0.000971605 0)
(0.413897 -0.00121405 0)
(0.414115 -0.00151263 0)
(0.414375 -0.00187948 0)
(0.414685 -0.00232962 0)
(0.415056 -0.00288199 0)
(0.415506 -0.00356025 0)
(0.416048 -0.00439481 0)
(0.416723 -0.00542092 0)
(0.417527 -0.00669353 0)
(0.418666 -0.00822788 0)
(0.412462 2.39443e-06 0)
(0.412471 6.87198e-06 0)
(0.412492 9.83195e-06 0)
(0.412521 1.02859e-05 0)
(0.412554 8.2798e-06 0)
(0.41259 3.87886e-06 0)
(0.412628 -4.00538e-06 0)
(0.412668 -1.72497e-05 0)
(0.412712 -3.74508e-05 0)
(0.412758 -6.54981e-05 0)
(0.412808 -0.000101783 0)
(0.412862 -0.000146558 0)
(0.412922 -0.000200288 0)
(0.412988 -0.000264034 0)
(0.41306 -0.00033981 0)
(0.413141 -0.000430833 0)
(0.413232 -0.000541574 0)
(0.413336 -0.000677664 0)
(0.413453 -0.000845812 0)
(0.413589 -0.00105378 0)
(0.413748 -0.00131052 0)
(0.413934 -0.00162658 0)
(0.414153 -0.00201479 0)
(0.414414 -0.00249106 0)
(0.414725 -0.00307558 0)
(0.415099 -0.00379383 0)
(0.415549 -0.00467868 0)
(0.416107 -0.00577071 0)
(0.41677 -0.00712533 0)
(0.417719 -0.00879722 0)
(0.412462 -4.31266e-07 0)
(0.41247 -1.15607e-06 0)
(0.412489 -2.28351e-06 0)
(0.412515 -4.61245e-06 0)
(0.412546 -8.48627e-06 0)
(0.412579 -1.43607e-05 0)
(0.412615 -2.35701e-05 0)
(0.412654 -3.80789e-05 0)
(0.412695 -5.96237e-05 0)
(0.412738 -8.92493e-05 0)
(0.412784 -0.000127429 0)
(0.412834 -0.000174436 0)
(0.412888 -0.00023075 0)
(0.412947 -0.00029748 0)
(0.413012 -0.000376737 0)
(0.413083 -0.00047188 0)
(0.413162 -0.000587574 0)
(0.41325 -0.000729698 0)
(0.41335 -0.000905243 0)
(0.413463 -0.00112229 0)
(0.413594 -0.00139018 0)
(0.413747 -0.00171989 0)
(0.413924 -0.00212476 0)
(0.414133 -0.0026214 0)
(0.41438 -0.00323095 0)
(0.414675 -0.00398033 0)
(0.415026 -0.00490438 0)
(0.415459 -0.00604809 0)
(0.415968 -0.00746718 0)
(0.416707 -0.00925132 0)
(0.412462 -2.88746e-06 0)
(0.412469 -8.32377e-06 0)
(0.412486 -1.33522e-05 0)
(0.41251 -1.84471e-05 0)
(0.412539 -2.42143e-05 0)
(0.412571 -3.15522e-05 0)
(0.412605 -4.20352e-05 0)
(0.412641 -5.77103e-05 0)
(0.412679 -8.04165e-05 0)
(0.41272 -0.000111326 0)
(0.412762 -0.000150997 0)
(0.412808 -0.000199728 0)
(0.412856 -0.00025802 0)
(0.412908 -0.000327022 0)
(0.412964 -0.000408924 0)
(0.413025 -0.000507197 0)
(0.413091 -0.000626645 0)
(0.413164 -0.000773326 0)
(0.413245 -0.000954436 0)
(0.413335 -0.00117828 0)
(0.413438 -0.00145445 0)
(0.413555 -0.0017942 0)
(0.413689 -0.00221123 0)
(0.413845 -0.0027226 0)
(0.414025 -0.00335008 0)
(0.414237 -0.00412158 0)
(0.414485 -0.00507326 0)
(0.414787 -0.00625342 0)
(0.415134 -0.00771755 0)
(0.415644 -0.00958481 0)
(0.412462 -5.1329e-06 0)
(0.412468 -1.48539e-05 0)
(0.412484 -2.3528e-05 0)
(0.412506 -3.13558e-05 0)
(0.412533 -3.90368e-05 0)
(0.412563 -4.77961e-05 0)
(0.412596 -5.94569e-05 0)
(0.41263 -7.61622e-05 0)
(0.412665 -9.98176e-05 0)
(0.412703 -0.000131692 0)
(0.412742 -0.000172427 0)
(0.412783 -0.000222366 0)
(0.412825 -0.000282023 0)
(0.41287 -0.000352571 0)
(0.412917 -0.000436244 0)
(0.412967 -0.000536582 0)
(0.413021 -0.000658478 0)
(0.413078 -0.000808097 0)
(0.413139 -0.000992755 0)
(0.413206 -0.00122089 0)
(0.41328 -0.0015022 0)
(0.413361 -0.00184811 0)
(0.413451 -0.00227247 0)
(0.413552 -0.00279253 0)
(0.413665 -0.00343035 0)
(0.413792 -0.00421429 0)
(0.413934 -0.00518113 0)
(0.4141 -0.00638107 0)
(0.414279 -0.00786877 0)
(0.414547 -0.00978536 0)
(0.412461 -7.21345e-06 0)
(0.412468 -2.09318e-05 0)
(0.412482 -3.30426e-05 0)
(0.412503 -4.34908e-05 0)
(0.412529 -5.304e-05 0)
(0.412558 -6.31656e-05 0)
(0.412588 -7.58935e-05 0)
(0.41262 -9.34562e-05 0)
(0.412653 -0.000117819 0)
(0.412688 -0.000150333 0)
(0.412723 -0.000191713 0)
(0.412759 -0.000242334 0)
(0.412796 -0.000302718 0)
(0.412834 -0.000374049 0)
(0.412872 -0.000458588 0)
(0.412911 -0.000559905 0)
(0.412951 -0.000682931 0)
(0.412993 -0.000833867 0)
(0.413035 -0.00102006 0)
(0.413078 -0.00124998 0)
(0.413122 -0.00153335 0)
(0.413167 -0.00188157 0)
(0.413213 -0.00230845 0)
(0.413258 -0.0028312 0)
(0.413303 -0.00347175 0)
(0.413345 -0.0042584 0)
(0.41338 -0.00522771 0)
(0.413409 -0.0064303 0)
(0.413418 -0.0079191 0)
(0.413437 -0.00984837 0)
(0.412461 -9.18019e-06 0)
(0.412467 -2.66807e-05 0)
(0.412481 -4.20627e-05 0)
(0.412502 -5.50253e-05 0)
(0.412526 -6.63584e-05 0)
(0.412553 -7.77432e-05 0)
(0.412582 -9.13925e-05 0)
(0.412612 -0.000109624 0)
(0.412643 -0.000134446 0)
(0.412675 -0.000167266 0)
(0.412706 -0.000208853 0)
(0.412738 -0.000259612 0)
(0.412769 -0.000320073 0)
(0.412799 -0.000391421 0)
(0.412828 -0.000475919 0)
(0.412857 -0.00057713 0)
(0.412884 -0.000699963 0)
(0.412909 -0.000850586 0)
(0.412932 -0.0010363 0)
(0.412951 -0.0012655 0)
(0.412966 -0.00154781 0)
(0.412975 -0.00189447 0)
(0.412976 -0.00231907 0)
(0.412967 -0.00283847 0)
(0.412944 -0.00347415 0)
(0.412901 -0.00425373 0)
(0.412831 -0.00521279 0)
(0.412723 -0.00640071 0)
(0.412564 -0.00786772 0)
(0.412336 -0.00977139 0)
(0.412461 -1.10843e-05 0)
(0.412467 -3.22432e-05 0)
(0.412481 -5.07693e-05 0)
(0.4125 -6.61072e-05 0)
(0.412524 -7.90838e-05 0)
(0.41255 -9.15955e-05 0)
(0.412577 -0.000106026 0)
(0.412606 -0.000124742 0)
(0.412635 -0.000149764 0)
(0.412663 -0.000182537 0)
(0.412691 -0.00022388 0)
(0.412718 -0.000274225 0)
(0.412743 -0.000334107 0)
(0.412766 -0.000404702 0)
(0.412787 -0.00048825 0)
(0.412805 -0.000588267 0)
(0.412819 -0.000709592 0)
(0.412828 -0.000858291 0)
(0.412831 -0.00104154 0)
(0.412827 -0.00126755 0)
(0.412813 -0.00154573 0)
(0.412787 -0.00188703 0)
(0.412744 -0.00230461 0)
(0.412682 -0.00281478 0)
(0.412592 -0.00343817 0)
(0.412466 -0.00420122 0)
(0.412294 -0.00513769 0)
(0.412054 -0.0062942 0)
(0.411732 -0.00771724 0)
(0.411266 -0.00955756 0)
(0.412461 -1.29813e-05 0)
(0.412467 -3.77684e-05 0)
(0.412481 -5.93534e-05 0)
(0.4125 -7.69146e-05 0)
(0.412524 -9.13603e-05 0)
(0.412549 -0.000104839 0)
(0.412575 -0.000119885 0)
(0.412601 -0.000138876 0)
(0.412628 -0.000163816 0)
(0.412654 -0.00019618 0)
(0.412678 -0.000236827 0)
(0.412701 -0.00028621 0)
(0.41272 -0.000344864 0)
(0.412736 -0.000413949 0)
(0.412749 -0.000495655 0)
(0.412756 -0.000593416 0)
(0.412757 -0.000711944 0)
(0.412751 -0.000857139 0)
(0.412735 -0.00103596 0)
(0.412708 -0.00125637 0)
(0.412666 -0.00152743 0)
(0.412605 -0.00185966 0)
(0.41252 -0.00226566 0)
(0.412405 -0.00276091 0)
(0.412251 -0.00336491 0)
(0.412046 -0.00410241 0)
(0.411776 -0.00500467 0)
(0.411412 -0.00611415 0)
(0.410937 -0.00747261 0)
(0.41025 -0.0092145 0)
(0.412461 -1.4936e-05 0)
(0.412468 -4.34308e-05 0)
(0.412482 -6.80299e-05 0)
(0.412502 -8.76288e-05 0)
(0.412525 -0.000103315 0)
(0.412549 -0.00011757 0)
(0.412574 -0.000133058 0)
(0.412599 -0.000152105 0)
(0.412624 -0.000176676 0)
(0.412647 -0.000208265 0)
(0.412668 -0.000247766 0)
(0.412686 -0.000295645 0)
(0.4127 -0.00035243 0)
(0.41271 -0.000419254 0)
(0.412713 -0.000498242 0)
(0.41271 -0.000592711 0)
(0.412699 -0.000707195 0)
(0.412678 -0.000847363 0)
(0.412644 -0.00101989 0)
(0.412595 -0.00123238 0)
(0.412525 -0.00149348 0)
(0.412431 -0.00181314 0)
(0.412306 -0.00220325 0)
(0.412141 -0.00267828 0)
(0.411926 -0.00325629 0)
(0.411646 -0.00395998 0)
(0.411284 -0.00481753 0)
(0.410805 -0.00586612 0)
(0.410189 -0.007142 0)
(0.409307 -0.00875543 0)
(0.412462 -1.70315e-05 0)
(0.412468 -4.94449e-05 0)
(0.412483 -7.70422e-05 0)
(0.412504 -9.84392e-05 0)
(0.412527 -0.000115089 0)
(0.412551 -0.000129914 0)
(0.412575 -0.000145654 0)
(0.412599 -0.000164515 0)
(0.412622 -0.000188409 0)
(0.412643 -0.000218859 0)
(0.412661 -0.000256782 0)
(0.412675 -0.00030264 0)
(0.412684 -0.000356946 0)
(0.412686 -0.000420792 0)
(0.412682 -0.000496214 0)
(0.412669 -0.000586372 0)
(0.412647 -0.000695577 0)
(0.412611 -0.000829207 0)
(0.41256 -0.00099358 0)
(0.412489 -0.00119588 0)
(0.412394 -0.00144421 0)
(0.412268 -0.0017479 0)
(0.412104 -0.00211795 0)
(0.411892 -0.0025677 0)
(0.41162 -0.00311358 0)
(0.411271 -0.0037759 0)
(0.410824 -0.00457941 0)
(0.410241 -0.00555531 0)
(0.409501 -0.00673394 0)
(0.408455 -0.00819569 0)
(0.412462 -1.93796e-05 0)
(0.412469 -5.60909e-05 0)
(0.412486 -8.6681e-05 0)
(0.412508 -0.000109545 0)
(0.412532 -0.00012682 0)
(0.412556 -0.000141995 0)
(0.412579 -0.000157788 0)
(0.412602 -0.000176204 0)
(0.412624 -0.000199101 0)
(0.412642 -0.000228036 0)
(0.412657 -0.000263939 0)
(0.412667 -0.000307266 0)
(0.412671 -0.000358514 0)
(0.412667 -0.000418738 0)
(0.412656 -0.000489866 0)
(0.412634 -0.000574863 0)
(0.4126 -0.000677768 0)
(0.41255 -0.000803611 0)
(0.412483 -0.000958286 0)
(0.412392 -0.00114847 0)
(0.412273 -0.00138166 0)
(0.412117 -0.00166646 0)
(0.411918 -0.0020129 0)
(0.411662 -0.00243304 0)
(0.411337 -0.00294151 0)
(0.410925 -0.00355611 0)
(0.410401 -0.00429795 0)
(0.409728 -0.00519198 0)
(0.40888 -0.00626264 0)
(0.407703 -0.00755783 0)
(0.412462 -2.2142e-05 0)
(0.412471 -6.3753e-05 0)
(0.41249 -9.72938e-05 0)
(0.412515 -0.000121138 0)
(0.41254 -0.000138627 0)
(0.412563 -0.000153931 0)
(0.412586 -0.000169581 0)
(0.412608 -0.000187305 0)
(0.412628 -0.000208918 0)
(0.412645 -0.000235994 0)
(0.412657 -0.000269431 0)
(0.412663 -0.000309655 0)
(0.412662 -0.000357145 0)
(0.412653 -0.000412909 0)
(0.412634 -0.000478757 0)
(0.412604 -0.000557439 0)
(0.412559 -0.000652688 0)
(0.412498 -0.000769143 0)
(0.412415 -0.000912222 0)
(0.412305 -0.00108803 0)
(0.412163 -0.00130343 0)
(0.411981 -0.00156619 0)
(0.411748 -0.00188533 0)
(0.411453 -0.00227152 0)
(0.41108 -0.00273758 0)
(0.41061 -0.0032987 0)
(0.41002 -0.00397242 0)
(0.409268 -0.00477766 0)
(0.40833 -0.0057336 0)
(0.407057 -0.00685614 0)
(0.412463 -2.55665e-05 0)
(0.412474 -7.29663e-05 0)
(0.412497 -0.000109288 0)
(0.412525 -0.000133428 0)
(0.412551 -0.000150662 0)
(0.412574 -0.000165818 0)
(0.412597 -0.000181023 0)
(0.412618 -0.000197748 0)
(0.412637 -0.000217852 0)
(0.412652 -0.000242924 0)
(0.412661 -0.00027379 0)
(0.412664 -0.000310821 0)
(0.412659 -0.000354477 0)
(0.412645 -0.000405693 0)
(0.41262 -0.000466115 0)
(0.412581 -0.000538236 0)
(0.412527 -0.000625427 0)
(0.412454 -0.000731878 0)
(0.412357 -0.000862473 0)
(0.412231 -0.0010227 0)
(0.412069 -0.00121867 0)
(0.411861 -0.00145733 0)
(0.411598 -0.0017466 0)
(0.411267 -0.00209576 0)
(0.410852 -0.00251573 0)
(0.410332 -0.00301914 0)
(0.409683 -0.00362015 0)
(0.408866 -0.00433218 0)
(0.407855 -0.00517057 0)
(0.406519 -0.00612253 0)
(0.412463 -3.00651e-05 0)
(0.412478 -8.44731e-05 0)
(0.412507 -0.00012304 0)
(0.412539 -0.000146609 0)
(0.412566 -0.000163304 0)
(0.41259 -0.000178131 0)
(0.412612 -0.000192408 0)
(0.412633 -0.000207403 0)
(0.412651 -0.000225103 0)
(0.412664 -0.000247119 0)
(0.412671 -0.00027421 0)
(0.412671 -0.000306717 0)
(0.412662 -0.0003451 0)
(0.412643 -0.00039023 0)
(0.412612 -0.000443602 0)
(0.412566 -0.000507467 0)
(0.412504 -0.00058482 0)
(0.41242 -0.00067937 0)
(0.412311 -0.000795423 0)
(0.412169 -0.000937767 0)
(0.411989 -0.00111176 0)
(0.411759 -0.00132347 0)
(0.41147 -0.00157971 0)
(0.411108 -0.0018883 0)
(0.410655 -0.00225838 0)
(0.410092 -0.00270012 0)
(0.409393 -0.00322475 0)
(0.408522 -0.00384093 0)
(0.407454 -0.00456226 0)
(0.406079 -0.00535366 0)
(0.412465 -3.63892e-05 0)
(0.412485 -9.94226e-05 0)
(0.412522 -0.000138689 0)
(0.412558 -0.00016018 0)
(0.412587 -0.000176269 0)
(0.412611 -0.000191456 0)
(0.412634 -0.000205752 0)
(0.412655 -0.000220203 0)
(0.412672 -0.000236848 0)
(0.412684 -0.000257168 0)
(0.412689 -0.000281765 0)
(0.412686 -0.000310952 0)
(0.412674 -0.000345176 0)
(0.412651 -0.000385222 0)
(0.412614 -0.000432391 0)
(0.412563 -0.000488613 0)
(0.412492 -0.000556468 0)
(0.4124 -0.000639154 0)
(0.412279 -0.000740388 0)
(0.412125 -0.000864257 0)
(0.411928 -0.00101535 0)
(0.411679 -0.00119883 0)
(0.411367 -0.00142041 0)
(0.410978 -0.00168653 0)
(0.410494 -0.00200445 0)
(0.409894 -0.00238185 0)
(0.409154 -0.0028274 0)
(0.40824 -0.00334582 0)
(0.407126 -0.00395202 0)
(0.405729 -0.00459681 0)
(0.412467 -4.58807e-05 0)
(0.412497 -0.000119917 0)
(0.412545 -0.000157553 0)
(0.412586 -0.000174031 0)
(0.412615 -0.000186323 0)
(0.412639 -0.000198146 0)
(0.412663 -0.000208872 0)
(0.412684 -0.000219616 0)
(0.4127 -0.000232302 0)
(0.412711 -0.0002482 0)
(0.412714 -0.000267739 0)
(0.412709 -0.00029119 0)
(0.412694 -0.000318963 0)
(0.412667 -0.00035177 0)
(0.412626 -0.000390746 0)
(0.412569 -0.000437508 0)
(0.412493 -0.000494169 0)
(0.412392 -0.000563369 0)
(0.412263 -0.000648119 0)
(0.412097 -0.000751648 0)
(0.411887 -0.000877837 0)
(0.411622 -0.00103096 0)
(0.411291 -0.00121548 0)
(0.410879 -0.00143658 0)
(0.410369 -0.00170017 0)
(0.40974 -0.0020116 0)
(0.408967 -0.00237717 0)
(0.408018 -0.0027968 0)
(0.406869 -0.0032928 0)
(0.405449 -0.00380415 0)
(0.412471 -6.0351e-05 0)
(0.412517 -0.000146738 0)
(0.412581 -0.000183821 0)
(0.412629 -0.00020179 0)
(0.412659 -0.000217323 0)
(0.412683 -0.00023068 0)
(0.412707 -0.000241403 0)
(0.412727 -0.000251593 0)
(0.412743 -0.000263205 0)
(0.412753 -0.00027704 0)
(0.412755 -0.000293451 0)
(0.412748 -0.000312759 0)
(0.412731 -0.000335393 0)
(0.412701 -0.000361971 0)
(0.412656 -0.000393415 0)
(0.412595 -0.000431017 0)
(0.412513 -0.000476406 0)
(0.412406 -0.00053173 0)
(0.412269 -0.00059955 0)
(0.412094 -0.000682151 0)
(0.411873 -0.000782493 0)
(0.411596 -0.000904231 0)
(0.411249 -0.00105074 0)
(0.410819 -0.00122545 0)
(0.410289 -0.00143249 0)
(0.409637 -0.0016752 0)
(0.408841 -0.00195818 0)
(0.407864 -0.002275 0)
(0.406691 -0.00265807 0)
(0.405228 -0.00305047 0)
(0.412479 -8.78967e-05 0)
(0.412549 -0.000162955 0)
(0.41263 -0.000176439 0)
(0.412681 -0.000184619 0)
(0.412712 -0.000195608 0)
(0.412738 -0.000205237 0)
(0.412763 -0.000212873 0)
(0.412784 -0.000220276 0)
(0.4128 -0.000228434 0)
(0.412809 -0.000238585 0)
(0.412811 -0.00025054 0)
(0.412803 -0.000264653 0)
(0.412783 -0.000281287 0)
(0.412751 -0.000300977 0)
(0.412704 -0.000324477 0)
(0.412639 -0.000352763 0)
(0.412553 -0.000387043 0)
(0.412442 -0.000428622 0)
(0.412299 -0.000479008 0)
(0.412117 -0.000540363 0)
(0.411887 -0.00061476 0)
(0.4116 -0.000704184 0)
(0.411241 -0.000811374 0)
(0.410798 -0.000939453 0)
(0.410253 -0.00109124 0)
(0.409585 -0.00126782 0)
(0.408775 -0.00147087 0)
(0.407776 -0.00168445 0)
(0.40659 -0.00194488 0)
(0.404988 -0.00211692 0)
(0.41249 -0.000156604 0)
(0.412638 -0.000290593 0)
(0.412753 -0.000274919 0)
(0.412786 -0.000271027 0)
(0.412808 -0.000276696 0)
(0.412833 -0.000281897 0)
(0.412856 -0.000285473 0)
(0.412871 -0.000289162 0)
(0.412879 -0.000293713 0)
(0.41288 -0.000299154 0)
(0.412873 -0.000305617 0)
(0.412856 -0.000313359 0)
(0.412827 -0.00032272 0)
(0.412784 -0.000334174 0)
(0.412725 -0.000348275 0)
(0.412646 -0.00036544 0)
(0.412543 -0.000386135 0)
(0.412412 -0.000411824 0)
(0.412244 -0.000444145 0)
(0.412035 -0.000481328 0)
(0.411773 -0.000526618 0)
(0.41145 -0.000582878 0)
(0.411051 -0.000649865 0)
(0.410563 -0.000728722 0)
(0.409968 -0.000821157 0)
(0.409249 -0.000928255 0)
(0.408384 -0.00105098 0)
(0.407336 -0.00116585 0)
(0.406081 -0.00131826 0)
(0.40374 -0.00094784 0)
(0.412111 -0.000108164 0)
(0.411833 -0.00018331 0)
(0.411408 -0.000195403 0)
(0.410919 -0.000200076 0)
(0.410428 -0.000205928 0)
(0.409942 -0.000210267 0)
(0.409452 -0.000213414 0)
(0.408954 -0.000216325 0)
(0.40845 -0.000219303 0)
(0.407939 -0.000222481 0)
(0.407419 -0.000225969 0)
(0.406889 -0.000229885 0)
(0.406347 -0.000234304 0)
(0.40579 -0.000239294 0)
(0.405216 -0.000244972 0)
(0.404621 -0.000251561 0)
(0.404 -0.000259395 0)
(0.403349 -0.000268588 0)
(0.40266 -0.000279269 0)
(0.401926 -0.000292556 0)
(0.401136 -0.000308814 0)
(0.400279 -0.000328026 0)
(0.399341 -0.000350987 0)
(0.398307 -0.000379001 0)
(0.397159 -0.000412813 0)
(0.395878 -0.000450635 0)
(0.394445 -0.000496981 0)
(0.392859 -0.000517537 0)
(0.391172 -0.000625764 0)
(0.387894 -3.24885e-05 0)
(0.41472 -0.0018714 -1.45904e-18)
(0.419999 -0.00251116 -1.12368e-20)
(0.423783 -0.0029586 1.50259e-18)
(0.425729 -0.00355338 3.01394e-18)
(0.426813 -0.00433702 1.53586e-18)
(0.427572 -0.00528289 -1.52379e-18)
(0.428185 -0.00636855 1.55031e-18)
(0.428729 -0.00759076 0)
(0.429254 -0.00894877 1.56819e-18)
(0.429783 -0.0104408 -8.17628e-21)
(0.430319 -0.0120713 1.10109e-19)
(0.430856 -0.0138548 0)
(0.431393 -0.015814 -1.84359e-18)
(0.431933 -0.017979 0)
(0.432482 -0.0203875 0)
(0.433047 -0.0230883 -2.01456e-18)
(0.433639 -0.0261449 -1.92611e-18)
(0.434266 -0.0296415 -8.25391e-22)
(0.434939 -0.0336914 1.9016e-18)
(0.435675 -0.0384492 2.81092e-19)
(0.436488 -0.0441281 -2.58871e-18)
(0.437402 -0.0510451 2.96993e-19)
(0.438447 -0.059591 -1.5332e-19)
(0.439643 -0.0706824 2.30372e-18)
(0.441111 -0.0844951 3.13381e-19)
(0.442655 -0.105734 -1.59005e-19)
(0.445206 -0.128386 0)
(0.446884 -0.182872 -1.95942e-18)
(0.453755 -0.218307 -1.98616e-18)
(0.455527 -0.407817 0)
(0.424007 -0.00250861 1.46333e-18)
(0.425673 -0.00282776 -3.45062e-20)
(0.426613 -0.00345266 2.90053e-20)
(0.426704 -0.00430195 -1.52573e-18)
(0.426826 -0.00529352 -4.87417e-20)
(0.427123 -0.00639113 1.6438e-18)
(0.427538 -0.0075919 1.53354e-18)
(0.428002 -0.00890094 2.08691e-19)
(0.428486 -0.0103217 -1.07032e-19)
(0.428973 -0.0118613 1.74662e-18)
(0.429454 -0.0135353 1.91335e-18)
(0.429921 -0.0153657 1.73369e-18)
(0.430378 -0.017379 2.01776e-18)
(0.430829 -0.0196063 1.8315e-18)
(0.43128 -0.0220868 2.01017e-18)
(0.431733 -0.024871 4.25016e-18)
(0.432192 -0.0280252 2.00094e-18)
(0.43266 -0.0316371 -2.33743e-18)
(0.43314 -0.0358235 2.41298e-18)
(0.433634 -0.0407434 -1.45033e-19)
(0.434141 -0.0466165 1.50657e-19)
(0.434661 -0.0537588 2.49917e-18)
(0.435174 -0.0625984 0)
(0.435675 -0.0739474 -1.61959e-19)
(0.436091 -0.0883271 2.8795e-18)
(0.436265 -0.109479 0)
(0.43644 -0.133662 2.76373e-18)
(0.434684 -0.186225 -2.36979e-18)
(0.434957 -0.224697 -3.92027e-20)
(0.426753 -0.406347 2.08985e-19)
(0.423686 -0.00278803 -1.14206e-20)
(0.424367 -0.00333956 -1.15617e-20)
(0.424914 -0.0043043 -1.49493e-18)
(0.425317 -0.00539014 -4.84867e-20)
(0.425748 -0.0064895 4.9717e-20)
(0.426271 -0.00762007 -5.0668e-20)
(0.426798 -0.0088215 -1.60625e-18)
(0.427276 -0.0101187 0)
(0.427712 -0.0115274 0)
(0.428121 -0.0130633 0)
(0.428511 -0.0147442 -1.82961e-18)
(0.428886 -0.0165907 -1.04138e-19)
(0.429247 -0.0186269 -1.68919e-18)
(0.429596 -0.0208834 -1.98758e-18)
(0.429932 -0.0234004 -2.17485e-18)
(0.430254 -0.0262302 -2.10878e-18)
(0.430559 -0.0294407 1.6013e-19)
(0.430845 -0.033121 2.10376e-18)
(0.431104 -0.0373901 -2.17348e-18)
(0.431326 -0.0424086 -1.51165e-19)
(0.431492 -0.0483991 0)
(0.431576 -0.0556754 -5.32869e-18)
(0.431522 -0.064689 1.67454e-19)
(0.431254 -0.0761598 -2.79235e-18)
(0.430624 -0.0909213 8.95188e-20)
(0.429271 -0.111714 0)
(0.427226 -0.13737 -5.94031e-18)
(0.421816 -0.187006 5.4254e-18)
(0.415881 -0.229914 -2.89016e-18)
(0.396824 -0.401116 -2.56774e-19)
(0.423621 -0.00405636 0)
(0.424157 -0.0048089 -1.54005e-18)
(0.42464 -0.00575369 7.2011e-23)
(0.425036 -0.00673232 2.47274e-20)
(0.425411 -0.00772912 0)
(0.425792 -0.00880144 0)
(0.426157 -0.00998674 -1.69809e-18)
(0.426497 -0.0112929 0)
(0.426821 -0.0127223 1.11094e-19)
(0.427138 -0.0142836 -2.28416e-19)
(0.427444 -0.0159917 3.24514e-22)
(0.427732 -0.0178665 -1.80273e-18)
(0.427998 -0.0199336 1.24061e-19)
(0.42824 -0.0222258 1.92994e-18)
(0.428452 -0.0247853 1.31861e-19)
(0.428632 -0.0276659 2.05737e-18)
(0.42877 -0.0309366 -2.24199e-18)
(0.428856 -0.0346878 -2.34913e-18)
(0.428875 -0.0390399 0)
(0.428802 -0.0441549 2.37045e-18)
(0.428599 -0.0502565 1.62761e-19)
(0.428213 -0.0576584 2.84156e-18)
(0.427546 -0.0668148 -1.75584e-19)
(0.42647 -0.078411 2.87042e-18)
(0.424704 -0.0933953 -2.9652e-18)
(0.421826 -0.113966 0)
(0.417311 -0.140476 3.19968e-18)
(0.408475 -0.187522 -3.01186e-18)
(0.395906 -0.233493 2.95539e-18)
(0.366928 -0.392934 6.59951e-20)
(0.423243 -0.00516454 0)
(0.423627 -0.00588633 1.53496e-18)
(0.423953 -0.00675885 0)
(0.42427 -0.00771426 0)
(0.424588 -0.0087435 0)
(0.424907 -0.00986754 0)
(0.425217 -0.0110974 1.72217e-18)
(0.425509 -0.0124338 5.52948e-20)
(0.42578 -0.0138824 -5.69043e-20)
(0.426029 -0.0154579 0)
(0.426252 -0.0171804 0)
(0.426444 -0.0190726 1.23578e-19)
(0.426602 -0.021162 -2.54721e-22)
(0.426722 -0.0234822 -2.22641e-18)
(0.426797 -0.0260757 0)
(0.426817 -0.0289966 -2.23601e-18)
(0.42677 -0.0323145 0)
(0.426638 -0.0361205 2.54895e-18)
(0.426392 -0.0405353 -3.13358e-19)
(0.425996 -0.0457212 -2.42169e-18)
(0.425392 -0.0519008 1.37037e-18)
(0.424499 -0.0593851 0)
(0.423176 -0.0686242 0)
(0.421237 -0.0802772 0)
(0.418284 -0.0953356 1.63743e-18)
(0.413815 -0.115634 -1.71134e-18)
(0.406756 -0.142528 0)
(0.394573 -0.186974 -1.80052e-18)
(0.375266 -0.23514 -1.88456e-18)
(0.336671 -0.381858 1.21468e-18)
(0.422706 -0.00617134 7.53969e-19)
(0.422999 -0.00692557 7.954e-19)
(0.423238 -0.00781609 8.26611e-19)
(0.423505 -0.00879251 7.69607e-19)
(0.423779 -0.00984185 9.19327e-19)
(0.424037 -0.0109742 8.08229e-19)
(0.42427 -0.0122022 8.84502e-19)
(0.424477 -0.0135355 -9.08405e-19)
(0.424658 -0.0149859 5.80746e-20)
(0.424811 -0.0165695 8.41263e-19)
(0.424932 -0.0183051 9.898e-19)
(0.425017 -0.0202145 9.57215e-19)
(0.425057 -0.0223242 1.31084e-19)
(0.425046 -0.0246678 -1.08905e-18)
(0.424973 -0.0272882 1.39974e-19)
(0.424822 -0.0302399 -2.9016e-19)
(0.424574 -0.0335928 -1.06231e-18)
(0.424204 -0.037438 -1.26113e-18)
(0.423673 -0.0418957 0)
(0.422929 -0.0471267 -1.69813e-19)
(0.421896 -0.0533509 2.90593e-20)
(0.420462 -0.0608739 1.85403e-19)
(0.418446 -0.0701356 1.38321e-18)
(0.415601 -0.0817716 3.06524e-19)
(0.411419 -0.0967657 -4.5041e-20)
(0.405311 -0.116716 1.88573e-18)
(0.395671 -0.143537 -1.18743e-19)
(0.380229 -0.185391 1.88398e-18)
(0.354171 -0.234698 2.09514e-18)
(0.306883 -0.367871 -1.41213e-18)
(0.422041 -0.00714771 -7.75054e-19)
(0.422258 -0.00791444 -7.80402e-19)
(0.422418 -0.00880397 -8.24533e-19)
(0.422618 -0.00977793 3.10872e-20)
(0.422828 -0.0108288 -1.68303e-18)
(0.423011 -0.0119657 -8.74016e-19)
(0.423163 -0.0132005 -1.91353e-18)
(0.423288 -0.0145433 1.08311e-19)
(0.423384 -0.0160049 -5.95326e-20)
(0.423447 -0.0175998 -1.96091e-18)
(0.423469 -0.0193463 9.77939e-21)
(0.423443 -0.0212665 -9.72668e-19)
(0.42336 -0.0233879 1.01666e-18)
(0.423208 -0.0257448 -1.32407e-20)
(0.422974 -0.0283803 1.44478e-19)
(0.422638 -0.0313489 -1.49919e-19)
(0.422174 -0.03472 1.23802e-18)
(0.421548 -0.0385837 1.28853e-18)
(0.420711 -0.0430584 1.69594e-19)
(0.419597 -0.0483021 1.07724e-18)