/*--------------------------------*- C++ -*----------------------------------*\
  =========                 |
  \\      /  F ield         | OpenFOAM: The Open Source CFD Toolbox
   \\    /   O peration     | Website:  https://openfoam.org
    \\  /    A nd           | Version:  11
     \\/     M anipulation  |
\*---------------------------------------------------------------------------*/
FoamFile
{
    format      ascii;
    class       surfaceScalarField;
    location    "6.6";
    object      phi;
}
// * * * * * * * * * * * * * * * * * * * * * * * * * * * * * * * * * * * * * //

dimensions      [0 3 -1 0 0 0 0];

internalField   nonuniform List<scalar> 
24840
(
1.92421e-05
6.07354e-09
1.92365e-05
5.55747e-09
1.92338e-05
2.72297e-09
1.9234e-05
-2.54355e-10
1.92372e-05
-3.20931e-09
1.92436e-05
-6.36377e-09
1.92532e-05
-9.61765e-09
1.92663e-05
-1.30445e-08
1.9283e-05
-1.67227e-08
1.93038e-05
-2.07657e-08
1.9329e-05
-2.52736e-08
1.93594e-05
-3.03669e-08
1.93956e-05
-3.61959e-08
1.94385e-05
-4.29408e-08
1.94893e-05
-5.08123e-08
1.95494e-05
-6.00526e-08
1.96203e-05
-7.09342e-08
1.97041e-05
-8.37603e-08
1.9803e-05
-9.88658e-08
1.99196e-05
-1.16615e-07
2.0057e-05
-1.37394e-07
2.02186e-05
-1.61602e-07
2.04082e-05
-1.89601e-07
2.06299e-05
-2.21776e-07
2.08885e-05
-2.58552e-07
2.11884e-05
-2.99873e-07
2.1535e-05
-3.46636e-07
2.19282e-05
-3.93231e-07
2.23897e-05
-4.61451e-07
-4.3767e-07
2.28274e-05
1.92529e-05
1.28436e-09
1.92596e-05
-1.1493e-09
1.92686e-05
-6.28106e-09
1.92806e-05
-1.22703e-08
1.92959e-05
-1.84558e-08
1.93145e-05
-2.49623e-08
1.93367e-05
-3.18459e-08
1.93628e-05
-3.91206e-08
1.93928e-05
-4.67627e-08
1.94269e-05
-5.47831e-08
1.94649e-05
-6.33373e-08
1.95073e-05
-7.2776e-08
1.95547e-05
-8.35576e-08
1.96079e-05
-9.61389e-08
1.9668e-05
-1.10948e-07
1.97364e-05
-1.28417e-07
1.98145e-05
-1.49028e-07
1.99041e-05
-1.7334e-07
2.00072e-05
-2.0199e-07
2.01262e-05
-2.35675e-07
2.0264e-05
-2.75154e-07
2.04237e-05
-3.21244e-07
2.06088e-05
-3.74767e-07
2.08236e-05
-4.36524e-07
2.10723e-05
-5.07293e-07
2.13599e-05
-5.87502e-07
2.16916e-05
-6.78331e-07
2.20726e-05
-7.74233e-07
2.25094e-05
-8.98258e-07
-9.25618e-07
2.29974e-05
1.92512e-05
-1.81164e-09
1.92573e-05
-7.17089e-09
1.92659e-05
-1.48937e-08
1.92774e-05
-2.38174e-08
1.92922e-05
-3.32019e-08
1.93102e-05
-4.29941e-08
1.93316e-05
-5.32682e-08
1.93565e-05
-6.40352e-08
1.93851e-05
-7.53066e-08
1.94175e-05
-8.71819e-08
1.94541e-05
-9.99236e-08
1.94953e-05
-1.13981e-07
1.95416e-05
-1.29929e-07
1.95939e-05
-1.48386e-07
1.96529e-05
-1.69983e-07
1.97199e-05
-1.95389e-07
1.97962e-05
-2.25343e-07
1.98835e-05
-2.6069e-07
1.99839e-05
-3.02389e-07
2.00998e-05
-3.51501e-07
2.02338e-05
-4.09191e-07
2.03893e-05
-4.76725e-07
2.05699e-05
-5.55421e-07
2.078e-05
-6.46578e-07
2.10242e-05
-7.51465e-07
2.13076e-05
-8.70885e-07
2.16358e-05
-1.00654e-06
2.20139e-05
-1.15241e-06
2.24487e-05
-1.33298e-06
-1.42393e-06
2.2947e-05
1.92503e-05
-3.97979e-09
1.92557e-05
-1.25666e-08
1.92639e-05
-2.30481e-08
1.92749e-05
-3.48479e-08
1.9289e-05
-4.73666e-08
1.93065e-05
-6.04092e-08
1.93272e-05
-7.39772e-08
1.93512e-05
-8.80866e-08
1.93787e-05
-1.02809e-07
1.94099e-05
-1.18353e-07
1.94451e-05
-1.35102e-07
1.94847e-05
-1.53608e-07
1.95293e-05
-1.74545e-07
1.95796e-05
-1.98669e-07
1.96364e-05
-2.26795e-07
1.97008e-05
-2.59814e-07
1.97742e-05
-2.98723e-07
1.98582e-05
-3.44651e-07
1.99547e-05
-3.98881e-07
2.0066e-05
-4.62845e-07
2.0195e-05
-5.38126e-07
2.03447e-05
-6.26444e-07
2.05189e-05
-7.29617e-07
2.07218e-05
-8.49502e-07
2.09583e-05
-9.8797e-07
2.12338e-05
-1.1464e-06
2.15543e-05
-1.32705e-06
2.19265e-05
-1.52456e-06
2.23561e-05
-1.76265e-06
-1.92468e-06
2.28569e-05
1.92498e-05
-5.62666e-09
1.92546e-05
-1.734e-08
1.92621e-05
-3.06333e-08
1.92726e-05
-4.52608e-08
1.9286e-05
-6.07777e-08
1.93025e-05
-7.69228e-08
1.93221e-05
-9.3639e-08
1.9345e-05
-1.1096e-07
1.93712e-05
-1.29011e-07
1.94009e-05
-1.48073e-07
1.94345e-05
-1.6862e-07
1.94721e-05
-1.91307e-07
1.95145e-05
-2.16929e-07
1.95623e-05
-2.46388e-07
1.96161e-05
-2.80676e-07
1.96772e-05
-3.20894e-07
1.97468e-05
-3.68278e-07
1.98264e-05
-4.24233e-07
1.99178e-05
-4.9035e-07
2.00234e-05
-5.6842e-07
2.01457e-05
-6.60435e-07
2.02878e-05
-7.68583e-07
2.04535e-05
-8.95228e-07
2.06468e-05
-1.04284e-06
2.08728e-05
-1.21398e-06
2.11372e-05
-1.41081e-06
2.14465e-05
-1.6363e-06
2.18084e-05
-1.88652e-06
2.22295e-05
-2.18368e-06
-2.42157e-06
2.27263e-05
1.92495e-05
-7.02058e-09
1.92538e-05
-2.1601e-08
1.92608e-05
-3.76325e-08
1.92705e-05
-5.49874e-08
1.92831e-05
-7.33389e-08
1.92986e-05
-9.24138e-08
1.9317e-05
-1.12108e-07
1.93385e-05
-1.32454e-07
1.93631e-05
-1.53621e-07
1.9391e-05
-1.75961e-07
1.94224e-05
-2.00036e-07
1.94577e-05
-2.26604e-07
1.94974e-05
-2.56578e-07
1.9542e-05
-2.90996e-07
1.95923e-05
-3.31016e-07
1.96494e-05
-3.77927e-07
1.97143e-05
-4.33185e-07
1.97885e-05
-4.98449e-07
1.98738e-05
-5.75608e-07
1.99721e-05
-6.66806e-07
2.00861e-05
-7.74444e-07
2.02188e-05
-9.01191e-07
2.03735e-05
-1.04997e-06
2.05546e-05
-1.22392e-06
2.0767e-05
-1.4264e-06
2.10167e-05
-1.66055e-06
2.13108e-05
-1.93033e-06
2.1658e-05
-2.23377e-06
2.20659e-05
-2.59159e-06
-2.91075e-06
2.25551e-05
1.92494e-05
-8.25728e-09
1.92532e-05
-2.54071e-08
1.92596e-05
-4.40062e-08
1.92685e-05
-6.39332e-08
1.92801e-05
-8.49231e-08
1.92944e-05
-1.06709e-07
1.93114e-05
-1.29159e-07
1.93313e-05
-1.52304e-07
1.9354e-05
-1.76349e-07
1.93798e-05
-2.01708e-07
1.94087e-05
-2.29018e-07
1.94413e-05
-2.59129e-07
1.94777e-05
-2.93065e-07
1.95187e-05
-3.31995e-07
1.9565e-05
-3.77227e-07
1.96173e-05
-4.30223e-07
1.96767e-05
-4.9264e-07
1.97446e-05
-5.66369e-07
1.98226e-05
-6.53579e-07
1.99125e-05
-7.56744e-07
2.00168e-05
-8.78659e-07
2.0138e-05
-1.02246e-06
2.02797e-05
-1.19166e-06
2.04459e-05
-1.3901e-06
2.06415e-05
-1.62203e-06
2.08727e-05
-1.89176e-06
2.11469e-05
-2.20449e-06
2.14739e-05
-2.56081e-06
2.18626e-05
-2.98024e-06
-3.38617e-06
2.2338e-05
1.92492e-05
-9.35811e-09
1.92526e-05
-2.87899e-08
1.92583e-05
-4.97302e-08
1.92664e-05
-7.20245e-08
1.92769e-05
-9.54274e-08
1.92899e-05
-1.1968e-07
1.93054e-05
-1.44635e-07
1.93234e-05
-1.70322e-07
1.9344e-05
-1.96971e-07
1.93674e-05
-2.25045e-07
1.93936e-05
-2.55251e-07
1.9423e-05
-2.88523e-07
1.94559e-05
-3.25985e-07
1.94928e-05
-3.68925e-07
1.95344e-05
-4.18786e-07
1.95814e-05
-4.77181e-07
1.96347e-05
-5.45939e-07
1.96954e-05
-6.2716e-07
1.97651e-05
-7.23263e-07
1.98454e-05
-8.37025e-07
1.99384e-05
-9.71613e-07
2.00465e-05
-1.13062e-06
2.0173e-05
-1.31811e-06
2.03216e-05
-1.53869e-06
2.04971e-05
-1.79753e-06
2.07055e-05
-2.10026e-06
2.09546e-05
-2.45359e-06
2.12551e-05
-2.86122e-06
2.16167e-05
-3.34187e-06
-3.83888e-06
2.20694e-05
1.92491e-05
-1.03258e-08
1.92521e-05
-3.17606e-08
1.92571e-05
-5.47829e-08
1.92643e-05
-7.91989e-08
1.92736e-05
-1.04759e-07
1.92852e-05
-1.31206e-07
1.92989e-05
-1.58383e-07
1.93149e-05
-1.86318e-07
1.93332e-05
-2.15261e-07
1.93539e-05
-2.45717e-07
1.93771e-05
-2.78451e-07
1.9403e-05
-3.14468e-07
1.9432e-05
-3.54982e-07
1.94645e-05
-4.01382e-07
1.95009e-05
-4.55226e-07
1.9542e-05
-5.18255e-07
1.95885e-05
-5.92444e-07
1.96414e-05
-6.8007e-07
1.97019e-05
-7.83768e-07
1.97715e-05
-9.0658e-07
1.98518e-05
-1.052e-06
1.99453e-05
-1.22404e-06
2.00545e-05
-1.4273e-06
2.01829e-05
-1.66708e-06
2.03349e-05
-1.94955e-06
2.05163e-05
-2.2817e-06
2.07347e-05
-2.67198e-06
2.10011e-05
-3.12761e-06
2.13262e-05
-3.66698e-06
-4.25672e-06
2.17441e-05
1.9249e-05
-1.11587e-08
1.92515e-05
-3.43169e-08
1.92559e-05
-5.91408e-08
1.92621e-05
-8.54021e-08
1.92702e-05
-1.12837e-07
1.92801e-05
-1.4118e-07
1.9292e-05
-1.70271e-07
1.93058e-05
-2.00134e-07
1.93216e-05
-2.31037e-07
1.93394e-05
-2.63516e-07
1.93593e-05
-2.98381e-07
1.93816e-05
-3.36699e-07
1.94063e-05
-3.79755e-07
1.9434e-05
-4.29024e-07
1.94649e-05
-4.86156e-07
1.94997e-05
-5.52994e-07
1.95388e-05
-6.3163e-07
1.95833e-05
-7.24476e-07
1.96338e-05
-8.34344e-07
1.96917e-05
-9.64492e-07
1.97584e-05
-1.11869e-06
1.98357e-05
-1.30129e-06
1.99257e-05
-1.51737e-06
2.00315e-05
-1.77287e-06
2.01569e-05
-2.07488e-06
2.03069e-05
-2.43176e-06
2.04887e-05
-2.85377e-06
2.0713e-05
-3.35187e-06
2.09906e-05
-3.9446e-06
-4.62435e-06
2.13582e-05
1.92488e-05
-1.1854e-08
1.9251e-05
-3.64505e-08
1.92546e-05
-6.27811e-08
1.92598e-05
-9.05888e-08
1.92665e-05
-1.19591e-07
1.92749e-05
-1.49514e-07
1.92848e-05
-1.80189e-07
1.92963e-05
-2.11641e-07
1.93094e-05
-2.44146e-07
1.93242e-05
-2.78265e-07
1.93406e-05
-3.14844e-07
1.93589e-05
-3.54994e-07
1.93792e-05
-4.00056e-07
1.94018e-05
-4.51573e-07
1.94269e-05
-5.11261e-07
1.94549e-05
-5.81036e-07
1.94864e-05
-6.6307e-07
1.95218e-05
-7.59877e-07
1.95618e-05
-8.74389e-07
1.96073e-05
-1.01002e-06
1.96594e-05
-1.17075e-06
1.97193e-05
-1.36118e-06
1.97887e-05
-1.58675e-06
1.98697e-05
-1.85394e-06
1.99655e-05
-2.17062e-06
2.00801e-05
-2.54637e-06
2.02195e-05
-2.99317e-06
2.03933e-05
-3.52565e-06
2.06115e-05
-4.16282e-06
-4.92376e-06
2.09109e-05
1.92487e-05
-1.24088e-08
1.92504e-05
-3.81523e-08
1.92533e-05
-6.56839e-08
1.92574e-05
-9.47227e-08
1.92628e-05
-1.24968e-07
1.92694e-05
-1.56136e-07
1.92773e-05
-1.88049e-07
1.92864e-05
-2.20732e-07
1.92967e-05
-2.54467e-07
1.93083e-05
-2.89828e-07
1.93211e-05
-3.27687e-07
1.93353e-05
-3.69184e-07
1.93509e-05
-4.15702e-07
1.93682e-05
-4.68822e-07
1.93872e-05
-5.30308e-07
1.94083e-05
-6.02116e-07
1.94317e-05
-6.86465e-07
1.94578e-05
-7.8592e-07
1.94868e-05
-9.03483e-07
1.95195e-05
-1.04266e-06
1.95563e-05
-1.20752e-06
1.95979e-05
-1.40284e-06
1.96454e-05
-1.63427e-06
1.97002e-05
-1.90865e-06
1.97639e-05
-2.2344e-06
1.98396e-05
-2.62205e-06
1.99314e-05
-3.08498e-06
2.00468e-05
-3.64101e-06
2.01937e-05
-4.30975e-06
-5.13551e-06
2.04055e-05
1.92485e-05
-1.28207e-08
1.92498e-05
-3.94148e-08
1.9252e-05
-6.7834e-08
1.9255e-05
-9.77776e-08
1.9259e-05
-1.2893e-07
1.92638e-05
-1.60994e-07
1.92696e-05
-1.93789e-07
1.92762e-05
-2.27333e-07
1.92836e-05
-2.61912e-07
1.92919e-05
-2.98108e-07
1.9301e-05
-3.36803e-07
1.9311e-05
-3.79156e-07
1.93219e-05
-4.26566e-07
1.93337e-05
-4.80639e-07
1.93465e-05
-5.43153e-07
1.93605e-05
-6.16077e-07
1.93756e-05
-7.01637e-07
1.93921e-05
-8.02405e-07
1.941e-05
-9.21391e-07
1.94295e-05
-1.06211e-06
1.94506e-05
-1.22864e-06
1.94736e-05
-1.42578e-06
1.94985e-05
-1.65924e-06
1.95258e-05
-1.93597e-06
1.95561e-05
-2.26464e-06
1.95903e-05
-2.65629e-06
1.96305e-05
-3.12517e-06
1.96809e-05
-3.69137e-06
1.9746e-05
-4.37485e-06
-5.2409e-06
1.98514e-05
1.92484e-05
-1.30885e-08
1.92492e-05
-4.02337e-08
1.92506e-05
-6.92224e-08
1.92526e-05
-9.97377e-08
1.92551e-05
-1.31451e-07
1.92582e-05
-1.64057e-07
1.92617e-05
-1.97367e-07
1.92658e-05
-2.31397e-07
1.92703e-05
-2.6643e-07
1.92753e-05
-3.03049e-07
1.92806e-05
-3.42134e-07
1.92863e-05
-3.84847e-07
1.92923e-05
-4.32589e-07
1.92986e-05
-4.86963e-07
1.93052e-05
-5.49739e-07
1.9312e-05
-6.22866e-07
1.93189e-05
-7.0854e-07
1.93258e-05
-8.09294e-07
1.93325e-05
-9.28082e-07
1.93387e-05
-1.06834e-06
1.93441e-05
-1.23407e-06
1.93483e-05
-1.42993e-06
1.93506e-05
-1.66151e-06
1.93502e-05
-1.93559e-06
1.93463e-05
-2.26072e-06
1.93379e-05
-2.64789e-06
1.93242e-05
-3.11147e-06
1.93053e-05
-3.67249e-06
1.9281e-05
-4.35056e-06
-5.22488e-06
1.9265e-05
1.92483e-05
-1.32104e-08
1.92486e-05
-4.06098e-08
1.92493e-05
-6.9848e-08
1.92501e-05
-1.00599e-07
1.92512e-05
-1.32525e-07
1.92524e-05
-1.65313e-07
1.92539e-05
-1.9877e-07
1.92554e-05
-2.32908e-07
1.92569e-05
-2.68003e-07
1.92585e-05
-3.04631e-07
1.926e-05
-3.43664e-07
1.92614e-05
-3.86249e-07
1.92626e-05
-4.33772e-07
1.92635e-05
-4.8781e-07
1.92638e-05
-5.50098e-07
1.92635e-05
-6.22537e-07
1.92622e-05
-7.07258e-07
1.92596e-05
-8.06707e-07
1.92553e-05
-9.23723e-07
1.92485e-05
-1.06159e-06
1.92386e-05
-1.22411e-06
1.92243e-05
-1.41568e-06
1.92043e-05
-1.64153e-06
1.91768e-05
-1.90803e-06
1.91392e-05
-2.22316e-06
1.90886e-05
-2.59727e-06
1.90211e-05
-3.04391e-06
1.8932e-05
-3.58344e-06
1.88154e-05
-4.234e-06
-5.07933e-06
1.86699e-05
1.92481e-05
-1.31923e-08
1.9248e-05
-4.05444e-08
1.92479e-05
-6.97154e-08
1.92477e-05
-1.00368e-07
1.92473e-05
-1.32158e-07
1.92468e-05
-1.64769e-07
1.9246e-05
-1.98007e-07
1.9245e-05
-2.31877e-07
1.92436e-05
-2.66647e-07
1.92419e-05
-3.02879e-07
1.92396e-05
-3.41425e-07
1.92368e-05
-3.83407e-07
1.92332e-05
-4.30176e-07
1.92287e-05
-4.83264e-07
1.92229e-05
-5.44345e-07
1.92156e-05
-6.15245e-07
1.92063e-05
-6.97997e-07
1.91946e-05
-7.9492e-07
1.91795e-05
-9.08683e-07
1.91603e-05
-1.04235e-06
1.91356e-05
-1.1994e-06
1.91037e-05
-1.38385e-06
1.90626e-05
-1.60039e-06
1.90092e-05
-1.85468e-06
1.89398e-05
-2.15374e-06
1.88492e-05
-2.50664e-06
1.87304e-05
-2.92516e-06
1.85742e-05
-3.42725e-06
1.83685e-05
-4.02826e-06
-4.80601e-06
1.80952e-05
1.9248e-05
-1.30323e-08
1.92475e-05
-4.00503e-08
1.92466e-05
-6.88418e-08
1.92453e-05
-9.90654e-08
1.92435e-05
-1.30375e-07
1.92412e-05
-1.62456e-07
1.92383e-05
-1.95111e-07
1.92348e-05
-2.28344e-07
1.92305e-05
-2.62411e-07
1.92255e-05
-2.97851e-07
1.92196e-05
-3.35491e-07
1.92126e-05
-3.76413e-07
1.92043e-05
-4.2192e-07
1.91945e-05
-4.73475e-07
1.91829e-05
-5.32672e-07
1.91689e-05
-6.01239e-07
1.91519e-05
-6.81081e-07
1.91314e-05
-7.74354e-07
1.91062e-05
-8.83509e-07
1.90752e-05
-1.01131e-06
1.90366e-05
-1.16087e-06
1.89885e-05
-1.33567e-06
1.89278e-05
-1.53973e-06
1.88509e-05
-1.77774e-06
1.87525e-05
-2.05541e-06
1.86258e-05
-2.37996e-06
1.84613e-05
-2.76057e-06
1.82452e-05
-3.21119e-06
1.796e-05
-3.74303e-06
-4.41817e-06
1.75721e-05
1.92478e-05
-1.27377e-08
1.92469e-05
-3.91403e-08
1.92453e-05
-6.72503e-08
1.9243e-05
-9.67234e-08
1.92398e-05
-1.27216e-07
1.92358e-05
-1.58419e-07
1.92308e-05
-1.90141e-07
1.92249e-05
-2.22378e-07
1.92178e-05
-2.55374e-07
1.92096e-05
-2.89644e-07
1.92001e-05
-3.25977e-07
1.91891e-05
-3.65409e-07
1.91764e-05
-4.09173e-07
1.91615e-05
-4.58653e-07
1.91442e-05
-5.15344e-07
1.91238e-05
-5.80851e-07
1.90997e-05
-6.56934e-07
1.90709e-05
-7.45553e-07
1.90363e-05
-8.48901e-07
1.89944e-05
-9.69408e-07
1.89432e-05
-1.10973e-06
1.88803e-05
-1.27276e-06
1.88023e-05
-1.46169e-06
1.87046e-05
-1.6801e-06
1.85814e-05
-1.93213e-06
1.84241e-05
-2.22273e-06
1.82214e-05
-2.55787e-06
1.79565e-05
-2.94629e-06
1.76076e-05
-3.39411e-06
-3.94005e-06
1.71295e-05
1.92477e-05
-1.23148e-08
1.92464e-05
-3.78351e-08
1.92441e-05
-6.49744e-08
1.92408e-05
-9.3387e-08
1.92363e-05
-1.22737e-07
1.92306e-05
-1.52727e-07
1.92237e-05
-1.83174e-07
1.92153e-05
-2.14071e-07
1.92056e-05
-2.45646e-07
1.91944e-05
-2.78387e-07
1.91814e-05
-3.13038e-07
1.91666e-05
-3.50575e-07
1.91496e-05
-3.92155e-07
1.913e-05
-4.39064e-07
1.91073e-05
-4.92684e-07
1.9081e-05
-5.54487e-07
1.90501e-05
-6.26063e-07
1.90137e-05
-7.0916e-07
1.89705e-05
-8.05688e-07
1.89188e-05
-9.17708e-07
1.88564e-05
-1.04739e-06
1.87807e-05
-1.19698e-06
1.86878e-05
-1.36879e-06
1.85729e-05
-1.5652e-06
1.84294e-05
-1.78863e-06
1.82482e-05
-2.0416e-06
1.80169e-05
-2.32654e-06
1.7717e-05
-2.6464e-06
1.73247e-05
-3.00181e-06
-3.40416e-06
1.67888e-05
1.92476e-05
-1.17724e-08
1.92459e-05
-3.6162e-08
1.9243e-05
-6.2058e-08
1.92387e-05
-8.91142e-08
1.9233e-05
-1.17008e-07
1.92257e-05
-1.45464e-07
1.92169e-05
-1.74312e-07
1.92063e-05
-2.03543e-07
1.91941e-05
-2.33367e-07
1.91799e-05
-2.6424e-07
1.91637e-05
-2.96859e-07
1.91453e-05
-3.32131e-07
1.91243e-05
-3.71123e-07
1.91002e-05
-4.15017e-07
1.90726e-05
-4.65069e-07
1.90407e-05
-5.22607e-07
1.90037e-05
-5.89042e-07
1.89604e-05
-6.65895e-07
1.89095e-05
-7.54785e-07
1.88492e-05
-8.57389e-07
1.87772e-05
-9.75383e-07
1.86906e-05
-1.11036e-06
1.85856e-05
-1.26377e-06
1.84571e-05
-1.43676e-06
1.82986e-05
-1.63007e-06
1.81007e-05
-1.84379e-06
1.78511e-05
-2.07692e-06
1.75314e-05
-2.32667e-06
1.71181e-05
-2.58853e-06
-2.84677e-06
1.65607e-05
1.92475e-05
-1.11217e-08
1.92455e-05
-3.41556e-08
1.9242e-05
-5.85563e-08
1.92368e-05
-8.39757e-08
1.92299e-05
-1.10114e-07
1.92212e-05
-1.36731e-07
1.92106e-05
-1.63674e-07
1.9198e-05
-1.90932e-07
1.91833e-05
-2.18697e-07
1.91664e-05
-2.4739e-07
1.91472e-05
-2.77656e-07
1.91254e-05
-3.10326e-07
1.91007e-05
-3.46372e-07
1.90725e-05
-3.86861e-07
1.90404e-05
-4.32918e-07
1.90035e-05
-4.85717e-07
1.89609e-05
-5.4649e-07
1.89116e-05
-6.16527e-07
1.88539e-05
-6.97154e-07
1.87862e-05
-7.89679e-07
1.87061e-05
-8.953e-07
1.86108e-05
-1.015e-06
1.84964e-05
-1.14938e-06
1.83581e-05
-1.29851e-06
1.81897e-05
-1.46158e-06
1.79824e-05
-1.63649e-06
1.77247e-05
-1.81922e-06
1.74e-05
-2.00198e-06
1.69875e-05
-2.17603e-06
-2.30257e-06
1.64433e-05
1.92474e-05
-1.03773e-08
1.92451e-05
-3.18611e-08
1.92411e-05
-5.45376e-08
1.92352e-05
-7.8055e-08
1.92272e-05
-1.02154e-07
1.92171e-05
-1.26644e-07
1.92048e-05
-1.51398e-07
1.91903e-05
-1.764e-07
1.91734e-05
-2.01822e-07
1.91541e-05
-2.28049e-07
1.91321e-05
-2.5567e-07
1.91072e-05
-2.85438e-07
1.90791e-05
-3.18222e-07
1.90472e-05
-3.54969e-07
1.90109e-05
-3.96671e-07
1.89696e-05
-4.44347e-07
1.89221e-05
-4.99048e-07
1.88674e-05
-5.61839e-07
1.8804e-05
-6.33771e-07
1.87302e-05
-7.15803e-07
1.86436e-05
-8.08703e-07
1.85415e-05
-9.12902e-07
1.84204e-05
-1.0283e-06
1.82759e-05
-1.15402e-06
1.81023e-05
-1.28797e-06
1.78921e-05
-1.42632e-06
1.76356e-05
-1.56266e-06
1.7319e-05
-1.68545e-06
1.6926e-05
-1.78302e-06
-1.79998e-06
1.64234e-05
1.92473e-05
-9.55755e-09
1.92448e-05
-2.93376e-08
1.92403e-05
-5.00861e-08
1.92337e-05
-7.14479e-08
1.92248e-05
-9.3236e-08
1.92135e-05
-1.15334e-07
1.91997e-05
-1.37637e-07
1.91835e-05
-1.60123e-07
1.91646e-05
-1.82943e-07
1.9143e-05
-2.06449e-07
1.91185e-05
-2.31168e-07
1.90908e-05
-2.57769e-07
1.90596e-05
-2.87017e-07
1.90244e-05
-3.19739e-07
1.89845e-05
-3.56791e-07
1.89392e-05
-3.99042e-07
1.88875e-05
-4.47363e-07
1.88283e-05
-5.02611e-07
1.87601e-05
-5.65583e-07
1.86812e-05
-6.36934e-07
1.85896e-05
-7.17061e-07
1.84826e-05
-8.05946e-07
1.83573e-05
-9.02929e-07
1.82096e-05
-1.00641e-06
1.80351e-05
-1.11339e-06
1.78276e-05
-1.21881e-06
1.75796e-05
-1.31474e-06
1.72815e-05
-1.38734e-06
1.6922e-05
-1.42348e-06
-1.35901e-06
1.6481e-05
1.92473e-05
-8.68903e-09
1.92446e-05
-2.66661e-08
1.92398e-05
-4.53033e-08
1.92326e-05
-6.42604e-08
1.92229e-05
-8.34829e-08
1.92105e-05
-1.02945e-07
1.91954e-05
-1.22557e-07
1.91776e-05
-1.42288e-07
1.91569e-05
-1.62275e-07
1.91333e-05
-1.82833e-07
1.91065e-05
-2.04425e-07
1.90764e-05
-2.27632e-07
1.90425e-05
-2.53114e-07
1.90043e-05
-2.81579e-07
1.89613e-05
-3.13747e-07
1.89126e-05
-3.50341e-07
1.88573e-05
-3.92068e-07
1.87943e-05
-4.39592e-07
1.87222e-05
-4.93488e-07
1.86394e-05
-5.54155e-07
1.8544e-05
-6.21696e-07
1.84339e-05
-6.95756e-07
1.83062e-05
-7.7529e-07
1.8158e-05
-8.58245e-07
1.79857e-05
-9.41089e-07
1.77851e-05
-1.01814e-06
1.75511e-05
-1.0808e-06
1.72783e-05
-1.1145e-06
1.69608e-05
-1.10597e-06
-9.9007e-07
1.65918e-05
1.92473e-05
-7.81638e-09
1.92446e-05
-2.3966e-08
1.92396e-05
-4.03052e-08
1.92319e-05
-5.65966e-08
1.92214e-05
-7.30193e-08
1.92081e-05
-8.96366e-08
1.91919e-05
-1.06347e-07
1.91727e-05
-1.23111e-07
1.91505e-05
-1.40059e-07
1.91252e-05
-1.5747e-07
1.90965e-05
-1.7574e-07
1.90642e-05
-1.95359e-07
1.9028e-05
-2.16883e-07
1.89873e-05
-2.40901e-07
1.89416e-05
-2.68005e-07
1.889e-05
-2.98778e-07
1.88317e-05
-3.33772e-07
1.87656e-05
-3.73485e-07
1.86904e-05
-4.18304e-07
1.86047e-05
-4.68423e-07
1.85067e-05
-5.23734e-07
1.83946e-05
-5.83669e-07
1.82663e-05
-6.46976e-07
1.81195e-05
-7.11413e-07
1.79517e-05
-7.73308e-07
1.77605e-05
-8.26937e-07
1.75436e-05
-8.63871e-07
1.72992e-05
-8.70186e-07
1.70269e-05
-8.33621e-07
-6.94546e-07
1.67314e-05
1.92473e-05
-7.02139e-09
1.92448e-05
-2.14311e-08
1.92397e-05
-3.5228e-08
1.92317e-05
-4.85619e-08
1.92206e-05
-6.19653e-08
1.92065e-05
-7.55422e-08
1.91894e-05
-8.91593e-08
1.9169e-05
-1.02779e-07
1.91455e-05
-1.16524e-07
1.91186e-05
-1.30627e-07
1.90883e-05
-1.45416e-07
1.90543e-05
-1.61291e-07
1.90161e-05
-1.78705e-07
1.89733e-05
-1.9813e-07
1.89253e-05
-2.20034e-07
1.88714e-05
-2.4487e-07
1.88107e-05
-2.73054e-07
1.87422e-05
-3.04943e-07
1.86646e-05
-3.40766e-07
1.85768e-05
-3.80565e-07
1.84771e-05
-4.241e-07
1.83642e-05
-4.7071e-07
1.82363e-05
-5.19111e-07
1.8092e-05
-5.67121e-07
1.793e-05
-6.11287e-07
1.77494e-05
-6.46338e-07
1.75502e-05
-6.64711e-07
1.73343e-05
-6.54285e-07
1.71055e-05
-6.04735e-07
-4.66619e-07
1.68775e-05
1.92476e-05
-6.46403e-09
1.92455e-05
-1.93246e-08
1.92405e-05
-3.02189e-08
1.92322e-05
-4.03201e-08
1.92208e-05
-5.05285e-08
1.92061e-05
-6.08768e-08
1.91882e-05
-7.12105e-08
1.91669e-05
-8.152e-08
1.91423e-05
-9.19144e-08
1.91142e-05
-1.02575e-07
1.90826e-05
-1.1375e-07
1.9047e-05
-1.25754e-07
1.90073e-05
-1.38937e-07
1.89628e-05
-1.53661e-07
1.89131e-05
-1.70277e-07
1.88573e-05
-1.89114e-07
1.87947e-05
-2.10468e-07
1.87243e-05
-2.34582e-07
1.86451e-05
-2.61556e-07
1.85559e-05
-2.91314e-07
1.84554e-05
-3.23566e-07
1.83423e-05
-3.57667e-07
1.82156e-05
-3.9245e-07
1.80745e-05
-4.26005e-07
1.79186e-05
-4.55402e-07
1.77485e-05
-4.76218e-07
1.75661e-05
-4.82294e-07
1.73757e-05
-4.63893e-07
1.71847e-05
-4.13732e-07
-2.94506e-07
1.70126e-05
1.92483e-05
-6.67933e-09
1.92468e-05
-1.77815e-08
1.92418e-05
-2.52445e-08
1.92334e-05
-3.19182e-08
1.92217e-05
-3.8804e-08
1.92066e-05
-4.57845e-08
1.91881e-05
-5.27244e-08
1.91662e-05
-5.96302e-08
1.91409e-05
-6.65755e-08
1.9112e-05
-7.36849e-08
1.90794e-05
-8.1143e-08
1.90428e-05
-8.91845e-08
1.9002e-05
-9.8066e-08
1.89563e-05
-1.08038e-07
1.89054e-05
-1.19329e-07
1.88484e-05
-1.32149e-07
1.87846e-05
-1.4669e-07
1.87132e-05
-1.63128e-07
1.86331e-05
-1.81421e-07
1.85431e-05
-2.01399e-07
1.84424e-05
-2.22823e-07
1.83299e-05
-2.45155e-07
1.82049e-05
-2.67468e-07
1.80672e-05
-2.88272e-07
1.79171e-05
-3.05361e-07
1.77563e-05
-3.15418e-07
1.75881e-05
-3.14039e-07
1.7418e-05
-2.93806e-07
1.72567e-05
-2.52435e-07
-1.61789e-07
1.7124e-05
1.92511e-05
-9.61399e-09
1.92494e-05
-1.61335e-08
1.92439e-05
-1.97458e-08
1.92353e-05
-2.3284e-08
1.92232e-05
-2.67185e-08
1.92075e-05
-3.00628e-08
1.91881e-05
-3.33897e-08
1.91653e-05
-3.67389e-08
1.91388e-05
-4.01619e-08
1.91089e-05
-4.37467e-08
1.90754e-05
-4.75945e-08
1.9038e-05
-5.18032e-08
1.89964e-05
-5.64703e-08
1.895e-05
-6.16995e-08
1.88983e-05
-6.75971e-08
1.88404e-05
-7.42599e-08
1.87755e-05
-8.17458e-08
1.87024e-05
-9.00431e-08
1.86202e-05
-9.9209e-08
1.8528e-05
-1.09227e-07
1.8425e-05
-1.19866e-07
1.83107e-05
-1.30773e-07
1.81846e-05
-1.41383e-07
1.80471e-05
-1.50829e-07
1.78996e-05
-1.57828e-07
1.77447e-05
-1.60513e-07
1.75871e-05
-1.56409e-07
1.74346e-05
-1.4132e-07
1.7296e-05
-1.13815e-07
-4.07933e-08
1.7175e-05
1.92385e-05
1.92224e-05
1.92026e-05
1.91794e-05
1.91526e-05
1.91226e-05
1.90892e-05
1.90524e-05
1.90123e-05
1.89685e-05
1.89209e-05
1.88691e-05
1.88127e-05
1.8751e-05
1.86834e-05
1.86091e-05
1.85274e-05
1.84373e-05
1.83381e-05
1.82289e-05
1.8109e-05
1.79782e-05
1.78369e-05
1.7686e-05
1.75282e-05
1.73677e-05
1.72113e-05
1.707e-05
1.69562e-05
1.69154e-05
2.23843e-05
-1.06051e-05
1.10481e-05
2.19368e-05
-1.07405e-05
1.1188e-05
2.14609e-05
-1.08691e-05
1.1345e-05
2.09535e-05
-1.09867e-05
1.1494e-05
2.04211e-05
-1.11021e-05
1.16345e-05
1.98698e-05
-1.12194e-05
1.17707e-05
1.93037e-05
-1.13395e-05
1.19055e-05
1.87259e-05
-1.14635e-05
1.20413e-05
1.81383e-05
-1.15928e-05
1.21804e-05
1.75418e-05
-1.17281e-05
1.23246e-05
1.69364e-05
-1.18703e-05
1.24757e-05
1.63215e-05
-1.20196e-05
1.26345e-05
1.56965e-05
-1.2177e-05
1.2802e-05
1.50605e-05
-1.23436e-05
1.29796e-05
1.44126e-05
-1.25209e-05
1.31688e-05
1.37516e-05
-1.27107e-05
1.33717e-05
1.30761e-05
-1.2915e-05
1.35905e-05
1.23842e-05
-1.31363e-05
1.38282e-05
1.16732e-05
-1.33776e-05
1.40885e-05
1.094e-05
-1.36422e-05
1.43755e-05
1.01801e-05
-1.39345e-05
1.46944e-05
9.38778e-06
-1.42597e-05
1.5052e-05
8.55548e-06
-1.46238e-05
1.54561e-05
7.67285e-06
-1.50352e-05
1.59178e-05
6.72557e-06
-1.55014e-05
1.64487e-05
5.69325e-06
-1.60378e-05
1.70701e-05
4.55669e-06
-1.66473e-05
1.77839e-05
3.23315e-06
-1.73727e-05
1.86963e-05
1.81307e-06
-1.81108e-05
1.95308e-05
-1.93202e-05
2.11333e-05
2.25276e-05
-1.01353e-05
2.20221e-05
-1.02349e-05
2.14903e-05
-1.03374e-05
2.0943e-05
-1.04393e-05
2.03848e-05
-1.05439e-05
1.98184e-05
-1.06529e-05
1.92451e-05
-1.07662e-05
1.86653e-05
-1.08837e-05
1.80785e-05
-1.10059e-05
1.74837e-05
-1.11333e-05
1.68798e-05
-1.12664e-05
1.6266e-05
-1.14058e-05
1.56416e-05
-1.15525e-05
1.50058e-05
-1.17077e-05
1.43576e-05
-1.18727e-05
1.3696e-05
-1.2049e-05
1.30192e-05
-1.22382e-05
1.23253e-05
-1.24424e-05
1.16115e-05
-1.26638e-05
1.08745e-05
-1.29052e-05
1.01098e-05
-1.31698e-05
9.31174e-06
-1.34617e-05
8.47291e-06
-1.3785e-05
7.58329e-06
-1.41456e-05
6.6296e-06
-1.45477e-05
5.59432e-06
-1.50025e-05
4.45264e-06
-1.55056e-05
3.16689e-06
-1.6087e-05
1.74008e-06
-1.66839e-05
-1.75802e-05
2.24352e-05
-9.62352e-06
2.19087e-05
-9.70849e-06
2.13699e-05
-9.7985e-06
2.08239e-05
-9.89328e-06
2.0272e-05
-9.99209e-06
1.97134e-05
-1.00944e-05
1.91471e-05
-1.01999e-05
1.85725e-05
-1.0309e-05
1.79888e-05
-1.04222e-05
1.73955e-05
-1.05401e-05
1.67923e-05
-1.06632e-05
1.61789e-05
-1.07924e-05
1.55549e-05
-1.09285e-05
1.49194e-05
-1.10722e-05
1.42714e-05
-1.12248e-05
1.36096e-05
-1.13872e-05
1.29323e-05
-1.15609e-05
1.22371e-05
-1.17473e-05
1.15216e-05
-1.19482e-05
1.07821e-05
-1.21657e-05
1.00143e-05
-1.24021e-05
9.21275e-06
-1.26601e-05
8.37011e-06
-1.29423e-05
7.47694e-06
-1.32524e-05
6.52099e-06
-1.35918e-05
5.48611e-06
-1.39676e-05
4.34992e-06
-1.43694e-05
3.08744e-06
-1.48245e-05
1.6685e-06
-1.5265e-05
-1.59117e-05
2.23365e-05
-9.10309e-06
2.18073e-05
-9.17929e-06
2.1269e-05
-9.26022e-06
2.07233e-05
-9.34756e-06
2.01703e-05
-9.43916e-06
1.96094e-05
-9.53343e-06
1.904e-05
-9.6305e-06
1.8462e-05
-9.73104e-06
1.78754e-05
-9.83562e-06
1.728e-05
-9.94465e-06
1.66753e-05
-1.00586e-05
1.60609e-05
-1.0178e-05
1.5436e-05
-1.03035e-05
1.47995e-05
-1.04357e-05
1.41502e-05
-1.05755e-05
1.34866e-05
-1.07237e-05
1.2807e-05
-1.08813e-05
1.21092e-05
-1.10495e-05
1.13905e-05
-1.12295e-05
1.06474e-05
-1.14227e-05
9.87587e-06
-1.16305e-05
9.07038e-06
-1.18546e-05
8.22416e-06
-1.20961e-05
7.32846e-06
-1.23567e-05
6.37228e-06
-1.26356e-05
5.34112e-06
-1.29365e-05
4.21651e-06
-1.32448e-05
2.97789e-06
-1.35859e-05
1.5885e-06
-1.38756e-05
-1.43232e-05
2.21998e-05
-8.57654e-06
2.16658e-05
-8.64533e-06
2.11239e-05
-8.71825e-06
2.05747e-05
-8.79838e-06
2.00185e-05
-8.88294e-06
1.94548e-05
-8.9698e-06
1.88835e-05
-9.05915e-06
1.83042e-05
-9.15179e-06
1.77168e-05
-9.24816e-06
1.71206e-05
-9.34851e-06
1.65152e-05
-9.45316e-06
1.58997e-05
-9.56253e-06
1.52733e-05
-9.67711e-06
1.4635e-05
-9.79744e-06
1.39836e-05
-9.92411e-06
1.33177e-05
-1.00578e-05
1.26355e-05
-1.01991e-05
1.19348e-05
-1.03488e-05
1.12131e-05
-1.05077e-05
1.04669e-05
-1.06765e-05
9.69238e-06
-1.0856e-05
8.88435e-06
-1.10465e-05
8.03661e-06
-1.12484e-05
7.14127e-06
-1.14614e-05
6.18866e-06
-1.1683e-05
5.16619e-06
-1.1914e-05
4.05895e-06
-1.21376e-05
2.84851e-06
-1.23755e-05
1.50287e-06
-1.253e-05
-1.28203e-05
2.20236e-05
-8.04505e-06
2.14856e-05
-8.10726e-06
2.09403e-05
-8.17298e-06
2.03882e-05
-8.24632e-06
1.98294e-05
-8.32413e-06
1.92635e-05
-8.40386e-06
1.869e-05
-8.48567e-06
1.81086e-05
-8.57041e-06
1.75189e-05
-8.65848e-06
1.69204e-05
-8.75003e-06
1.63125e-05
-8.84526e-06
1.56945e-05
-8.94451e-06
1.50656e-05
-9.04814e-06
1.44246e-05
-9.15653e-06
1.37706e-05
-9.27004e-06
1.31019e-05
-9.38909e-06
1.24169e-05
-9.51406e-06
1.17134e-05
-9.64533e-06
1.09889e-05
-9.78322e-06
1.02403e-05
-9.92796e-06
9.46391e-06
-1.00795e-05
8.65504e-06
-1.02377e-05
7.80815e-06
-1.04015e-05
6.91633e-06
-1.05696e-05
5.97134e-06
-1.0738e-05
4.96258e-06
-1.09052e-05
3.87833e-06
-1.10533e-05
2.70267e-06
-1.11998e-05
1.41215e-06
-1.12394e-05
-1.14081e-05
2.18017e-05
-7.50879e-06
2.12595e-05
-7.56497e-06
2.07105e-05
-7.624e-06
2.0155e-05
-7.69082e-06
1.95929e-05
-7.76203e-06
1.90238e-05
-7.83478e-06
1.84473e-05
-7.90917e-06
1.7863e-05
-7.98612e-06
1.72705e-05
-8.06598e-06
1.66693e-05
-8.1488e-06
1.60587e-05
-8.23469e-06
1.54381e-05
-8.32386e-06
1.48065e-05
-8.41656e-06
1.4163e-05
-8.513e-06
1.35063e-05
-8.61338e-06
1.28351e-05
-8.71788e-06
1.21477e-05
-8.82663e-06
1.14421e-05
-8.93971e-06
1.07159e-05
-9.05705e-06
9.96632e-06
-9.1784e-06
9.19e-06
-9.30321e-06
8.38284e-06
-9.43053e-06
7.54002e-06
-9.55866e-06
6.65568e-06
-9.68522e-06
5.72306e-06
-9.8054e-06
4.73356e-06
-9.91573e-06
3.67844e-06
-9.9982e-06
2.54472e-06
-1.00661e-05
1.31819e-06
-1.00129e-05
-1.00899e-05
2.15284e-05
-6.96775e-06
2.09817e-05
-7.01835e-06
2.04289e-05
-7.07114e-06
1.98697e-05
-7.13166e-06
1.93041e-05
-7.19641e-06
1.87316e-05
-7.26233e-06
1.8152e-05
-7.32948e-06
1.75646e-05
-7.39878e-06
1.69692e-05
-7.47054e-06
1.63651e-05
-7.54472e-06
1.57517e-05
-7.62134e-06
1.51284e-05
-7.70053e-06
1.44942e-05
-7.78241e-06
1.38483e-05
-7.86706e-06
1.31895e-05
-7.95453e-06
1.25164e-05
-8.0448e-06
1.18275e-05
-8.13778e-06
1.11211e-05
-8.23326e-06
1.03949e-05
-8.33087e-06
9.64648e-06
-8.42998e-06
8.87287e-06
-8.52961e-06
8.07061e-06
-8.62827e-06
7.23566e-06
-8.7237e-06
6.36326e-06
-8.81282e-06
5.44813e-06
-8.89027e-06
4.48364e-06
-8.95124e-06
3.46388e-06
-8.97843e-06
2.37891e-06
-8.98111e-06
1.22305e-06
-8.85705e-06
-8.8669e-06
2.11982e-05
-6.42194e-06
2.06473e-05
-6.46737e-06
2.00905e-05
-6.51436e-06
1.95276e-05
-6.56881e-06
1.89585e-05
-6.62724e-06
1.83826e-05
-6.6865e-06
1.77997e-05
-6.74659e-06
1.72094e-05
-6.80841e-06
1.66111e-05
-6.87225e-06
1.60044e-05
-6.93798e-06
1.53886e-05
-7.00556e-06
1.47631e-05
-7.07502e-06
1.4127e-05
-7.14638e-06
1.34796e-05
-7.21962e-06
1.28197e-05
-7.29463e-06
1.21461e-05
-7.37124e-06
1.14575e-05
-7.44916e-06
1.07522e-05
-7.52798e-06
1.00284e-05
-7.60707e-06
9.28397e-06
-7.68551e-06
8.51635e-06
-7.76199e-06
7.72276e-06
-7.83468e-06
6.9e-06
-7.90094e-06
6.04441e-06
-7.95723e-06
5.1521e-06
-7.99796e-06
4.21839e-06
-8.01752e-06
3.23987e-06
-7.99991e-06
2.20953e-06
-7.95077e-06
1.12892e-06
-7.77644e-06
-7.73798e-06
2.08078e-05
-5.87157e-06
2.02527e-05
-5.91227e-06
1.96923e-05
-5.95392e-06
1.9126e-05
-6.00255e-06
1.85536e-05
-6.05484e-06
1.79748e-05
-6.10766e-06
1.73892e-05
-6.16095e-06
1.67963e-05
-6.21557e-06
1.61959e-05
-6.27178e-06
1.55873e-05
-6.32939e-06
1.497e-05
-6.38829e-06
1.43434e-05
-6.44843e-06
1.37068e-05
-6.50977e-06
1.30593e-05
-6.57216e-06
1.24001e-05
-6.63539e-06
1.1728e-05
-6.69916e-06
1.10419e-05
-6.76305e-06
1.03404e-05
-6.82646e-06
9.62192e-06
-6.88858e-06