/*--------------------------------*- C++ -*----------------------------------*\
  =========                 |
  \\      /  F ield         | OpenFOAM: The Open Source CFD Toolbox
   \\    /   O peration     | Website:  https://openfoam.org
    \\  /    A nd           | Version:  11
     \\/     M anipulation  |
\*---------------------------------------------------------------------------*/
FoamFile
{
    format      ascii;
    class       volVectorField;
    location    "6.6";
    object      U;
}
// * * * * * * * * * * * * * * * * * * * * * * * * * * * * * * * * * * * * * //

dimensions      [0 1 -1 0 0 0 0];

internalField   nonuniform List<vector> 
12600
(
(0.412292 4.75748e-05 0)
(0.412241 8.84723e-05 0)
(0.412183 7.451e-05 0)
(0.41215 5.75167e-05 0)
(0.412178 3.63193e-05 0)
(0.412278 1.26903e-05 0)
(0.41245 -1.06314e-05 0)
(0.412693 -3.42447e-05 0)
(0.413011 -5.93766e-05 0)
(0.413411 -8.89825e-05 0)
(0.413902 -0.000124509 0)
(0.414495 -0.000166801 0)
(0.415205 -0.000216206 0)
(0.416049 -0.000273241 0)
(0.417048 -0.000339147 0)
(0.418229 -0.000415961 0)
(0.419625 -0.00050625 0)
(0.421273 -0.000612746 0)
(0.423219 -0.000738212 0)
(0.425515 -0.000885617 0)
(0.428222 -0.0010582 0)
(0.431409 -0.00125944 0)
(0.435155 -0.00149269 0)
(0.439542 -0.00176144 0)
(0.444666 -0.00207095 0)
(0.450627 -0.0024174 0)
(0.45753 -0.00281329 0)
(0.465447 -0.00317522 0)
(0.47451 -0.00383559 0)
(0.48591 -0.00317702 0)
(0.412482 7.51774e-05 0)
(0.412608 5.87043e-05 0)
(0.41279 3.55471e-06 0)
(0.413019 -6.95113e-05 0)
(0.413306 -0.000145316 0)
(0.413665 -0.000222717 0)
(0.414102 -0.000303355 0)
(0.414619 -0.000388751 0)
(0.415221 -0.000479904 0)
(0.415908 -0.00057755 0)
(0.41668 -0.000683539 0)
(0.417541 -0.000801462 0)
(0.418499 -0.000936111 0)
(0.419572 -0.00109268 0)
(0.420782 -0.00127643 0)
(0.422152 -0.00149283 0)
(0.423715 -0.00174792 0)
(0.425503 -0.00204864 0)
(0.427558 -0.00240293 0)
(0.429927 -0.00281944 0)
(0.432666 -0.00330739 0)
(0.435837 -0.00387624 0)
(0.439515 -0.00453503 0)
(0.44378 -0.00529255 0)
(0.448725 -0.00615736 0)
(0.454447 -0.00713256 0)
(0.461061 -0.00823618 0)
(0.468657 -0.00937401 0)
(0.477424 -0.0109392 0)
(0.487247 -0.010837 0)
(0.412482 -1.35766e-05 0)
(0.412568 -8.16607e-05 0)
(0.412729 -0.000187467 0)
(0.412951 -0.000308408 0)
(0.413232 -0.000433836 0)
(0.41358 -0.000564845 0)
(0.414003 -0.000703921 0)
(0.414499 -0.000851217 0)
(0.415072 -0.00100531 0)
(0.415724 -0.00116574 0)
(0.416462 -0.00133547 0)
(0.417293 -0.00152158 0)
(0.418229 -0.00173345 0)
(0.419283 -0.00198043 0)
(0.420471 -0.00227118 0)
(0.421815 -0.00261435 0)
(0.423344 -0.00301946 0)
(0.425089 -0.00349754 0)
(0.427092 -0.0040611 0)
(0.429397 -0.00472385 0)
(0.432061 -0.00550097 0)
(0.435148 -0.00640918 0)
(0.438732 -0.00746574 0)
(0.442898 -0.00868739 0)
(0.447742 -0.0100905 0)
(0.453373 -0.0116855 0)
(0.459888 -0.0134951 0)
(0.467471 -0.0154271 0)
(0.476032 -0.0178565 0)
(0.48651 -0.0188107 0)
(0.412476 -4.74215e-05 0)
(0.412545 -0.000158824 0)
(0.41269 -0.000301927 0)
(0.4129 -0.000465041 0)
(0.413171 -0.000638838 0)
(0.413508 -0.000820611 0)
(0.413916 -0.0010101 0)
(0.414396 -0.00120735 0)
(0.414948 -0.0014136 0)
(0.415576 -0.00163213 0)
(0.416285 -0.0018685 0)
(0.417085 -0.00213041 0)
(0.417985 -0.00242728 0)
(0.418999 -0.00276966 0)
(0.420142 -0.00316901 0)
(0.421436 -0.00363788 0)
(0.422906 -0.00419027 0)
(0.424584 -0.00484215 0)
(0.426509 -0.00561165 0)
(0.428724 -0.00651905 0)
(0.431286 -0.00758653 0)
(0.434257 -0.00883791 0)
(0.43771 -0.0102981 0)
(0.441731 -0.0119925 0)
(0.446415 -0.0139458 0)
(0.45188 -0.0161745 0)
(0.458224 -0.0187095 0)
(0.465664 -0.0214556 0)
(0.47408 -0.0248031 0)
(0.484615 -0.0268083 0)
(0.412473 -7.59802e-05 0)
(0.41253 -0.000240752 0)
(0.412659 -0.000432037 0)
(0.412856 -0.00064419 0)
(0.413113 -0.000869743 0)
(0.413433 -0.00110487 0)
(0.41382 -0.00134892 0)
(0.414276 -0.00160236 0)
(0.414801 -0.00186667 0)
(0.4154 -0.00214547 0)
(0.416076 -0.00244537 0)
(0.416838 -0.00277606 0)
(0.417693 -0.0031495 0)
(0.418656 -0.00357915 0)
(0.419741 -0.00407965 0)
(0.420967 -0.00466705 0)
(0.422361 -0.00535932 0)
(0.423952 -0.00617673 0)
(0.425776 -0.00714221 0)
(0.427877 -0.00828143 0)
(0.430306 -0.00962291 0)
(0.433125 -0.0111979 0)
(0.436406 -0.01304 0)
(0.440232 -0.0151836 0)
(0.444701 -0.017664 0)
(0.449935 -0.0205091 0)
(0.456034 -0.0237606 0)
(0.463249 -0.0273426 0)
(0.471432 -0.0316218 0)
(0.48193 -0.0348083 0)
(0.412471 -0.000100442 0)
(0.412521 -0.000312783 0)
(0.412638 -0.000548366 0)
(0.41282 -0.000804504 0)
(0.413061 -0.00107574 0)
(0.413361 -0.00135788 0)
(0.413724 -0.00164937 0)
(0.414152 -0.00195063 0)
(0.414646 -0.00226417 0)
(0.415208 -0.00259528 0)
(0.415843 -0.00295245 0)
(0.416556 -0.00334706 0)
(0.417357 -0.00379273 0)
(0.418257 -0.00430493 0)
(0.419271 -0.00490081 0)
(0.420417 -0.0055995 0)
(0.421718 -0.00642259 0)
(0.423201 -0.00739465 0)
(0.424902 -0.00854369 0)
(0.42686 -0.00990137 0)
(0.429124 -0.011503 0)
(0.431753 -0.0133875 0)
(0.434816 -0.0155971 0)
(0.438396 -0.0181767 0)
(0.442588 -0.0211732 0)
(0.447518 -0.024629 0)
(0.453293 -0.0285984 0)
(0.460194 -0.0330321 0)
(0.468044 -0.0382734 0)
(0.478417 -0.0427172 0)
(0.41247 -0.000121639 0)
(0.412514 -0.000376864 0)
(0.41262 -0.000654936 0)
(0.412786 -0.000953871 0)
(0.413008 -0.00126928 0)
(0.413285 -0.00159698 0)
(0.41362 -0.00193508 0)
(0.414016 -0.00228409 0)
(0.414472 -0.00264703 0)
(0.414991 -0.00303002 0)
(0.415576 -0.00344262 0)
(0.416234 -0.00389763 0)
(0.416972 -0.00441055 0)
(0.417799 -0.0049991 0)
(0.41873 -0.00568308 0)
(0.419782 -0.00648463 0)
(0.420974 -0.00742875 0)
(0.422333 -0.00854396 0)
(0.423889 -0.0098628 0)
(0.425679 -0.0114222 0)
(0.427749 -0.0132639 0)
(0.430153 -0.0154342 0)
(0.432955 -0.0179848 0)
(0.436236 -0.0209718 0)
(0.440089 -0.0244555 0)
(0.444643 -0.0284956 0)
(0.450003 -0.0331646 0)
(0.45648 -0.03845 0)
(0.463874 -0.0446738 0)
(0.473986 -0.0504653 0)
(0.412469 -0.000140386 0)
(0.412508 -0.0004342 0)
(0.412603 -0.000751633 0)
(0.412752 -0.00109035 0)
(0.412953 -0.00144637 0)
(0.413205 -0.00181562 0)
(0.413509 -0.00219585 0)
(0.413868 -0.00258745 0)
(0.414282 -0.00299391 0)
(0.414753 -0.00342226 0)
(0.415283 -0.00388333 0)
(0.415878 -0.00439147 0)
(0.416544 -0.00496392 0)
(0.41729 -0.0056204 0)
(0.418128 -0.00638298 0)
(0.419073 -0.00727632 0)
(0.420143 -0.00832837 0)
(0.42136 -0.00957117 0)
(0.422752 -0.0110416 0)
(0.424351 -0.0127817 0)
(0.426198 -0.0148395 0)
(0.428341 -0.0172689 0)
(0.430842 -0.0201308 0)
(0.433773 -0.0234927 0)
(0.437223 -0.0274301 0)
(0.441319 -0.0320224 0)
(0.446165 -0.0373645 0)
(0.452096 -0.0434893 0)
(0.458886 -0.050703 0)
(0.468546 -0.0579246 0)
(0.412468 -0.000156937 0)
(0.412503 -0.000484984 0)
(0.412586 -0.000837832 0)
(0.412717 -0.00121258 0)
(0.412896 -0.00160529 0)
(0.41312 -0.0020119 0)
(0.41339 -0.00243 0)
(0.413709 -0.00286002 0)
(0.414076 -0.00330584 0)
(0.414493 -0.00377526 0)
(0.414963 -0.0042801 0)
(0.415489 -0.0048359 0)
(0.416076 -0.00546139 0)
(0.416732 -0.00617804 0)
(0.417468 -0.00700992 0)
(0.418296 -0.00798397 0)
(0.419231 -0.00913073 0)
(0.420291 -0.0104853 0)
(0.421501 -0.0120884 0)
(0.422889 -0.0139865 0)
(0.424487 -0.0162333 0)
(0.426341 -0.0188896 0)
(0.4285 -0.0220252 0)
(0.431032 -0.0257194 0)
(0.434017 -0.0300631 0)
(0.437575 -0.0351578 0)
(0.441802 -0.0411245 0)
(0.447046 -0.0480497 0)
(0.453061 -0.056231 0)
(0.462016 -0.0649357 0)
(0.412467 -0.000171332 0)
(0.412497 -0.000529194 0)
(0.412568 -0.00091313 0)
(0.412682 -0.00131969 0)
(0.412836 -0.00174476 0)
(0.41303 -0.00218419 0)
(0.413264 -0.00263548 0)
(0.413539 -0.00309902 0)
(0.413857 -0.00357898 0)
(0.414216 -0.00408371 0)
(0.41462 -0.00462584 0)
(0.415071 -0.00522198 0)
(0.415574 -0.00589218 0)
(0.416134 -0.00665944 0)
(0.416759 -0.0075495 0)
(0.417461 -0.00859113 0)
(0.41825 -0.00981696 0)
(0.419142 -0.0112646 0)
(0.420156 -0.0129779 0)
(0.421313 -0.0150074 0)
(0.422642 -0.0174114 0)
(0.424177 -0.0202571 0)
(0.425961 -0.0236224 0)
(0.428049 -0.0275976 0)
(0.430509 -0.032289 0)
(0.433449 -0.0378202 0)
(0.436951 -0.0443412 0)
(0.441358 -0.0519976 0)
(0.446409 -0.0610856 0)
(0.454342 -0.0712701 0)
(0.412466 -0.000183546 0)
(0.412491 -0.000566717 0)
(0.41255 -0.000977145 0)
(0.412645 -0.0014109 0)
(0.412774 -0.00186358 0)
(0.412936 -0.0023309 0)
(0.413132 -0.00281024 0)
(0.413361 -0.00330198 0)
(0.413625 -0.00381049 0)
(0.413924 -0.00434457 0)
(0.414258 -0.00491752 0)
(0.41463 -0.00554681 0)
(0.415043 -0.00625351 0)
(0.415501 -0.00706183 0)
(0.41601 -0.00799878 0)
(0.416578 -0.00909455 0)
(0.417213 -0.0103833 0)
(0.417927 -0.0119047 0)
(0.418732 -0.0137048 0)
(0.419646 -0.0158373 0)
(0.420688 -0.0183643 0)
(0.421882 -0.0213579 0)
(0.423262 -0.0249026 0)
(0.424867 -0.0290984 0)
(0.42675 -0.0340654 0)
(0.428998 -0.0399484 0)
(0.431675 -0.0469262 0)
(0.435091 -0.0552049 0)
(0.438984 -0.0650856 0)
(0.445525 -0.0766617 0)
(0.412464 -0.000193535 0)
(0.412484 -0.000597407 0)
(0.412532 -0.00102952 0)
(0.412608 -0.00148553 0)
(0.412711 -0.00196076 0)
(0.412839 -0.00245073 0)
(0.412995 -0.0029527 0)
(0.413176 -0.00346705 0)
(0.413384 -0.00399827 0)
(0.413619 -0.00455547 0)
(0.41388 -0.00515241 0)
(0.41417 -0.00580716 0)
(0.414489 -0.00654159 0)
(0.414841 -0.00738075 0)
(0.415229 -0.00835257 0)
(0.415658 -0.00948814 0)
(0.416133 -0.0108227 0)
(0.416662 -0.012397 0)
(0.417251 -0.0142588 0)
(0.417911 -0.0164635 0)
(0.418653 -0.019076 0)
(0.419491 -0.0221717 0)
(0.420444 -0.0258398 0)
(0.421537 -0.0301875 0)
(0.422801 -0.035346 0)
(0.424296 -0.0414775 0)
(0.426059 -0.0487865 0)
(0.428341 -0.0575355 0)
(0.43089 -0.068034 0)
(0.435649 -0.0808024 0)
(0.412463 -0.00020126 0)
(0.412478 -0.000621127 0)
(0.412513 -0.00106996 0)
(0.41257 -0.00154309 0)
(0.412645 -0.00203555 0)
(0.41274 -0.0025427 0)
(0.412854 -0.00306166 0)
(0.412986 -0.00359278 0)
(0.413137 -0.00414062 0)
(0.413305 -0.00471445 0)
(0.413492 -0.00532834 0)
(0.413696 -0.00600074 0)
(0.413919 -0.00675397 0)
(0.414162 -0.0076136 0)
(0.414426 -0.00860804 0)
(0.414713 -0.00976881 0)
(0.415025 -0.0111316 0)
(0.415364 -0.0127376 0)
(0.415733 -0.0146351 0)
(0.416133 -0.0168806 0)
(0.416568 -0.0195396 0)
(0.417041 -0.0226891 0)
(0.417555 -0.0264206 0)
(0.418118 -0.030845 0)
(0.418736 -0.0361002 0)
(0.419434 -0.0423603 0)
(0.420218 -0.0498486 0)
(0.421249 -0.0588725 0)
(0.422299 -0.0697489 0)
(0.4249 -0.0833804 0)
(0.412462 -0.000206693 0)
(0.412472 -0.000637783 0)
(0.412495 -0.00109828 0)
(0.412531 -0.00158323 0)
(0.412579 -0.00208745 0)
(0.412639 -0.00260612 0)
(0.412711 -0.00313628 0)
(0.412793 -0.0036782 0)
(0.412885 -0.00423644 0)
(0.412986 -0.00482035 0)
(0.413097 -0.00544406 0)
(0.413215 -0.00612617 0)
(0.413341 -0.00688917 0)
(0.413473 -0.00775878 0)
(0.413612 -0.0087635 0)
(0.413756 -0.00993477 0)
(0.413903 -0.0113081 0)
(0.414052 -0.0129244 0)
(0.414198 -0.0148316 0)
(0.414339 -0.0170856 0)
(0.414466 -0.0197514 0)
(0.414573 -0.022905 0)
(0.414646 -0.0266374 0)
(0.414674 -0.0310591 0)
(0.414636 -0.0363093 0)
(0.414519 -0.0425658 0)
(0.414289 -0.0500601 0)
(0.413997 -0.0591261 0)
(0.413445 -0.0700807 0)
(0.413591 -0.084116 0)
(0.412461 -0.000209816 0)
(0.412465 -0.00064733 0)
(0.412476 -0.00111438 0)
(0.412492 -0.00160579 0)
(0.412513 -0.00211621 0)
(0.412538 -0.00264068 0)
(0.412567 -0.00317614 0)
(0.412598 -0.0037228 0)
(0.412631 -0.00428517 0)
(0.412666 -0.00487251 0)
(0.412699 -0.0054989 0)
(0.412731 -0.00618284 0)
(0.412759 -0.0069467 0)
(0.412782 -0.00781599 0)
(0.412795 -0.00881882 0)
(0.412797 -0.00998612 0)
(0.412781 -0.0113526 0)
(0.412741 -0.0129582 0)
(0.41267 -0.0148494 0)
(0.412554 -0.0170803 0)
(0.41238 -0.0197135 0)
(0.412127 -0.0228221 0)
(0.411769 -0.0264929 0)
(0.411271 -0.030832 0)
(0.41059 -0.0359728 0)
(0.409667 -0.0420878 0)
(0.40843 -0.0494027 0)
(0.406803 -0.0582538 0)
(0.404619 -0.0689436 0)
(0.402158 -0.0828169 0)
(0.41246 -0.000210654 0)
(0.412459 -0.000649808 0)
(0.412457 -0.0011183 0)
(0.412453 -0.00161078 0)
(0.412447 -0.0021218 0)
(0.412438 -0.00264631 0)
(0.412424 -0.00318117 0)
(0.412405 -0.00372655 0)
(0.412379 -0.0042868 0)
(0.412347 -0.00487103 0)
(0.412304 -0.00549306 0)
(0.41225 -0.00617111 0)
(0.412182 -0.00692712 0)
(0.412096 -0.00778602 0)
(0.411987 -0.00877518 0)
(0.411849 -0.0099245 0)
(0.411674 -0.0112674 0)
(0.411451 -0.012842 0)
(0.411167 -0.0146927 0)
(0.410805 -0.0168704 0)
(0.410341 -0.0194336 0)
(0.409744 -0.02245 0)
(0.408974 -0.0259995 0)
(0.407977 -0.0301788 0)
(0.406684 -0.0351091 0)
(0.404998 -0.0409472 0)
(0.402804 -0.0478978 0)
(0.399904 -0.0562721 0)
(0.396151 -0.0663385 0)
(0.391126 -0.079429 0)
(0.412459 -0.000209242 0)
(0.412453 -0.000645323 0)
(0.412439 -0.0011102 0)
(0.412416 -0.00159843 0)
(0.412383 -0.00210449 0)
(0.412339 -0.00262332 0)
(0.412283 -0.00315175 0)
(0.412215 -0.00368986 0)
(0.412132 -0.00424184 0)
(0.412033 -0.00481652 0)
(0.411916 -0.00542736 0)
(0.411778 -0.00609204 0)
(0.411616 -0.00683183 0)
(0.411424 -0.00767077 0)
(0.411196 -0.00863507 0)
(0.410923 -0.0097532 0)
(0.410594 -0.0110568 0)
(0.410196 -0.0125817 0)
(0.409711 -0.0143691 0)
(0.409115 -0.0164656 0)
(0.408378 -0.0189244 0)
(0.40746 -0.0218056 0)
(0.406309 -0.0251792 0)
(0.404854 -0.0291286 0)
(0.403004 -0.0337563 0)
(0.400626 -0.0391939 0)
(0.397571 -0.0456105 0)
(0.393533 -0.053265 0)
(0.388374 -0.0623696 0)
(0.381056 -0.074075 0)
(0.412458 -0.000205629 0)
(0.412447 -0.000634059 0)
(0.412421 -0.0010904 0)
(0.412379 -0.00156916 0)
(0.41232 -0.00206481 0)
(0.412243 -0.00257233 0)
(0.412147 -0.0030886 0)
(0.41203 -0.0036136 0)
(0.411891 -0.00415133 0)
(0.411728 -0.00471027 0)
(0.411539 -0.00530334 0)
(0.41132 -0.00594753 0)
(0.411067 -0.00666318 0)
(0.410773 -0.00747312 0)
(0.41043 -0.00840211 0)
(0.410029 -0.00947688 0)
(0.409555 -0.0107268 0)
(0.408992 -0.0121849 0)
(0.408319 -0.0138885 0)
(0.407506 -0.0158791 0)
(0.406519 -0.0182031 0)
(0.40531 -0.0209116 0)
(0.403816 -0.0240626 0)
(0.401956 -0.0277225 0)
(0.399621 -0.0319705 0)
(0.396652 -0.0369049 0)
(0.392871 -0.0426472 0)
(0.387898 -0.0493813 0)
(0.38159 -0.0572451 0)
(0.372459 -0.0670633 0)
(0.412457 -0.000199919 0)
(0.412441 -0.000616303 0)
(0.412404 -0.00105936 0)
(0.412344 -0.00152357 0)
(0.41226 -0.00200349 0)
(0.412151 -0.00249425 0)
(0.412016 -0.0029928 0)
(0.411853 -0.00349906 0)
(0.41166 -0.00401681 0)
(0.411435 -0.00455408 0)
(0.411177 -0.00512316 0)
(0.41088 -0.00574018 0)
(0.41054 -0.00642429 0)
(0.41015 -0.00719692 0)
(0.4097 -0.0080811 0)
(0.409178 -0.00910151 0)
(0.408568 -0.010285 0)
(0.407853 -0.0116613 0)
(0.407006 -0.0132632 0)
(0.405997 -0.0151268 0)
(0.404786 -0.0172908 0)
(0.403319 -0.0197963 0)
(0.40153 -0.0226874 0)
(0.399327 -0.0260119 0)
(0.396592 -0.0298222 0)
(0.393153 -0.0341785 0)
(0.388812 -0.0391476 0)
(0.383155 -0.0448235 0)
(0.376026 -0.0512594 0)
(0.365719 -0.0588596 0)
(0.412456 -0.000192236 0)
(0.412436 -0.00059243 0)
(0.412389 -0.00101769 0)
(0.412312 -0.0014625 0)
(0.412204 -0.00192157 0)
(0.412065 -0.0023903 0)
(0.411893 -0.0028658 0)
(0.411685 -0.00334795 0)
(0.411441 -0.00384026 0)
(0.411158 -0.00435027 0)
(0.410834 -0.00488957 0)
(0.410464 -0.0054732 0)
(0.410043 -0.006119 0)
(0.409562 -0.00684677 0)
(0.409011 -0.00767763 0)
(0.408377 -0.00863403 0)
(0.407643 -0.00974001 0)
(0.406788 -0.0110217 0)
(0.405786 -0.0125074 0)
(0.404603 -0.014227 0)
(0.403196 -0.0162113 0)
(0.40151 -0.018491 0)
(0.399475 -0.021096 0)
(0.396997 -0.0240544 0)
(0.393955 -0.0273912 0)
(0.390175 -0.031127 0)
(0.385456 -0.0352724 0)
(0.37939 -0.0398273 0)
(0.371808 -0.04476 0)
(0.361026 -0.0500256 0)
(0.412455 -0.000182743 0)
(0.412431 -0.000562933 0)
(0.412375 -0.000966174 0)
(0.412282 -0.00138695 0)
(0.412153 -0.00182028 0)
(0.411985 -0.00226197 0)
(0.411778 -0.00270938 0)
(0.411529 -0.00316234 0)
(0.411237 -0.00362408 0)
(0.4109 -0.00410162 0)
(0.410514 -0.00460572 0)
(0.410076 -0.00515031 0)
(0.409579 -0.00575174 0)
(0.409014 -0.006428 0)
(0.408371 -0.00719816 0)
(0.407635 -0.00808227 0)
(0.406788 -0.00910149 0)
(0.405809 -0.0102783 0)
(0.404669 -0.0116363 0)
(0.403335 -0.0131993 0)
(0.401763 -0.0149901 0)
(0.399897 -0.0170293 0)
(0.397667 -0.019333 0)
(0.394983 -0.0219107 0)
(0.391727 -0.0247611 0)
(0.387737 -0.0278675 0)
(0.382821 -0.0311882 0)
(0.376615 -0.0346362 0)
(0.368943 -0.0381045 0)
(0.358357 -0.0411376 0)
(0.412454 -0.000171649 0)
(0.412427 -0.000528441 0)
(0.412362 -0.000905786 0)
(0.412256 -0.00129817 0)
(0.412107 -0.00170108 0)
(0.411913 -0.00211099 0)
(0.411674 -0.00252558 0)
(0.411387 -0.00294467 0)
(0.411051 -0.00337113 0)
(0.410663 -0.00381143 0)
(0.410221 -0.00427543 0)
(0.40972 -0.00477582 0)
(0.409154 -0.00532738 0)
(0.408513 -0.00594624 0)
(0.407785 -0.00664933 0)
(0.406957 -0.00745423 0)
(0.40601 -0.00837918 0)
(0.404922 -0.00944303 0)
(0.403664 -0.0106647 0)
(0.402202 -0.0120624 0)
(0.400493 -0.0136515 0)
(0.398485 -0.0154432 0)
(0.39611 -0.0174413 0)
(0.393285 -0.0196387 0)
(0.389904 -0.0220113 0)
(0.385824 -0.0245106 0)
(0.380876 -0.0270514 0)
(0.374769 -0.0294756 0)
(0.367332 -0.0316194 0)
(0.357493 -0.0327045 0)
(0.412453 -0.000159229 0)
(0.412424 -0.00048976 0)
(0.412352 -0.000837717 0)
(0.412234 -0.0011976 0)
(0.412067 -0.0015657 0)
(0.411851 -0.00193935 0)
(0.411582 -0.00231667 0)
(0.411261 -0.00269743 0)
(0.410884 -0.00308427 0)
(0.410451 -0.00348307 0)
(0.409958 -0.00390276 0)
(0.4094 -0.00435466 0)
(0.408771 -0.00485189 0)
(0.408061 -0.00540863 0)
(0.407259 -0.00603965 0)
(0.406351 -0.00676008 0)
(0.405316 -0.00758528 0)
(0.404133 -0.00853059 0)
(0.402775 -0.00961072 0)
(0.401208 -0.0108385 0)
(0.399391 -0.0122229 0)
(0.397275 -0.0137672 0)
(0.3948 -0.0154648 0)
(0.391893 -0.0172952 0)
(0.388463 -0.0192169 0)
(0.384396 -0.0211572 0)
(0.379554 -0.0229997 0)
(0.373737 -0.024537 0)
(0.366785 -0.0255707 0)
(0.358083 -0.0251175 0)
(0.412453 -0.000145866 0)
(0.412422 -0.000447974 0)
(0.412345 -0.000763367 0)
(0.412217 -0.00108678 0)
(0.412036 -0.00141599 0)
(0.411799 -0.00174949 0)
(0.411505 -0.00208563 0)
(0.411152 -0.002424 0)
(0.41074 -0.00276696 0)
(0.410265 -0.0031199 0)
(0.409727 -0.00349081 0)
(0.409118 -0.00388968 0)
(0.408434 -0.00432797 0)
(0.407664 -0.00481796 0)
(0.406797 -0.00537226 0)
(0.405818 -0.00600358 0)
(0.404708 -0.0067245 0)
(0.403446 -0.00754716 0)
(0.402005 -0.00848244 0)
(0.400353 -0.00953864 0)
(0.398454 -0.0107196 0)
(0.396262 -0.012022 0)
(0.393727 -0.0134317 0)
(0.390786 -0.0149188 0)
(0.387369 -0.0164302 0)
(0.383394 -0.0178783 0)
(0.378758 -0.0191292 0)
(0.373359 -0.0199514 0)
(0.36706 -0.0201328 0)
(0.359701 -0.0186138 0)
(0.412453 -0.000132145 0)
(0.412421 -0.000404659 0)
(0.412343 -0.000684489 0)
(0.412208 -0.00096727 0)
(0.412014 -0.00125342 0)
(0.411759 -0.00154308 0)
(0.411443 -0.0018349 0)
(0.411064 -0.00212828 0)
(0.410621 -0.00242515 0)
(0.410111 -0.00273014 0)
(0.409533 -0.00305016 0)
(0.408881 -0.00339379 0)
(0.408148 -0.00377077 0)
(0.407327 -0.00419145 0)
(0.406404 -0.00466636 0)
(0.405365 -0.00520592 0)
(0.404192 -0.00582022 0)
(0.402865 -0.00651853 0)
(0.401357 -0.00730842 0)
(0.39964 -0.00819451 0)
(0.39768 -0.00917657 0)
(0.395439 -0.0102469 0)
(0.392874 -0.0113867 0)
(0.389937 -0.0125609 0)
(0.386577 -0.0137109 0)
(0.382745 -0.0147441 0)
(0.378378 -0.0155224 0)
(0.373463 -0.0158148 0)
(0.367894 -0.0154156 0)
(0.361908 -0.0133056 0)
(0.412453 -0.000118967 0)
(0.412424 -0.000362057 0)
(0.412347 -0.000603682 0)
(0.41221 -0.000841824 0)
(0.412005 -0.0010806 0)
(0.411735 -0.00132151 0)
(0.411399 -0.00156334 0)
(0.410997 -0.00180583 0)
(0.410528 -0.00205102 0)
(0.409988 -0.00230298 0)
(0.409376 -0.0025674 0)
(0.408687 -0.00285141 0)
(0.407915 -0.00316307 0)
(0.40705 -0.00351089 0)
(0.406081 -0.00390334 0)
(0.404993 -0.00434861 0)
(0.403769 -0.0048544 0)
(0.402389 -0.00542741 0)
(0.40083 -0.00607246 0)
(0.399064 -0.00679132 0)
(0.397063 -0.00758104 0)
(0.394793 -0.00843149 0)
(0.39222 -0.00932197 0)
(0.389312 -0.0102165 0)
(0.386036 -0.0110571 0)
(0.382373 -0.0117548 0)
(0.378298 -0.0121797 0)
(0.373872 -0.0121205 0)
(0.369026 -0.0113949 0)
(0.3643 -0.00911379 0)
(0.412455 -0.000108235 0)
(0.412431 -0.000321932 0)
(0.412362 -0.000522196 0)
(0.412225 -0.000714463 0)
(0.412015 -0.00090714 0)
(0.411733 -0.00110154 0)
(0.411383 -0.00129551 0)
(0.410963 -0.00148856 0)
(0.410472 -0.00168276 0)
(0.409907 -0.00188171 0)
(0.409268 -0.00209015 0)
(0.408549 -0.00231377 0)
(0.407744 -0.00255894 0)
(0.406844 -0.00283229 0)
(0.405837 -0.0031404 0)
(0.40471 -0.00348956 0)
(0.403446 -0.00388557 0)
(0.402027 -0.00433328 0)
(0.400429 -0.00483525 0)
(0.39863 -0.00539103 0)
(0.396603 -0.00599621 0)
(0.394322 -0.00664006 0)
(0.391759 -0.0073026 0)
(0.388895 -0.0079506 0)
(0.385715 -0.00853222 0)
(0.382224 -0.00896923 0)
(0.378431 -0.00915083 0)
(0.374451 -0.0089017 0)
(0.370254 -0.00807983 0)
(0.366563 -0.00598821 0)
(0.412461 -0.000106765 0)
(0.41245 -0.000285653 0)
(0.412393 -0.000428706 0)
(0.412257 -0.000560452 0)
(0.412039 -0.000695052 0)
(0.411748 -0.00083292 0)
(0.411388 -0.000971358 0)
(0.410956 -0.00110962 0)
(0.41045 -0.0012489 0)
(0.409869 -0.00139163 0)
(0.409211 -0.00154123 0)
(0.40847 -0.00170207 0)
(0.407642 -0.00187906 0)
(0.406718 -0.00207719 0)
(0.405686 -0.00230115 0)
(0.404533 -0.00255509 0)
(0.403243 -0.00284272 0)
(0.401799 -0.00316731 0)
(0.40018 -0.00352948 0)
(0.398363 -0.0039272 0)
(0.396326 -0.00435592 0)
(0.394046 -0.00480589 0)
(0.391506 -0.00526012 0)
(0.388694 -0.0056911 0)
(0.385609 -0.00605722 0)
(0.382276 -0.00629541 0)
(0.378728 -0.00631984 0)
(0.37511 -0.00599056 0)
(0.371438 -0.00522698 0)
(0.368478 -0.00353602 0)
(0.41248 -0.000135989 0)
(0.412505 -0.000304651 0)
(0.412448 -0.000402426 0)
(0.412304 -0.000482204 0)
(0.412076 -0.000562735 0)
(0.411774 -0.000644378 0)
(0.411398 -0.000725791 0)
(0.410946 -0.000807063 0)
(0.410418 -0.000888962 0)
(0.409813 -0.000973045 0)
(0.409133 -0.00106181 0)
(0.408374 -0.00115832 0)
(0.40753 -0.00126573 0)
(0.406591 -0.00138695 0)
(0.405543 -0.00152469 0)
(0.404372 -0.00168142 0)
(0.403061 -0.00185915 0)
(0.401589 -0.00205899 0)
(0.399928 -0.00228065 0)
(0.398064 -0.00252222 0)
(0.395978 -0.0027796 0)
(0.393653 -0.00304527 0)
(0.391079 -0.00330665 0)
(0.388255 -0.00354394 0)
(0.385196 -0.0037284 0)
(0.381945 -0.00381796 0)
(0.378575 -0.00375534 0)
(0.375211 -0.00344965 0)
(0.372066 -0.00283748 0)
(0.369112 -0.00152629 0)
(0.412262 -8.13048e-05 0)
(0.412078 -0.000170037 0)
(0.411736 -0.000214239 0)
(0.411267 -0.000247834 0)
(0.410719 -0.000279323 0)
(0.410106 -0.000308179 0)
(0.409427 -0.000334914 0)
(0.408676 -0.000361322 0)
(0.407853 -0.000389155 0)
(0.406954 -0.000419643 0)
(0.405977 -0.00045338 0)
(0.404913 -0.000490522 0)
(0.403755 -0.000531246 0)
(0.402492 -0.000576042 0)
(0.40111 -0.000625638 0)
(0.399594 -0.000680754 0)
(0.397926 -0.00074189 0)
(0.39609 -0.000809079 0)
(0.394067 -0.000882809 0)
(0.391837 -0.000963114 0)
(0.389386 -0.00104832 0)
(0.386702 -0.00113542 0)
(0.383785 -0.00121969 0)
(0.380649 -0.00129391 0)
(0.37733 -0.0013467 0)
(0.373899 -0.00136124 0)
(0.370471 -0.00131743 0)
(0.367231 -0.00116962 0)
(0.364434 -0.000983267 0)
(0.361959 -2.36356e-06 0)
(0.490258 -0.00678018 -9.41853e-20)
(0.494749 -0.0102742 -9.34745e-20)
(0.498609 -0.0144622 -1.33163e-18)
(0.501643 -0.0190026 -3.82007e-19)
(0.504291 -0.0237994 3.87461e-19)
(0.506737 -0.0288244 0)
(0.509018 -0.0340971 0)
(0.511188 -0.0396576 3.93081e-19)
(0.513324 -0.0455443 -3.99554e-19)
(0.515482 -0.0517898 -7.97951e-19)
(0.51769 -0.0584274 8.11647e-19)
(0.519955 -0.0654995 0)
(0.522279 -0.0730589 -8.14504e-19)
(0.524672 -0.081178 8.29319e-19)
(0.527142 -0.0899449 0)
(0.529701 -0.099468 1.65487e-18)
(0.532366 -0.109878 8.27799e-19)
(0.535151 -0.121335 8.15129e-19)
(0.53807 -0.13404 8.24928e-19)
(0.541132 -0.148244 8.03257e-19)
(0.54434 -0.164265 -8.08943e-19)
(0.547692 -0.182508 2.42353e-18)
(0.551152 -0.203505 0)
(0.554711 -0.227929 -1.49341e-18)
(0.558147 -0.256749 6.88104e-19)
(0.56151 -0.291114 -1.36394e-18)
(0.564047 -0.332446 -1.74331e-18)
(0.564585 -0.386581 0)
(0.56759 -0.436736 0)
(0.545916 -0.563055 2.14449e-20)
(0.494342 -0.0153568 -1.54411e-18)
(0.497179 -0.019117 0)
(0.499478 -0.0235382 0)
(0.501334 -0.0282213 -1.57881e-18)
(0.503074 -0.0330935 1.59303e-18)
(0.504836 -0.0381926 1.60739e-18)
(0.506621 -0.0435697 -4.02344e-19)
(0.508434 -0.0492584 4.09102e-19)
(0.510291 -0.0552804 1.24375e-18)
(0.512192 -0.0616604 2.08583e-18)
(0.514124 -0.0684355 -8.33634e-19)
(0.516071 -0.0756565 1.70902e-18)
(0.518028 -0.0833879 8.56473e-19)
(0.519999 -0.0917083 8.77652e-19)
(0.521988 -0.10071 8.71003e-19)
(0.524 -0.110502 1.75999e-18)
(0.526034 -0.121215 0)
(0.528084 -0.13301 -8.72517e-19)
(0.530138 -0.146087 -8.96649e-19)
(0.532172 -0.160693 0)
(0.534149 -0.177139 8.65462e-19)
(0.536015 -0.195816 8.90626e-19)
(0.537664 -0.217229 -1.75476e-18)
(0.538997 -0.242009 0)
(0.539658 -0.271054 7.74352e-19)
(0.539607 -0.305332 7.9514e-19)
(0.537589 -0.346489 -1.4734e-18)
(0.53329 -0.39768 5.30256e-19)
(0.528655 -0.449989 -5.488e-19)
(0.500064 -0.563725 8.02606e-20)
(0.492811 -0.0235943 1.57192e-18)
(0.49471 -0.0272596 0)
(0.496363 -0.0315991 -1.99554e-19)
(0.497974 -0.0362628 3.43945e-18)
(0.499635 -0.04117 -1.22097e-18)
(0.501337 -0.0463358 -2.46774e-18)
(0.50304 -0.0517856 2.0931e-18)
(0.50472 -0.0575378 -4.19354e-19)
(0.506373 -0.0636167 -1.26593e-18)
(0.507996 -0.0700609 -4.06905e-19)
(0.509585 -0.0769208 4.3616e-19)
(0.511139 -0.0842554 -2.61987e-18)
(0.512661 -0.0921306 1.77504e-18)
(0.514154 -0.100623 -2.68141e-18)
(0.515613 -0.10982 0)
(0.517026 -0.11983 -1.81262e-18)
(0.518374 -0.130783 0)
(0.51963 -0.142837 0)
(0.520757 -0.156189 1.84808e-18)
(0.521703 -0.171077 0)
(0.522393 -0.187802 0)
(0.522725 -0.206732 -1.84583e-18)
(0.52253 -0.228344 1.82861e-18)
(0.521624 -0.253217 0)
(0.519547 -0.282171 0)
(0.516149 -0.31604 -1.67377e-18)
(0.509847 -0.356445 5.93266e-19)
(0.500964 -0.405009 -4.58115e-19)
(0.488369 -0.458425 -3.57421e-19)
(0.454262 -0.559665 0)
(0.490825 -0.0321079 -5.02376e-20)
(0.49237 -0.0358706 -5.05261e-20)
(0.493719 -0.0402682 1.5531e-18)
(0.495151 -0.0449757 -3.33134e-18)
(0.496623 -0.0499187 2.11096e-19)
(0.498051 -0.0551133 4.24549e-19)
(0.499412 -0.0605924 -4.11421e-19)
(0.500714 -0.0663872 0)
(0.501968 -0.0725324 2.21834e-18)
(0.503175 -0.0790705 -4.02505e-18)
(0.504332 -0.0860496 1.82533e-18)
(0.505434 -0.0935231 9.13051e-19)
(0.506471 -0.101553 -2.80635e-18)
(0.507428 -0.110211 0)
(0.508284 -0.119588 0)
(0.509012 -0.129788 1.95135e-18)
(0.509577 -0.140942 1.97695e-18)
(0.509935 -0.153203 9.79921e-19)
(0.510026 -0.166758 -1.4237e-20)
(0.509768 -0.181836 -1.01416e-18)
(0.509051 -0.198716 0)
(0.507725 -0.21774 0)
(0.505567 -0.239343 -1.09311e-18)
(0.502318 -0.264041 -3.14663e-18)
(0.497432 -0.292562 0)
(0.49067 -0.32559 -1.12184e-18)
(0.480192 -0.364622 1.77406e-18)
(0.466897 -0.410387 -3.39758e-18)
(0.446559 -0.46269 4.57603e-19)
(0.408769 -0.55128 0)
(0.487977 -0.0405868 0)
(0.489164 -0.0443868 1.68549e-18)
(0.490135 -0.0487831 -1.47866e-18)
(0.491255 -0.0534927 1.49561e-18)
(0.492422 -0.0584588 2.1712e-19)
(0.493515 -0.0636992 -2.2102e-19)
(0.49452 -0.0692445 -1.77624e-18)
(0.495461 -0.0751228 0)
(0.496343 -0.0813644 2.93931e-20)
(0.497155 -0.0880072 1.8496e-18)
(0.497879 -0.0950963 -2.34712e-18)
(0.498499 -0.102685 2.42121e-18)
(0.498997 -0.110835 2.41567e-18)
(0.499348 -0.119621 -4.96274e-19)
(0.499524 -0.129131 3.03627e-18)
(0.499486 -0.139468 -1.98716e-18)
(0.499186 -0.150755 -2.07773e-18)
(0.498562 -0.163138 -1.05725e-18)
(0.49753 -0.176791 0)
(0.495984 -0.191926 0)
(0.493778 -0.208798 0)
(0.490722 -0.227716 1.10487e-18)
(0.486546 -0.249063 3.38433e-18)
(0.48093 -0.273289 1.09184e-18)
(0.473266 -0.301016 2.29634e-18)
(0.463237 -0.332785 -1.36781e-18)
(0.44884 -0.369935 2.42463e-18)
(0.431368 -0.412548 -2.89013e-19)
(0.404014 -0.462298 1.88063e-18)
(0.364028 -0.538679 2.80739e-18)
(0.48425 -0.0489988 -1.71745e-18)
(0.48509 -0.052856 -1.72171e-18)
(0.485686 -0.0572901 -1.76982e-18)
(0.486486 -0.0620436 0)
(0.487343 -0.0670639 0)
(0.488095 -0.0723648 -1.84866e-18)
(0.488729 -0.0779728 0)
(0.489274 -0.0839152 1.43654e-18)
(0.48973 -0.090223 -3.36241e-18)
(0.490074 -0.0969353 1.97267e-18)
(0.490285 -0.104098 1.51221e-18)
(0.490342 -0.111765 -4.03929e-18)
(0.490222 -0.119997 2.5148e-21)
(0.489892 -0.128865 -1.59659e-18)
(0.489314 -0.138452 5.81194e-20)
(0.488437 -0.148854 -2.14243e-18)
(0.487197 -0.160186 -6.99395e-20)
(0.485514 -0.172583 2.29974e-18)
(0.483285 -0.186203 -1.20283e-18)
(0.480378 -0.201238 -1.18086e-18)
(0.47662 -0.217915 2.45902e-18)
(0.471786 -0.236501 0)
(0.46557 -0.257326 -2.4409e-18)
(0.457601 -0.280765 0)
(0.447232 -0.307328 -2.71406e-18)
(0.434081 -0.337421 2.56664e-18)
(0.416065 -0.372192 2.6366e-19)
(0.394744 -0.411227 2.61619e-18)
(0.361335 -0.457227 -3.27172e-18)
(0.320422 -0.521954 1.26928e-18)
(0.47953 -0.0572819 1.69991e-18)
(0.480004 -0.061199 -5.59244e-20)
(0.480202 -0.0656686 2.15293e-18)
(0.480645 -0.0704543 7.02758e-19)
(0.481149 -0.0755084 0)
(0.481515 -0.0808442 1.89632e-18)
(0.481726 -0.0864887 1.46814e-18)
(0.48182 -0.0924697 -2.45623e-18)
(0.481794 -0.0988186 9.75913e-19)
(0.481619 -0.105573 -9.92279e-19)
(0.481268 -0.112777 -2.06891e-18)
(0.480713 -0.120481 2.10862e-18)
(0.479924 -0.128742 -5.61065e-19)
(0.47886 -0.137625 1.63737e-18)
(0.47747 -0.147208 -5.18467e-19)
(0.475693 -0.15758 -5.82097e-19)
(0.473453 -0.168845 3.5522e-18)
(0.470653 -0.181124 -3.6379e-18)
(0.467175 -0.194559 2.45234e-18)
(0.462864 -0.209314 6.73161e-19)
(0.457526 -0.225585 -1.91724e-18)
(0.45091 -0.243597 1.39469e-18)
(0.442681 -0.263619 0)
(0.432434 -0.285949 -7.18517e-19)
(0.419505 -0.310986 3.63685e-18)
(0.403456 -0.339007 0)
(0.382213 -0.37094 -5.55484e-18)
(0.357489 -0.406014 8.47056e-19)
(0.319155 -0.447392 0)
(0.278378 -0.501233 -3.34123e-18)
(0.473693 -0.065299 -9.24863e-19)
(0.473778 -0.0692704 -1.16598e-19)
(0.47355 -0.0737634 -7.22441e-19)
(0.473604 -0.0785648 -1.07956e-18)
(0.47372 -0.0836325 2.45668e-19)
(0.473663 -0.0889806 -2.50696e-19)
(0.473416 -0.094635 -1.0104e-18)
(0.473019 -0.100622 -1.05396e-18)
(0.47247 -0.106973 1.05008e-18)
(0.471732 -0.113721 -5.29802e-19)
(0.470771 -0.120908 -5.54495e-19)
(0.469554 -0.128581 0)
(0.468044 -0.136792 1.72286e-18)
(0.466193 -0.145602 -5.94503e-19)
(0.463941 -0.15508 -1.19919e-18)
(0.461217 -0.165307 -6.24872e-19)
(0.457935 -0.176372 -6.19428e-19)