/*--------------------------------*- C++ -*----------------------------------*\
  =========                 |
  \\      /  F ield         | OpenFOAM: The Open Source CFD Toolbox
   \\    /   O peration     | Website:  https://openfoam.org
    \\  /    A nd           | Version:  11
     \\/     M anipulation  |
\*---------------------------------------------------------------------------*/
FoamFile
{
    format      ascii;
    class       surfaceScalarField;
    location    "1.5";
    object      phi;
}
// * * * * * * * * * * * * * * * * * * * * * * * * * * * * * * * * * * * * * //

dimensions      [0 3 -1 0 0 0 0];

internalField   nonuniform List<scalar> 
24840
(
1.53203e-05
1.30562e-08
1.53031e-05
1.71363e-08
1.52877e-05
1.54028e-08
1.52733e-05
1.44039e-08
1.52595e-05
1.37933e-08
1.52466e-05
1.29712e-08
1.52347e-05
1.18788e-08
1.52241e-05
1.05438e-08
1.52152e-05
8.91262e-09
1.52084e-05
6.8108e-09
1.52042e-05
4.25763e-09
1.5203e-05
1.12149e-09
1.52058e-05
-2.80827e-09
1.52135e-05
-7.69469e-09
1.52273e-05
-1.37512e-08
1.52486e-05
-2.12621e-08
1.5279e-05
-3.04849e-08
1.5321e-05
-4.19476e-08
1.53771e-05
-5.61101e-08
1.54501e-05
-7.29724e-08
1.55437e-05
-9.36804e-08
1.56634e-05
-1.19661e-07
1.58149e-05
-1.51502e-07
1.60055e-05
-1.90556e-07
1.62439e-05
-2.38397e-07
1.65401e-05
-2.9625e-07
1.6907e-05
-3.66897e-07
1.73546e-05
-4.47597e-07
1.79213e-05
-5.66702e-07
-5.83687e-07
1.8505e-05
1.53395e-05
6.8803e-09
1.53443e-05
1.23493e-08
1.53492e-05
1.05042e-08
1.53544e-05
9.1926e-09
1.53601e-05
8.07885e-09
1.53666e-05
6.43887e-09
1.53742e-05
4.36474e-09
1.53829e-05
1.80628e-09
1.53931e-05
-1.28299e-09
1.54052e-05
-5.28721e-09
1.54196e-05
-1.01146e-08
1.54368e-05
-1.60896e-08
1.54575e-05
-2.34987e-08
1.54824e-05
-3.26557e-08
1.55126e-05
-4.39208e-08
1.55491e-05
-5.77599e-08
1.55933e-05
-7.47028e-08
1.56468e-05
-9.54238e-08
1.57116e-05
-1.20904e-07
1.57919e-05
-1.53251e-07
1.58914e-05
-1.93246e-07
1.60133e-05
-2.41534e-07
1.61628e-05
-3.00979e-07
1.63465e-05
-3.74252e-07
1.65719e-05
-4.63798e-07
1.68483e-05
-5.72652e-07
1.71868e-05
-7.05457e-07
1.76019e-05
-8.62626e-07
1.81087e-05
-1.07357e-06
-1.20356e-06
1.87286e-05
1.53364e-05
3.78994e-09
1.53408e-05
7.97852e-09
1.53446e-05
6.66831e-09
1.53492e-05
4.59942e-09
1.53546e-05
2.66892e-09
1.53609e-05
1.78178e-10
1.53681e-05
-2.8194e-09
1.53765e-05
-6.57855e-09
1.53863e-05
-1.11605e-08
1.53979e-05
-1.68513e-08
1.54116e-05
-2.38287e-08
1.5428e-05
-3.24687e-08
1.54477e-05
-4.31912e-08
1.54715e-05
-5.64739e-08
1.55005e-05
-7.28721e-08
1.55358e-05
-9.30703e-08
1.5579e-05
-1.179e-07
1.56319e-05
-1.48397e-07
1.5697e-05
-1.85953e-07
1.57764e-05
-2.32655e-07
1.58734e-05
-2.90228e-07
1.59924e-05
-3.60527e-07
1.61383e-05
-4.46902e-07
1.63172e-05
-5.532e-07
1.65369e-05
-6.83493e-07
1.68069e-05
-8.42591e-07
1.71389e-05
-1.03747e-06
1.7546e-05
-1.26979e-06
1.80462e-05
-1.57373e-06
-1.82225e-06
1.86649e-05
1.53353e-05
1.86654e-09
1.53391e-05
4.14437e-09
1.53429e-05
2.90531e-09
1.53471e-05
3.94958e-10
1.53522e-05
-2.47857e-09
1.53582e-05
-5.77962e-09
1.53651e-05
-9.77493e-09
1.53732e-05
-1.47041e-08
1.53828e-05
-2.06943e-08
1.5394e-05
-2.80444e-08
1.54072e-05
-3.71018e-08
1.54231e-05
-4.83218e-08
1.54421e-05
-6.22513e-08
1.54652e-05
-7.95218e-08
1.54932e-05
-1.00876e-07
1.55273e-05
-1.27215e-07
1.55691e-05
-1.5964e-07
1.56202e-05
-1.99517e-07
1.56829e-05
-2.48606e-07
1.57594e-05
-3.09225e-07
1.5853e-05
-3.83834e-07
1.59678e-05
-4.75302e-07
1.61086e-05
-5.87683e-07
1.62813e-05
-7.2587e-07
1.64933e-05
-8.95488e-07
1.67539e-05
-1.10319e-06
1.70746e-05
-1.35817e-06
1.74694e-05
-1.66463e-06
1.79539e-05
-2.05825e-06
-2.42952e-06
1.85612e-05
1.53346e-05
5.62328e-10
1.53377e-05
1.08205e-09
1.53412e-05
-5.58782e-10
1.53452e-05
-3.64263e-09
1.535e-05
-7.32372e-09
1.53558e-05
-1.14891e-08
1.53624e-05
-1.64571e-08
1.53702e-05
-2.2498e-08
1.53794e-05
-2.98209e-08
1.53901e-05
-3.87735e-08
1.54028e-05
-4.98125e-08
1.5418e-05
-6.3494e-08
1.54362e-05
-8.04842e-08
1.54582e-05
-1.0156e-07
1.5485e-05
-1.2764e-07
1.55176e-05
-1.59828e-07
1.55574e-05
-1.99477e-07
1.56062e-05
-2.48255e-07
1.56658e-05
-3.08264e-07
1.57388e-05
-3.82163e-07
1.5828e-05
-4.7304e-07
1.59373e-05
-5.84603e-07
1.60713e-05
-7.217e-07
1.62357e-05
-8.90293e-07
1.64377e-05
-1.09749e-06
1.66863e-05
-1.35171e-06
1.69923e-05
-1.66423e-06
1.73702e-05
-2.04255e-06
1.78342e-05
-2.52226e-06
-3.01496e-06
1.84197e-05
1.53343e-05
-4.00873e-10
1.53368e-05
-1.42257e-09
1.534e-05
-3.77435e-09
1.53438e-05
-7.45203e-09
1.53484e-05
-1.18751e-08
1.53538e-05
-1.68914e-08
1.53601e-05
-2.27885e-08
1.53675e-05
-2.98818e-08
1.53761e-05
-3.84617e-08
1.53863e-05
-4.89344e-08
1.53983e-05
-6.18406e-08
1.54127e-05
-7.78375e-08
1.54299e-05
-9.77055e-08
1.54507e-05
-1.22358e-07
1.54759e-05
-1.52875e-07
1.55066e-05
-1.90552e-07
1.55441e-05
-2.36972e-07
1.559e-05
-2.9408e-07
1.5646e-05
-3.64303e-07
1.57145e-05
-4.50665e-07
1.57983e-05
-5.56811e-07
1.59009e-05
-6.87186e-07
1.60266e-05
-8.47441e-07
1.61809e-05
-1.04456e-06
1.63704e-05
-1.28703e-06
1.66037e-05
-1.58503e-06
1.68914e-05
-1.95191e-06
1.72476e-05
-2.39875e-06
1.7686e-05
-2.96062e-06
-3.57229e-06
1.82433e-05
1.53341e-05
-1.16946e-09
1.53362e-05
-3.51248e-09
1.53391e-05
-6.69326e-09
1.53426e-05
-1.09833e-08
1.53469e-05
-1.60996e-08
1.53519e-05
-2.19267e-08
1.53578e-05
-2.87074e-08
1.53647e-05
-3.67901e-08
1.53728e-05
-4.65397e-08
1.53823e-05
-5.84262e-08
1.53935e-05
-7.30651e-08
1.54069e-05
-9.1207e-08
1.54229e-05
-1.1374e-07
1.54423e-05
-1.41702e-07
1.54657e-05
-1.76321e-07
1.54942e-05
-2.19068e-07
1.5529e-05
-2.71732e-07
1.55714e-05
-3.36514e-07
1.56233e-05
-4.16139e-07
1.56866e-05
-5.13993e-07
1.5764e-05
-6.34217e-07
1.58587e-05
-7.81912e-07
1.59748e-05
-9.63488e-07
1.61171e-05
-1.18689e-06
1.6292e-05
-1.46191e-06
1.65074e-05
-1.80041e-06
1.67732e-05
-2.21771e-06
1.7103e-05
-2.72862e-06
1.75101e-05
-3.36771e-06
-4.09445e-06
1.80323e-05
1.5334e-05
-1.80189e-09
1.53357e-05
-5.28365e-09
1.53383e-05
-9.3001e-09
1.53416e-05
-1.42239e-08
1.53455e-05
-1.99971e-08
1.53501e-05
-2.65737e-08
1.53556e-05
-3.41736e-08
1.5362e-05
-4.31685e-08
1.53694e-05
-5.39881e-08
1.53782e-05
-6.71658e-08
1.53885e-05
-8.33844e-08
1.54007e-05
-1.03477e-07
1.54154e-05
-1.2843e-07
1.54331e-05
-1.59394e-07
1.54545e-05
-1.97731e-07
1.54805e-05
-2.45069e-07
1.55122e-05
-3.03385e-07
1.55508e-05
-3.75104e-07
1.55979e-05
-4.63224e-07
1.56553e-05
-5.71463e-07
1.57255e-05
-7.04403e-07
1.58113e-05
-8.6772e-07
1.59164e-05
-1.06852e-06
1.60451e-05
-1.31562e-06
1.62032e-05
-1.62001e-06
1.63979e-05
-1.99512e-06
1.66384e-05
-2.45819e-06
1.69374e-05
-3.02768e-06
1.73076e-05
-3.73789e-06
-4.57383e-06
1.7787e-05
1.53339e-05
-2.33259e-09
1.53354e-05
-6.79976e-09
1.53377e-05
-1.16069e-08
1.53406e-05
-1.71591e-08
1.53442e-05
-2.3546e-08
1.53484e-05
-3.08003e-08
1.53534e-05
-3.91428e-08
1.53592e-05
-4.89625e-08
1.53659e-05
-6.07411e-08
1.53738e-05
-7.5071e-08
1.53831e-05
-9.26964e-08
1.53942e-05
-1.14523e-07
1.54074e-05
-1.41624e-07
1.54232e-05
-1.75251e-07
1.54424e-05
-2.16884e-07
1.54656e-05
-2.68287e-07
1.54938e-05
-3.31602e-07
1.55282e-05
-4.09449e-07
1.557e-05
-5.05066e-07
1.5621e-05
-6.22462e-07
1.56832e-05
-7.66603e-07
1.57591e-05
-9.43657e-07
1.5852e-05
-1.16134e-06
1.59656e-05
-1.42926e-06
1.6105e-05
-1.75942e-06
1.62766e-05
-2.1667e-06
1.64885e-05
-2.67012e-06
1.67525e-05
-3.29163e-06
1.708e-05
-4.06542e-06
-5.00218e-06
1.75084e-05
1.53338e-05
-2.78315e-09
1.53351e-05
-8.10149e-09
1.53371e-05
-1.36289e-08
1.53397e-05
-1.97764e-08
1.53429e-05
-2.67258e-08
1.53467e-05
-3.45814e-08
1.53511e-05
-4.35804e-08
1.53563e-05
-5.41264e-08
1.53623e-05
-6.67423e-08
1.53693e-05
-8.20724e-08
1.53775e-05
-1.00915e-07
1.53872e-05
-1.24241e-07
1.53988e-05
-1.53195e-07
1.54127e-05
-1.89119e-07
1.54294e-05
-2.3359e-07
1.54496e-05
-2.8849e-07
1.54741e-05
-3.56098e-07
1.55038e-05
-4.39198e-07
1.554e-05
-5.41231e-07
1.5584e-05
-6.66453e-07
1.56375e-05
-8.2015e-07
1.57028e-05
-1.00889e-06
1.57823e-05
-1.24091e-06
1.58795e-05
-1.52646e-06
1.59986e-05
-1.87845e-06
1.61448e-05
-2.31294e-06
1.63252e-05
-2.85055e-06
1.655e-05
-3.5164e-06
1.68293e-05
-4.34472e-06
-5.37102e-06
1.71981e-05
1.53337e-05
-3.16604e-09
1.53348e-05
-9.21442e-09
1.53366e-05
-1.53804e-08
1.53389e-05
-2.20703e-08
1.53417e-05
-2.95217e-08
1.5345e-05
-3.78969e-08
1.53489e-05
-4.74568e-08
1.53534e-05
-5.86203e-08
1.53585e-05
-7.19417e-08
1.53646e-05
-8.81087e-08
1.53716e-05
-1.07968e-07
1.53799e-05
-1.32541e-07
1.53898e-05
-1.63036e-07
1.54015e-05
-2.00865e-07
1.54156e-05
-2.47686e-07
1.54326e-05
-3.05477e-07
1.54531e-05
-3.76624e-07
1.5478e-05
-4.64049e-07
1.55081e-05
-5.7135e-07
1.55446e-05
-7.02981e-07
1.5589e-05
-8.64478e-07
1.56428e-05
-1.06273e-06
1.57082e-05
-1.30635e-06
1.57879e-05
-1.60613e-06
1.58851e-05
-1.97565e-06
1.60041e-05
-2.43195e-06
1.61505e-05
-2.99692e-06
1.63325e-05
-3.69838e-06
1.65584e-05
-4.5706e-06
-5.67198e-06
1.68593e-05
1.53337e-05
-3.4888e-09
1.53346e-05
-1.01562e-08
1.53361e-05
-1.68741e-08
1.53381e-05
-2.40394e-08
1.53405e-05
-3.19227e-08
1.53433e-05
-4.07305e-08
1.53466e-05
-5.07492e-08
1.53504e-05
-6.24126e-08
1.53547e-05
-7.62993e-08
1.53598e-05
-9.31313e-08
1.53656e-05
-1.13793e-07
1.53724e-05
-1.39349e-07
1.53804e-05
-1.71055e-07
1.53899e-05
-2.10377e-07
1.54013e-05
-2.59037e-07
1.54149e-05
-3.19082e-07
1.54312e-05
-3.92983e-07
1.54509e-05
-4.83758e-07
1.54747e-05
-5.95125e-07
1.55034e-05
-7.31681e-07
1.55381e-05
-8.99138e-07
1.558e-05
-1.10461e-06
1.56306e-05
-1.35698e-06
1.56918e-05
-1.66739e-06
1.57661e-05
-2.0499e-06
1.58564e-05
-2.52221e-06
1.59666e-05
-3.10712e-06
1.61027e-05
-3.83454e-06
1.62707e-05
-4.73855e-06
-5.89742e-06
1.64961e-05
1.53336e-05
-3.75654e-09
1.53344e-05
-1.09396e-08
1.53356e-05
-1.81212e-08
1.53373e-05
-2.56857e-08
1.53393e-05
-3.39225e-08
1.53416e-05
-4.30709e-08
1.53443e-05
-5.34408e-08
1.53474e-05
-6.54803e-08
1.53509e-05
-7.97853e-08
1.53548e-05
-9.71027e-08
1.53594e-05
-1.18346e-07
1.53646e-05
-1.4461e-07
1.53708e-05
-1.77184e-07
1.5378e-05
-2.17572e-07
1.53865e-05
-2.67539e-07
1.53966e-05
-3.29179e-07
1.54086e-05
-4.05019e-07
1.5423e-05
-4.9814e-07
1.54402e-05
-6.12332e-07
1.54608e-05
-7.52281e-07
1.54854e-05
-9.238e-07
1.5515e-05
-1.13412e-06
1.55503e-05
-1.39229e-06
1.55925e-05
-1.70962e-06
1.5643e-05
-2.10039e-06
1.57034e-05
-2.58265e-06
1.5776e-05
-3.17966e-06
1.58641e-05
-3.92263e-06
1.59706e-05
-4.84508e-06
-6.04094e-06
1.61141e-05
1.53335e-05
-3.9732e-09
1.53342e-05
-1.1575e-08
1.53352e-05
-1.91322e-08
1.53365e-05
-2.7014e-08
1.53381e-05
-3.55193e-08
1.534e-05
-4.49117e-08
1.5342e-05
-5.55214e-08
1.53444e-05
-6.78081e-08
1.5347e-05
-8.23789e-08
1.53499e-05
-9.99966e-08
1.53531e-05
-1.21593e-07
1.53568e-05
-1.48282e-07
1.5361e-05
-1.81372e-07
1.53658e-05
-2.22389e-07
1.53714e-05
-2.73119e-07
1.53779e-05
-3.35681e-07
1.53855e-05
-4.12629e-07
1.53944e-05
-5.07071e-07
1.54049e-05
-6.22824e-07
1.54172e-05
-7.64605e-07
1.54317e-05
-9.38255e-07
1.54486e-05
-1.15103e-06
1.54683e-05
-1.412e-06
1.54911e-05
-1.73245e-06
1.55174e-05
-2.12667e-06
1.55474e-05
-2.61269e-06
1.55815e-05
-3.21369e-06
1.56202e-05
-3.96133e-06
1.5663e-05
-4.88797e-06
-6.0981e-06
1.57202e-05
1.53335e-05
-4.14226e-09
1.5334e-05
-1.20721e-08
1.53348e-05
-1.99185e-08
1.53358e-05
-2.80322e-08
1.5337e-05
-3.6716e-08
1.53383e-05
-4.62518e-08
1.53398e-05
-5.69869e-08
1.53414e-05
-6.93888e-08
1.53431e-05
-8.40694e-08
1.53449e-05
-1.01798e-07
1.53468e-05
-1.23516e-07
1.53489e-05
-1.50343e-07
1.53511e-05
-1.83593e-07
1.53535e-05
-2.24795e-07
1.53561e-05
-2.75738e-07
1.5359e-05
-3.38544e-07
1.53621e-05
-4.1576e-07
1.53655e-05
-5.10488e-07
1.53692e-05
-6.26531e-07
1.53732e-05
-7.68575e-07
1.53774e-05
-9.42418e-07
1.53816e-05
-1.15525e-06
1.53856e-05
-1.416e-06
1.53889e-05
-1.73581e-06
1.53909e-05
-2.12867e-06
1.53905e-05
-2.61225e-06
1.53859e-05
-3.20911e-06
1.5375e-05
-3.95038e-06
1.53536e-05
-4.86657e-06
-6.06694e-06
1.53224e-05
1.53335e-05
-4.26731e-09
1.53338e-05
-1.24409e-08
1.53344e-05
-2.04927e-08
1.53351e-05
-2.87513e-08
1.53359e-05
-3.75195e-08
1.53368e-05
-4.70955e-08
1.53376e-05
-5.78397e-08
1.53384e-05
-7.0223e-08
1.53392e-05
-8.48555e-08
1.53399e-05
-1.02506e-07
1.53405e-05
-1.24111e-07
1.5341e-05
-1.50788e-07
1.53412e-05
-1.8384e-07
1.53412e-05
-2.24783e-07
1.53409e-05
-2.7539e-07
1.53401e-05
-3.37759e-07
1.53387e-05
-4.14407e-07
1.53366e-05
-5.08393e-07
1.53336e-05
-6.23459e-07
1.53292e-05
-7.64211e-07
1.53231e-05
-9.3633e-07
1.53147e-05
-1.14684e-06
1.53031e-05
-1.40443e-06
1.52872e-05
-1.71989e-06
1.52652e-05
-2.1067e-06
1.52348e-05
-2.58179e-06
1.51922e-05
-3.16657e-06
1.51326e-05
-3.8907e-06
1.5048e-05
-4.782e-06
-5.94845e-06
1.49295e-05
1.53334e-05
-4.35242e-09
1.53337e-05
-1.26929e-08
1.5334e-05
-2.08699e-08
1.53345e-05
-2.91853e-08
1.53349e-05
-3.79414e-08
1.53353e-05
-4.74522e-08
1.53355e-05
-5.80889e-08
1.53356e-05
-7.03196e-08
1.53355e-05
-8.47458e-08
1.53351e-05
-1.02127e-07
1.53344e-05
-1.23389e-07
1.53332e-05
-1.4963e-07
1.53315e-05
-1.82129e-07
1.53291e-05
-2.22374e-07
1.53258e-05
-2.72101e-07
1.53214e-05
-3.33362e-07
1.53156e-05
-4.08617e-07
1.53081e-05
-5.00846e-07
1.52983e-05
-6.13694e-07
1.52857e-05
-7.51629e-07
1.52696e-05
-9.20151e-07
1.52487e-05
-1.12603e-06
1.52219e-05
-1.3776e-06
1.51872e-05
-1.68515e-06
1.51419e-05
-2.06142e-06
1.50824e-05
-2.52227e-06
1.50033e-05
-3.08749e-06
1.48969e-05
-3.78433e-06
1.47521e-05
-4.63718e-06
-5.7468e-06
1.45505e-05
1.53334e-05
-4.40254e-09
1.53335e-05
-1.28418e-08
1.53337e-05
-2.10687e-08
1.53339e-05
-2.93521e-08
1.5334e-05
-3.79972e-08
1.53338e-05
-4.7337e-08
1.53335e-05
-5.77501e-08
1.53329e-05
-6.9695e-08
1.53319e-05
-8.37582e-08
1.53304e-05
-1.00683e-07
1.53284e-05
-1.21373e-07
1.53257e-05
-1.46897e-07
1.53221e-05
-1.78496e-07
1.53173e-05
-2.17612e-07
1.53111e-05
-2.65927e-07
1.53032e-05
-3.25425e-07
1.5293e-05
-3.98481e-07
1.52802e-05
-4.87969e-07
1.52639e-05
-5.97391e-07
1.52433e-05
-7.31034e-07
1.52173e-05
-8.94154e-07
1.51844e-05
-1.09319e-06
1.51429e-05
-1.33602e-06
1.509e-05
-1.6323e-06
1.50224e-05
-1.99384e-06
1.49353e-05
-2.43515e-06
1.48218e-05
-2.97397e-06
1.46719e-05
-3.63441e-06
1.44715e-05
-4.43677e-06
-5.46931e-06
1.4194e-05
1.53334e-05
-4.42392e-09
1.53334e-05
-1.29057e-08
1.53335e-05
-2.11113e-08
1.53334e-05
-2.9273e-08
1.53331e-05
-3.77062e-08
1.53325e-05
-4.67696e-08
1.53316e-05
-5.68451e-08
1.53303e-05
-6.83735e-08
1.53285e-05
-8.19201e-08
1.5326e-05
-9.82054e-08
1.53227e-05
-1.18103e-07
1.53184e-05
-1.42637e-07
1.53129e-05
-1.72999e-07
1.53059e-05
-2.1057e-07
1.52969e-05
-2.56958e-07
1.52856e-05
-3.14061e-07
1.52712e-05
-3.84142e-07
1.52532e-05
-4.69939e-07
1.52306e-05
-5.74778e-07
1.52023e-05
-7.02721e-07
1.51668e-05
-8.58723e-07
1.51225e-05
-1.04883e-06
1.50668e-05
-1.28038e-06
1.49968e-05
-1.56227e-06
1.49082e-05
-1.90523e-06
1.47953e-05
-2.32226e-06
1.46501e-05
-2.82873e-06
1.44607e-05
-3.44502e-06
1.42108e-05
-4.18692e-06
-5.12604e-06
1.38676e-05
1.53333e-05
-4.42478e-09
1.53333e-05
-1.29073e-08
1.53332e-05
-2.10259e-08
1.53329e-05
-2.89727e-08
1.53323e-05
-3.70914e-08
1.53313e-05
-4.57752e-08
1.53299e-05
-5.54021e-08
1.53279e-05
-6.63863e-08
1.53253e-05
-7.92675e-08
1.53218e-05
-9.47376e-08
1.53173e-05
-1.13628e-07
1.53116e-05
-1.36912e-07
1.53043e-05
-1.65714e-07
1.52951e-05
-2.01341e-07
1.52834e-05
-2.45312e-07
1.52688e-05
-2.99415e-07
1.52504e-05
-3.65783e-07
1.52275e-05
-4.46987e-07
1.51988e-05
-5.46148e-07
1.51632e-05
-6.67061e-07
1.51188e-05
-8.14338e-07
1.50635e-05
-9.93567e-07
1.49946e-05
-1.21149e-06
1.49085e-05
-1.47616e-06
1.48005e-05
-1.79715e-06
1.4664e-05
-2.18578e-06
1.44902e-05
-2.65494e-06
1.42661e-05
-3.22092e-06
1.39741e-05
-3.89492e-06
-4.72915e-06
1.35772e-05
1.53333e-05
-4.41629e-09
1.53333e-05
-1.28763e-08
1.53331e-05
-2.08471e-08
1.53326e-05
-2.84798e-08
1.53317e-05
-3.61784e-08
1.53303e-05
-4.43835e-08
1.53284e-05
-5.34552e-08
1.53258e-05
-6.37714e-08
1.53223e-05
-7.58445e-08
1.53179e-05
-9.0332e-08
1.53123e-05
-1.08015e-07
1.53052e-05
-1.29801e-07
1.52962e-05
-1.56738e-07
1.52849e-05
-1.90044e-07
1.52707e-05
-2.31133e-07
1.5253e-05
-2.81669e-07
1.52308e-05
-3.43629e-07
1.52033e-05
-4.19397e-07
1.5169e-05
-5.11856e-07
1.51264e-05
-6.24503e-07
1.50736e-05
-7.61566e-07
1.50082e-05
-9.28139e-07
1.4927e-05
-1.13031e-06
1.48261e-05
-1.37525e-06
1.47003e-05
-1.67133e-06
1.45426e-05
-2.02813e-06
1.43438e-05
-2.45607e-06
1.40902e-05
-2.9673e-06
1.37639e-05
-3.5687e-06
-4.29198e-06
1.33268e-05
1.53333e-05
-4.41539e-09
1.53333e-05
-1.28542e-08
1.53331e-05
-2.06148e-08
1.53324e-05
-2.78217e-08
1.53312e-05
-3.49958e-08
1.53295e-05
-4.26313e-08
1.53271e-05
-5.10441e-08
1.53239e-05
-6.05725e-08
1.53197e-05
-7.17031e-08
1.53144e-05
-8.50523e-08
1.53078e-05
-1.01339e-07
1.52994e-05
-1.21395e-07
1.52888e-05
-1.46183e-07
1.52756e-05
-1.76818e-07
1.5259e-05
-2.14596e-07
1.52384e-05
-2.61037e-07
1.52127e-05
-3.17947e-07
1.51808e-05
-3.87498e-07
1.51413e-05
-4.72312e-07
1.50923e-05
-5.75558e-07
1.50318e-05
-7.01053e-07
1.49571e-05
-8.53363e-07
1.48646e-05
-1.03789e-06
1.47503e-05
-1.26092e-06
1.46086e-05
-1.5296e-06
1.44323e-05
-1.85183e-06
1.42119e-05
-2.2357e-06
1.39341e-05
-2.68946e-06
1.35816e-05
-3.21626e-06
-3.82802e-06
1.31177e-05
1.53334e-05
-4.4468e-09
1.53334e-05
-1.2903e-08
1.53332e-05
-2.03741e-08
1.53324e-05
-2.70266e-08
1.5331e-05
-3.35776e-08
1.53289e-05
-4.05555e-08
1.5326e-05
-4.82104e-08
1.53223e-05
-5.68397e-08
1.53175e-05
-6.69041e-08
1.53114e-05
-7.8971e-08
1.53038e-05
-9.36882e-08
1.52942e-05
-1.11803e-07
1.52822e-05
-1.34181e-07
1.52672e-05
-1.61824e-07
1.52485e-05
-1.95897e-07
1.52252e-05
-2.37761e-07
1.51963e-05
-2.89034e-07
1.51605e-05
-3.51658e-07
1.51161e-05
-4.27972e-07
1.50614e-05
-5.20795e-07
1.49938e-05
-6.33508e-07
1.49106e-05
-7.7013e-07
1.48081e-05
-9.35368e-07
1.46818e-05
-1.13463e-06
1.4526e-05
-1.37387e-06
1.43336e-05
-1.65944e-06
1.40953e-05
-1.99734e-06
1.37983e-05
-2.39244e-06
1.34271e-05
-2.84513e-06
-3.34987e-06
1.2949e-05
1.53334e-05
-4.5516e-09
1.53336e-05
-1.31033e-08
1.53334e-05
-2.01752e-08
1.53325e-05
-2.61232e-08
1.53309e-05
-3.19615e-08
1.53286e-05
-3.82008e-08
1.53253e-05
-4.49988e-08
1.53211e-05
-5.26237e-08
1.53157e-05
-6.15104e-08
1.53089e-05
-7.21658e-08
1.53004e-05
-8.51572e-08
1.52897e-05
-1.0114e-07
1.52764e-05
-1.20875e-07
1.52598e-05
-1.45241e-07
1.52392e-05
-1.75255e-07
1.52136e-05
-2.1211e-07
1.51817e-05
-2.57221e-07
1.51424e-05
-3.12284e-07
1.50937e-05
-3.79339e-07
1.50338e-05
-4.60835e-07
1.496e-05
-5.59698e-07
1.48692e-05
-6.7939e-07
1.47578e-05
-8.23928e-07
1.4621e-05
-9.97861e-07
1.44532e-05
-1.20606e-06
1.42472e-05
-1.45344e-06
1.39942e-05
-1.74429e-06
1.36825e-05
-2.08075e-06
1.32991e-05
-2.46177e-06
-2.86817e-06
1.28174e-05
1.53336e-05
-4.80405e-09
1.53341e-05
-1.35744e-08
1.53339e-05
-2.00515e-08
1.53329e-05
-2.51357e-08
1.53312e-05
-3.01966e-08
1.53286e-05
-3.56192e-08
1.53251e-05
-4.14625e-08
1.53204e-05
-4.79888e-08
1.53145e-05
-5.55999e-08
1.53071e-05
-6.47285e-08
1.52978e-05
-7.58554e-08
1.52862e-05
-8.95401e-08
1.52717e-05
-1.06427e-07
1.52537e-05
-1.2726e-07
1.52314e-05
-1.52905e-07
1.52037e-05
-1.84375e-07
1.51693e-05
-2.22867e-07
1.51268e-05
-2.69817e-07
1.50744e-05
-3.26951e-07
1.50099e-05
-3.96335e-07
1.49307e-05
-4.80429e-07
1.48334e-05
-5.82129e-07
1.47143e-05
-7.04781e-07
1.45685e-05
-8.52137e-07
1.43906e-05
-1.02806e-06
1.41733e-05
-1.23618e-06
1.39085e-05
-1.47947e-06
1.35858e-05
-1.75811e-06
1.31952e-05
-2.07114e-06
-2.39068e-06
1.27177e-05
1.53339e-05
-5.34654e-09
1.53348e-05
-1.44941e-08
1.53347e-05
-2.00031e-08
1.53337e-05
-2.40801e-08
1.53318e-05
-2.83209e-08
1.5329e-05
-3.28403e-08
1.53252e-05
-3.76375e-08
1.53202e-05
-4.29893e-08
1.53139e-05
-4.92446e-08
1.53059e-05
-5.67506e-08
1.52959e-05
-6.58946e-08
1.52835e-05
-7.71414e-08
1.52681e-05
-9.10075e-08
1.52489e-05
-1.08095e-07
1.52251e-05
-1.29108e-07
1.51956e-05
-1.5487e-07
1.51591e-05
-1.86355e-07
1.5114e-05
-2.2473e-07
1.50585e-05
-2.7139e-07
1.49901e-05
-3.28006e-07
1.49063e-05
-3.96562e-07
1.48035e-05
-4.79393e-07
1.46779e-05
-5.79194e-07
1.45248e-05
-6.99006e-07
1.43385e-05
-8.4177e-07
1.41123e-05
-1.00994e-06
1.38384e-05
-1.20562e-06
1.35079e-05
-1.42758e-06
1.31139e-05
-1.67711e-06
-1.92121e-06
1.26444e-05
1.53344e-05
-6.43356e-09
1.5336e-05
-1.60947e-08
1.53361e-05
-2.00369e-08
1.5335e-05
-2.30488e-08
1.53331e-05
-2.64068e-08
1.53302e-05
-2.99086e-08
1.53261e-05
-3.35755e-08
1.53208e-05
-3.76933e-08
1.53141e-05
-4.25231e-08
1.53057e-05
-4.83271e-08
1.52952e-05
-5.53897e-08
1.52821e-05
-6.40887e-08
1.52659e-05
-7.47953e-08
1.52458e-05
-8.79681e-08
1.52208e-05
-1.04144e-07
1.51899e-05
-1.23948e-07
1.51516e-05
-1.48119e-07
1.51045e-05
-1.77547e-07
1.50464e-05
-2.13297e-07
1.4975e-05
-2.56638e-07
1.48875e-05
-3.09071e-07
1.47805e-05
-3.72364e-07
1.46499e-05
-4.48576e-07
1.44911e-05
-5.40218e-07
1.42987e-05
-6.49426e-07
1.40663e-05
-7.77555e-07
1.37869e-05
-9.26157e-07
1.34518e-05
-1.09252e-06
1.3058e-05
-1.28325e-06
-1.45985e-06
1.25966e-05
1.53355e-05
-8.56315e-09
1.53377e-05
-1.83191e-08
1.53377e-05
-2.00864e-08
1.53369e-05
-2.21715e-08
1.53349e-05
-2.44979e-08
1.53319e-05
-2.68638e-08
1.53277e-05
-2.93433e-08
1.53222e-05
-3.21896e-08
1.53152e-05
-3.55412e-08
1.53064e-05
-3.95861e-08
1.52955e-05
-4.44837e-08
1.5282e-05
-5.05562e-08
1.52652e-05
-5.79976e-08
1.52444e-05
-6.71213e-08
1.52185e-05
-7.82985e-08
1.51865e-05
-9.19576e-08
1.5147e-05
-1.08605e-07
1.50983e-05
-1.28847e-07
1.50384e-05
-1.53415e-07
1.4965e-05
-1.83182e-07
1.48751e-05
-2.19182e-07
1.47653e-05
-2.62632e-07
1.46317e-05
-3.14963e-07
1.44699e-05
-3.78378e-07
1.42746e-05
-4.54102e-07
1.40393e-05
-5.42326e-07
1.37574e-05
-6.4423e-07
1.34205e-05
-7.55588e-07
1.30264e-05
-8.89202e-07
-9.91336e-07
1.25579e-05
1.53392e-05
-1.43959e-08
1.53413e-05
-2.04069e-08
1.53409e-05
-1.974e-08
1.53395e-05
-2.07962e-08
1.53371e-05
-2.21065e-08
1.53336e-05
-2.33407e-08
1.53289e-05
-2.46005e-08
1.53227e-05
-2.60648e-08
1.5315e-05
-2.77896e-08
1.53053e-05
-2.98822e-08
1.52932e-05
-3.2408e-08
1.52782e-05
-3.55738e-08
1.52597e-05
-3.94603e-08
1.52368e-05
-4.42441e-08
1.52086e-05
-5.01269e-08
1.5174e-05
-5.73405e-08
1.51316e-05
-6.61617e-08
1.50797e-05
-7.69256e-08
1.50163e-05
-9.00364e-08
1.49391e-05
-1.05976e-07
1.48452e-05
-1.2531e-07
1.47313e-05
-1.48692e-07
1.45931e-05
-1.76833e-07
1.44246e-05
-2.09883e-07
1.42192e-05
-2.487e-07
1.39714e-05
-2.94464e-07
1.36743e-05
-3.47175e-07
1.33241e-05
-4.05323e-07
1.29095e-05
-4.74594e-07
-4.68769e-07
1.23869e-05
1.53189e-05
1.52985e-05
1.52788e-05
1.5258e-05
1.52359e-05
1.52125e-05
1.51879e-05
1.51619e-05
1.51341e-05
1.51042e-05
1.50718e-05
1.50362e-05
1.49968e-05
1.49525e-05
1.49024e-05
1.48451e-05
1.47789e-05
1.4702e-05
1.46119e-05
1.4506e-05
1.43806e-05
1.4232e-05
1.40551e-05
1.38452e-05
1.35965e-05
1.33021e-05
1.29549e-05
1.25496e-05
1.2075e-05
1.16062e-05
1.82736e-05
-8.53775e-06
8.76915e-06
1.80617e-05
-8.71853e-06
8.93046e-06
1.78062e-05
-8.89605e-06
9.15153e-06
1.75111e-05
-9.06214e-06
9.35723e-06
1.71839e-05
-9.22772e-06
9.55491e-06
1.68322e-05
-9.39848e-06
9.7502e-06
1.64605e-05
-9.57637e-06
9.94801e-06
1.60717e-05
-9.76253e-06
1.01513e-05
1.56672e-05
-9.95794e-06
1.03625e-05
1.52472e-05
-1.01632e-05
1.05831e-05
1.48113e-05
-1.03784e-05
1.08144e-05
1.43582e-05
-1.06042e-05
1.10572e-05
1.38871e-05
-1.0841e-05
1.13121e-05
1.33967e-05
-1.109e-05
1.15804e-05
1.28861e-05
-1.13528e-05
1.18634e-05
1.23539e-05
-1.16311e-05
1.21632e-05
1.17988e-05
-1.19273e-05
1.24824e-05
1.12188e-05
-1.22441e-05
1.28241e-05
1.06116e-05
-1.25848e-05
1.3192e-05
9.97419e-06
-1.29535e-05
1.3591e-05
9.30254e-06
-1.33552e-05
1.40268e-05
8.59164e-06
-1.3796e-05
1.45069e-05
7.83491e-06
-1.42836e-05
1.50403e-05
7.02377e-06
-1.48281e-05
1.56392e-05
6.14594e-06
-1.54405e-05
1.63183e-05
5.18774e-06
-1.61391e-05
1.70973e-05
4.13223e-06
-1.69375e-05
1.7993e-05
2.89687e-06
-1.78971e-05
1.91325e-05
1.63524e-06
-1.88567e-05
2.01183e-05
-2.05543e-05
2.21895e-05
1.84709e-05
-8.28002e-06
1.81701e-05
-8.4177e-06
1.78371e-05
-8.5631e-06
1.74853e-05
-8.71028e-06
1.71203e-05
-8.86275e-06
1.67447e-05
-9.02285e-06
1.6359e-05
-9.1907e-06
1.59626e-05
-9.36612e-06
1.5554e-05
-9.54932e-06
1.51314e-05
-9.74063e-06
1.46934e-05
-9.94045e-06
1.42387e-05
-1.01495e-05
1.37664e-05
-1.03686e-05
1.32754e-05
-1.0599e-05
1.27648e-05
-1.08422e-05
1.22335e-05
-1.10998e-05
1.16799e-05
-1.13736e-05
1.11019e-05
-1.16661e-05
1.04971e-05
-1.198e-05
9.86234e-06
-1.23188e-05
9.19375e-06
-1.26866e-05
8.48624e-06
-1.30885e-05
7.73334e-06
-1.35307e-05
6.92655e-06
-1.40213e-05
6.05485e-06
-1.45688e-05
5.10402e-06
-1.51883e-05
4.05398e-06
-1.58874e-05
2.86669e-06
-1.67098e-05
1.58132e-06
-1.75713e-05
-1.8973e-05
1.83551e-05
-7.97021e-06
1.80274e-05
-8.09006e-06
1.76848e-05
-8.22046e-06
1.73329e-05
-8.35833e-06
1.69726e-05
-8.50245e-06
1.66023e-05
-8.65256e-06
1.62203e-05
-8.80869e-06
1.58252e-05
-8.97107e-06
1.54161e-05
-9.14017e-06
1.4992e-05
-9.31654e-06
1.45524e-05
-9.50083e-06
1.40967e-05
-9.69377e-06
1.36243e-05
-9.89619e-06
1.31343e-05
-1.01091e-05
1.26257e-05
-1.03336e-05
1.20969e-05
-1.0571e-05
1.15464e-05
-1.08231e-05
1.0972e-05
-1.10917e-05
1.03712e-05
-1.13792e-05
9.74079e-06
-1.16884e-05
9.0768e-06
-1.20226e-05
8.3742e-06
-1.23859e-05
7.62661e-06
-1.27831e-05
6.82577e-06
-1.32204e-05
5.96112e-06
-1.37041e-05
5.01877e-06
-1.42459e-05
3.98036e-06
-1.4849e-05
2.81893e-06
-1.55484e-05
1.53265e-06
-1.62851e-05
-1.74403e-05
1.82384e-05
-7.64747e-06
1.7905e-05
-7.75664e-06
1.75599e-05
-7.87531e-06
1.72045e-05
-8.00298e-06
1.68389e-05
-8.13687e-06
1.6462e-05
-8.27563e-06
1.60729e-05
-8.41958e-06
1.56712e-05
-8.56938e-06
1.52566e-05
-8.72554e-06
1.48285e-05
-8.88849e-06
1.43864e-05
-9.05872e-06
1.39295e-05
-9.23682e-06
1.34567e-05
-9.42347e-06
1.29672e-05
-9.6195e-06
1.24594e-05
-9.82587e-06
1.19322e-05
-1.00438e-05
1.13835e-05
-1.02745e-05
1.08115e-05
-1.05197e-05
1.02135e-05
-1.07812e-05
9.58643e-06
-1.10613e-05
8.92625e-06
-1.13624e-05
8.22809e-06
-1.16878e-05
7.48578e-06
-1.20408e-05
6.69146e-06
-1.24261e-05
5.83517e-06
-1.28478e-05
4.90402e-06
-1.33148e-05
3.88135e-06
-1.38264e-05
2.74546e-06
-1.44125e-05
1.4787e-06
-1.50183e-05
-1.59616e-05
1.80871e-05
-7.31485e-06
1.77452e-05
-7.4148e-06
1.7393e-05
-7.52304e-06
1.70308e-05
-7.64086e-06
1.66589e-05
-7.76497e-06
1.62766e-05
-7.89331e-06
1.58833e-05
-8.02623e-06
1.54784e-05
-8.16451e-06
1.50615e-05
-8.30861e-06
1.46318e-05
-8.4588e-06
1.41885e-05
-8.61549e-06
1.37309e-05
-8.77919e-06
1.3258e-05
-8.95053e-06
1.27687e-05
-9.1302e-06
1.22618e-05
-9.319e-06
1.17359e-05
-9.51787e-06
1.11893e-05
-9.72786e-06
1.06198e-05
-9.95021e-06
1.00249e-05
-1.01863e-05
9.40146e-06
-1.04379e-05
8.74568e-06
-1.07067e-05
8.05281e-06
-1.09949e-05
7.31698e-06
-1.1305e-05
6.5308e-06
-1.164e-05
5.68504e-06
-1.20021e-05
4.7679e-06
-1.23976e-05
3.76444e-06
-1.28229e-05
2.65554e-06
-1.33036e-05
1.4192e-06
-1.3782e-05
-1.45424e-05
1.79026e-05
-6.97415e-06
1.75536e-05
-7.06584e-06
1.71954e-05
-7.16477e-06
1.6828e-05
-7.27345e-06
1.64512e-05
-7.38825e-06
1.60646e-05
-7.50669e-06
1.56675e-05
-7.62909e-06
1.52593e-05
-7.75632e-06
1.48395e-05
-7.8888e-06
1.44074e-05
-8.02674e-06
1.39624e-05
-8.17046e-06
1.35036e-05
-8.32041e-06
1.30302e-05
-8.47709e-06
1.2541e-05
-8.64105e-06
1.20349e-05
-8.8129e-06
1.15104e-05
-8.99334e-06
1.09657e-05
-9.18317e-06
1.03988e-05
-9.38327e-06
9.80709e-06
-9.59465e-06
9.18764e-06
-9.81841e-06
8.53676e-06
-1.00558e-05
7.84996e-06
-1.03081e-05
7.12174e-06
-1.05767e-05
6.34528e-06
-1.08635e-05
5.51216e-06
-1.11689e-05
4.61173e-06
-1.14972e-05
3.63071e-06
-1.18419e-05
2.55243e-06
-1.22253e-05
1.35503e-06
-1.25846e-05
-1.31874e-05
1.76844e-05
-6.62624e-06
1.73289e-05
-6.71041e-06
1.6965e-05
-6.80083e-06
1.65924e-05
-6.90088e-06
1.6211e-05
-7.00677e-06
1.58201e-05
-7.11579e-06
1.54192e-05
-7.22822e-06
1.50078e-05
-7.34497e-06
1.45855e-05
-7.46644e-06
1.41515e-05
-7.59274e-06
1.37051e-05
-7.72412e-06
1.32456e-05
-7.86092e-06
1.27721e-05
-8.00352e-06
1.22834e-05
-8.15233e-06
1.17783e-05
-8.3078e-06
1.12553e-05
-8.47042e-06
1.07129e-05
-8.64072e-06
1.01489e-05
-8.81927e-06
9.56092e-06
-9.0067e-06
8.94615e-06
-9.20363e-06
8.30109e-06
-9.41071e-06
7.62156e-06
-9.62858e-06
6.90249e-06
-9.85768e-06
6.13766e-06
-1.00987e-05
5.31953e-06
-1.03508e-05
4.43861e-06
-1.06163e-05
3.48335e-06
-1.08866e-05
2.43931e-06
-1.11813e-05
1.28664e-06
-1.14319e-05
-1.19008e-05
1.74326e-05
-6.27183e-06
1.70713e-05
-6.3491e-06
1.67021e-05
-6.43168e-06
1.63249e-05
-6.52361e-06
1.59391e-05
-6.62104e-06
1.55445e-05
-6.72113e-06
1.51404e-05
-6.82413e-06
1.47264e-05
-6.93096e-06
1.43019e-05
-7.04195e-06
1.38663e-05
-7.15717e-06
1.34189e-05
-7.27674e-06
1.2959e-05
-7.40094e-06
1.24855e-05
-7.53004e-06
1.19975e-05
-7.66431e-06
1.14937e-05
-7.80402e-06
1.09727e-05
-7.94948e-06
1.0433e-05
-8.10098e-06
9.87254e-06
-8.25881e-06
9.28906e-06
-8.42322e-06
8.67988e-06
-8.59445e-06
8.04176e-06
-8.7726e-06
7.37089e-06
-8.9577e-06
6.66265e-06
-9.14944e-06
5.91147e-06
-9.34748e-06
5.1107e-06
-9.55005e-06
4.25201e-06
-9.7576e-06
3.32566e-06
-9.96026e-06
2.31921e-06
-1.01748e-05
1.216e-06
-1.03287e-05
-1.06848e-05
1.71481e-05
-5.91154e-06
1.67815e-05
-5.98249e-06
1.64077e-05
-6.05788e-06
1.60262e-05
-6.14217e-06
1.56367e-05
-6.23158e-06
1.52388e-05
-6.32322e-06
1.4832e-05
-6.4173e-06
1.44158e-05
-6.51472e-06
1.39896e-05
-6.61577e-06
1.35528e-05
-6.72043e-06
1.31049e-05
-6.82877e-06
1.26449e-05
-6.94095e-06
1.2172e-05
-7.05715e-06
1.16852e-05
-7.1775e-06
1.11833e-05
-7.30214e-06
1.0665e-05
-7.43117e-06
1.01287e-05
-7.56468e-06
9.5726e-06
-7.7027e-06
8.99457e-06
-7.84519e-06
8.39211e-06
-7.99199e-06
7.76229e-06
-8.14278e-06
7.10163e-06
-8.29704e-06
6.40604e-06
-8.45385e-06
5.67059e-06
-8.61203e-06
4.88954e-06
-8.769e-06
4.05571e-06
-8.92376e-06
3.1611e-06
-9.06566e-06
2.19512e-06
-9.20882e-06
1.14488e-06
-9.27845e-06
-9.53988e-06
1.68327e-05
-5.54606e-06
1.64614e-05
-5.61123e-06
1.60836e-05
-5.68005e-06
1.56986e-05
-5.75716e-06
1.5306e-05
-5.83897e-06
1.49054e-05
-5.92264e-06
1.44964e-05
-6.00831e-06
1.40785e-05
-6.09684e-06
1.36512e-05
-6.18847e-06
1.32139e-05
-6.28313e-06
1.27659e-05
-6.38079e-06
1.23065e-05
-6.48155e-06
1.18348e-05
-6.58547e-06
1.13499e-05
-6.69258e-06
1.08506e-05
-6.80287e-06
1.03358e-05
-6.91629e-06
9.8038e-06
-7.03272e-06
9.25307e-06
-7.15198e-06
8.68162e-06
-7.27374e-06
8.08718e-06
-7.39755e-06