/*--------------------------------*- C++ -*----------------------------------*\
  =========                 |
  \\      /  F ield         | OpenFOAM: The Open Source CFD Toolbox
   \\    /   O peration     | Website:  https://openfoam.org
    \\  /    A nd           | Version:  11
     \\/     M anipulation  |
\*---------------------------------------------------------------------------*/
FoamFile
{
    format      ascii;
    class       surfaceScalarField;
    location    "1.5";
    object      phi;
}
// * * * * * * * * * * * * * * * * * * * * * * * * * * * * * * * * * * * * * //

dimensions      [0 3 -1 0 0 0 0];

internalField   nonuniform List<scalar> 
24840
(
1.57973e-05
1.37039e-08
1.57787e-05
1.85728e-08
1.57613e-05
1.73456e-08
1.57441e-05
1.71947e-08
1.57267e-05
1.7468e-08
1.57092e-05
1.7528e-08
1.56917e-05
1.74584e-08
1.56743e-05
1.73455e-08
1.56572e-05
1.71861e-08
1.56402e-05
1.69633e-08
1.56235e-05
1.66676e-08
1.56072e-05
1.62888e-08
1.55914e-05
1.58076e-08
1.55762e-05
1.52028e-08
1.55618e-05
1.44592e-08
1.55483e-05
1.35215e-08
1.55358e-05
1.24214e-08
1.55248e-05
1.1066e-08
1.55154e-05
9.35938e-09
1.55082e-05
7.20303e-09
1.55036e-05
4.5901e-09
1.55022e-05
1.39174e-09
1.55048e-05
-2.60847e-09
1.55124e-05
-7.58904e-09
1.55262e-05
-1.381e-08
1.55476e-05
-2.13224e-08
1.55788e-05
-3.12952e-08
1.56223e-05
-4.34467e-08
1.56875e-05
-6.51767e-08
-1.3341e-07
1.58209e-05
1.5817e-05
7.67896e-09
1.58206e-05
1.49428e-08
1.58232e-05
1.47273e-08
1.58255e-05
1.49264e-08
1.58276e-05
1.53331e-08
1.58298e-05
1.54199e-08
1.58319e-05
1.53086e-08
1.58341e-05
1.51074e-08
1.58365e-05
1.48033e-08
1.58391e-05
1.43722e-08
1.5842e-05
1.38003e-08
1.58452e-05
1.30676e-08
1.58489e-05
1.21348e-08
1.58531e-05
1.0967e-08
1.5858e-05
9.54104e-09
1.58638e-05
7.74175e-09
1.58706e-05
5.64791e-09
1.58786e-05
3.05956e-09
1.58881e-05
-1.25635e-10
1.58994e-05
-4.1454e-09
1.5913e-05
-8.982e-09
1.59293e-05
-1.49284e-08
1.5949e-05
-2.22697e-08
1.59727e-05
-3.13415e-08
1.60014e-05
-4.24333e-08
1.60364e-05
-5.64177e-08
1.60781e-05
-7.29756e-08
1.6132e-05
-9.72731e-08
1.61902e-05
-1.23398e-07
-1.53904e-07
1.62107e-05
1.58136e-05
5.01948e-09
1.5817e-05
1.15942e-08
1.58191e-05
1.26407e-08
1.58213e-05
1.2725e-08
1.58235e-05
1.31147e-08
1.58257e-05
1.32502e-08
1.58279e-05
1.30988e-08
1.58302e-05
1.28062e-08
1.58326e-05
1.23791e-08
1.58352e-05
1.17794e-08
1.5838e-05
1.09774e-08
1.58411e-05
9.93534e-09
1.58447e-05
8.5884e-09
1.58488e-05
6.89198e-09
1.58535e-05
4.82951e-09
1.5859e-05
2.21159e-09
1.58655e-05
-8.43233e-10
1.58731e-05
-4.59396e-09
1.58822e-05
-9.20313e-09
1.5893e-05
-1.4888e-08
1.59058e-05
-2.18199e-08
1.59212e-05
-3.03421e-08
1.59398e-05
-4.08545e-08
1.59623e-05
-5.38454e-08
1.59897e-05
-6.98369e-08
1.6023e-05
-8.97436e-08
1.60641e-05
-1.14077e-07
1.61116e-05
-1.44696e-07
1.617e-05
-1.81889e-07
-2.11073e-07
1.62272e-05
1.58125e-05
3.48205e-09
1.58153e-05
8.83113e-09
1.58173e-05
1.05852e-08
1.58192e-05
1.08026e-08
1.58213e-05
1.10559e-08
1.58234e-05
1.11516e-08
1.58255e-05
1.09616e-08
1.58278e-05
1.05765e-08
1.58301e-05
1.00236e-08
1.58327e-05
9.25176e-09
1.58354e-05
8.22347e-09
1.58385e-05
6.87212e-09
1.58419e-05
5.11631e-09
1.58459e-05
2.90953e-09
1.58505e-05
2.68927e-10
1.58558e-05
-3.14666e-09
1.58621e-05
-7.13863e-09
1.58696e-05
-1.20166e-08
1.58783e-05
-1.79775e-08
1.58887e-05
-2.52832e-08
1.59011e-05
-3.42312e-08
1.5916e-05
-4.52351e-08
1.5934e-05
-5.88061e-08
1.59557e-05
-7.55678e-08
1.59821e-05
-9.62374e-08
1.60142e-05
-1.21789e-07
1.60532e-05
-1.53149e-07
1.60997e-05
-1.91193e-07
1.61569e-05
-2.39033e-07
-2.78853e-07
1.62246e-05
1.58119e-05
2.53598e-09
1.5814e-05
6.77597e-09
1.58159e-05
8.68455e-09
1.58176e-05
9.04839e-09
1.58195e-05
9.14242e-09
1.58216e-05
9.13105e-09
1.58236e-05
8.88358e-09
1.58258e-05
8.40775e-09
1.58281e-05
7.72843e-09
1.58306e-05
6.79106e-09
1.58332e-05
5.54227e-09
1.58362e-05
3.89773e-09
1.58396e-05
1.74254e-09
1.58434e-05
-9.32273e-10
1.58479e-05
-4.20738e-09
1.58531e-05
-8.29518e-09
1.58591e-05
-1.3192e-08
1.58662e-05
-1.91333e-08
1.58746e-05
-2.63771e-08
1.58846e-05
-3.52396e-08
1.58965e-05
-4.61057e-08
1.59107e-05
-5.94698e-08
1.59278e-05
-7.5949e-08
1.59486e-05
-9.62964e-08
1.59737e-05
-1.21401e-07
1.60043e-05
-1.52341e-07
1.60415e-05
-1.90357e-07
1.60865e-05
-2.36185e-07
1.61413e-05
-2.93892e-07
-3.4791e-07
1.62104e-05
1.58116e-05
1.91083e-09
1.58132e-05
5.21607e-09
1.58149e-05
6.96529e-09
1.58165e-05
7.38e-09
1.58183e-05
7.35121e-09
1.58203e-05
7.20568e-09
1.58223e-05
6.87166e-09
1.58244e-05
6.30399e-09
1.58266e-05
5.49965e-09
1.5829e-05
4.40392e-09
1.58316e-05
2.93245e-09
1.58345e-05
1.02625e-09
1.58377e-05
-1.48955e-09
1.58414e-05
-4.61892e-09
1.58457e-05
-8.4744e-09
1.58506e-05
-1.32163e-08
1.58563e-05
-1.8949e-08
1.58631e-05
-2.58915e-08
1.58711e-05
-3.43404e-08
1.58805e-05
-4.46634e-08
1.58917e-05
-5.73191e-08
1.59051e-05
-7.28861e-08
1.59212e-05
-9.20817e-08
1.59407e-05
-1.15778e-07
1.59643e-05
-1.45017e-07
1.5993e-05
-1.8103e-07
1.6028e-05
-2.25336e-07
1.60707e-05
-2.78904e-07
1.61231e-05
-3.46258e-07
-4.15022e-07
1.61902e-05
1.58114e-05
1.46171e-09
1.58126e-05
3.99937e-09
1.58141e-05
5.4509e-09
1.58157e-05
5.81818e-09
1.58174e-05
5.68092e-09
1.58192e-05
5.39161e-09
1.58211e-05
4.94752e-09
1.58231e-05
4.28221e-09
1.58253e-05
3.35953e-09
1.58276e-05
2.11589e-09
1.58301e-05
4.3344e-10
1.58328e-05
-1.73707e-09
1.58359e-05
-4.57703e-09
1.58394e-05
-8.13045e-09
1.58435e-05
-1.25101e-08
1.58481e-05
-1.78702e-08
1.58535e-05
-2.43662e-08
1.58599e-05
-3.223e-08
1.58673e-05
-4.17879e-08
1.58761e-05
-5.3457e-08
1.58866e-05
-6.77616e-08
1.5899e-05
-8.53573e-08
1.5914e-05
-1.07054e-07
1.59321e-05
-1.33835e-07
1.59539e-05
-1.66888e-07
1.59805e-05
-2.07609e-07
1.60129e-05
-2.57762e-07
1.60528e-05
-3.18728e-07
1.61017e-05
-3.95183e-07
-4.78217e-07
1.61649e-05
1.58113e-05
1.11711e-09
1.58123e-05
3.0232e-09
1.58136e-05
4.12759e-09
1.58151e-05
4.36738e-09
1.58166e-05
4.11251e-09
1.58183e-05
3.67868e-09
1.58202e-05
3.11149e-09
1.58221e-05
2.34269e-09
1.58242e-05
1.30447e-09
1.58264e-05
-8.49272e-11
1.58288e-05
-1.94458e-09
1.58314e-05
-4.3678e-09
1.58343e-05
-7.50142e-09
1.58376e-05
-1.14387e-08
1.58414e-05
-1.62921e-08
1.58457e-05
-2.22179e-08
1.58508e-05
-2.94018e-08
1.58566e-05
-3.80979e-08
1.58635e-05
-4.86592e-08
1.58716e-05
-6.15447e-08
1.58812e-05
-7.73352e-08
1.58926e-05
-9.67567e-08
1.59062e-05
-1.20703e-07
1.59227e-05
-1.50262e-07
1.59425e-05
-1.86751e-07
1.59667e-05
-2.31741e-07
1.59961e-05
-2.87226e-07
1.60324e-05
-3.55049e-07
1.60772e-05
-4.39938e-07
-5.36401e-07
1.61354e-05
1.58112e-05
8.39213e-10
1.58121e-05
2.2159e-09
1.58132e-05
2.96637e-09
1.58146e-05
3.0261e-09
1.5816e-05
2.63801e-09
1.58176e-05
2.06312e-09
1.58194e-05
1.36969e-09
1.58212e-05
4.94885e-10
1.58232e-05
-6.52378e-10
1.58253e-05
-2.17481e-09
1.58275e-05
-4.19842e-09
1.583e-05
-6.8437e-09
1.58328e-05
-1.02452e-08
1.58358e-05
-1.45212e-08
1.58393e-05
-1.97931e-08
1.58433e-05
-2.62225e-08
1.5848e-05
-3.40145e-08
1.58533e-05
-4.34451e-08
1.58595e-05
-5.48915e-08
1.58668e-05
-6.88489e-08
1.58755e-05
-8.59475e-08
1.58857e-05
-1.06974e-07
1.58979e-05
-1.32896e-07
1.59125e-05
-1.64894e-07
1.59301e-05
-2.04404e-07
1.59516e-05
-2.53159e-07
1.59777e-05
-3.13364e-07
1.601e-05
-3.87323e-07
1.60498e-05
-4.79739e-07
-5.88486e-07
1.61019e-05
1.58112e-05
6.05966e-10
1.58119e-05
1.52857e-09
1.58129e-05
1.93752e-09
1.58142e-05
1.78844e-09
1.58155e-05
1.25319e-09
1.58171e-05
5.41067e-10
1.58187e-05
-2.76302e-10
1.58205e-05
-1.25667e-09
1.58223e-05
-2.50696e-09
1.58243e-05
-4.14931e-09
1.58264e-05
-6.32039e-09
1.58287e-05
-9.15627e-09
1.58313e-05
-1.27932e-08
1.58341e-05
-1.73613e-08
1.58373e-05
-2.29934e-08
1.58409e-05
-2.98571e-08
1.58451e-05
-3.81716e-08
1.58499e-05
-4.82314e-08
1.58554e-05
-6.04353e-08
1.58619e-05
-7.53087e-08
1.58695e-05
-9.35222e-08
1.58784e-05
-1.15913e-07
1.5889e-05
-1.43512e-07
1.59017e-05
-1.77576e-07
1.59169e-05
-2.19645e-07
1.59354e-05
-2.71594e-07
1.59578e-05
-3.35813e-07
1.59855e-05
-4.15028e-07
1.60197e-05
-5.13898e-07
-6.33512e-07
1.60647e-05
1.58112e-05
4.03402e-10
1.58118e-05
9.27983e-10
1.58127e-05
1.01465e-09
1.58138e-05
6.44343e-10
1.58151e-05
-4.68824e-11
1.58166e-05
-8.91743e-10
1.58181e-05
-1.8271e-09
1.58198e-05
-2.90896e-09
1.58215e-05
-4.25459e-09
1.58234e-05
-6.00229e-09
1.58254e-05
-8.30036e-09
1.58275e-05
-1.1296e-08
1.58298e-05
-1.51309e-08
1.58324e-05
-1.99425e-08
1.58353e-05
-2.58728e-08
1.58385e-05
-3.30961e-08
1.58422e-05
-4.1842e-08
1.58464e-05
-5.24194e-08
1.58512e-05
-6.52451e-08
1.58568e-05
-8.08682e-08
1.58632e-05
-9.99912e-08
1.58708e-05
-1.23491e-07
1.58797e-05
-1.52448e-07
1.58903e-05
-1.88181e-07
1.5903e-05
-2.3231e-07
1.59182e-05
-2.86827e-07
1.59367e-05
-3.54272e-07
1.59594e-05
-4.37734e-07
1.59873e-05
-5.41785e-07
-6.705e-07
1.60243e-05
1.58111e-05
2.21232e-10
1.58117e-05
3.91274e-10
1.58125e-05
1.7613e-10
1.58136e-05
-4.17221e-10
1.58148e-05
-1.26784e-09
1.58162e-05
-2.24011e-09
1.58176e-05
-3.28501e-09
1.58192e-05
-4.46073e-09
1.58208e-05
-5.89182e-09
1.58225e-05
-7.72915e-09
1.58244e-05
-1.01317e-08
1.58263e-05
-1.32555e-08
1.58284e-05
-1.72481e-08
1.58307e-05
-2.2252e-08
1.58333e-05
-2.84161e-08
1.58361e-05
-3.59206e-08
1.58393e-05
-4.50024e-08
1.58428e-05
-5.59809e-08
1.58469e-05
-6.92863e-08
1.58515e-05
-8.54853e-08
1.58568e-05
-1.05303e-07
1.5863e-05
-1.29645e-07
1.58701e-05
-1.59625e-07
1.58786e-05
-1.96607e-07
1.58885e-05
-2.42266e-07
1.59004e-05
-2.98677e-07
1.59146e-05
-3.68488e-07
1.59319e-05
-4.55069e-07
1.5953e-05
-5.62874e-07
-6.98596e-07
1.59811e-05
1.58111e-05
5.10619e-11
1.58116e-05
-9.85068e-11
1.58124e-05
-5.95707e-10
1.58134e-05
-1.40689e-09
1.58145e-05
-2.41554e-09
1.58158e-05
-3.50911e-09
1.58172e-05
-4.65374e-09
1.58186e-05
-5.91299e-09
1.58202e-05
-7.41732e-09
1.58217e-05
-9.32708e-09
1.58234e-05
-1.18101e-08
1.58252e-05
-1.50293e-08
1.58271e-05
-1.91369e-08
1.58291e-05
-2.42794e-08
1.58313e-05
-3.06107e-08
1.58337e-05
-3.8315e-08
1.58363e-05
-4.76339e-08
1.58393e-05
-5.88934e-08
1.58425e-05
-7.25321e-08
1.58461e-05
-8.91273e-08
1.58503e-05
-1.09418e-07
1.58549e-05
-1.34325e-07
1.58603e-05
-1.64984e-07
1.58665e-05
-2.02778e-07
1.58736e-05
-2.49416e-07
1.5882e-05
-3.07015e-07
1.58917e-05
-3.78277e-07
1.59034e-05
-4.66761e-07
1.59173e-05
-5.76751e-07
-7.17075e-07
1.59358e-05
1.58111e-05
-1.11434e-10
1.58116e-05
-5.52603e-10
1.58123e-05
-1.31783e-09
1.58132e-05
-2.33789e-09
1.58143e-05
-3.4978e-09
1.58155e-05
-4.70358e-09
1.58168e-05
-5.93687e-09
1.58182e-05
-7.2679e-09
1.58196e-05
-8.83154e-09
1.5821e-05
-1.07948e-08
1.58226e-05
-1.33325e-08
1.58241e-05
-1.66128e-08
1.58258e-05
-2.07916e-08
1.58275e-05
-2.60179e-08
1.58294e-05
-3.24482e-08
1.58313e-05
-4.02693e-08
1.58334e-05
-4.97245e-08
1.58357e-05
-6.11425e-08
1.58381e-05
-7.49653e-08
1.58407e-05
-9.1774e-08
1.58436e-05
-1.12311e-07
1.58468e-05
-1.37504e-07
1.58503e-05
-1.68489e-07
1.58542e-05
-2.06653e-07
1.58585e-05
-2.53706e-07
1.58632e-05
-3.11769e-07
1.58685e-05
-3.83539e-07
1.58744e-05
-4.72654e-07
1.58808e-05
-5.83172e-07
-7.2544e-07
1.58892e-05
1.58111e-05
-2.65146e-10
1.58116e-05
-9.85645e-10
1.58122e-05
-2.00618e-09
1.58131e-05
-3.22325e-09
1.58142e-05
-4.52309e-09
1.58153e-05
-5.82912e-09
1.58165e-05
-7.13858e-09
1.58177e-05
-8.52823e-09
1.5819e-05
-1.01356e-08
1.58204e-05
-1.21318e-08
1.58217e-05
-1.46972e-08
1.58231e-05
-1.80038e-08
1.58246e-05
-2.22094e-08
1.5826e-05
-2.74641e-08
1.58275e-05
-3.39248e-08
1.5829e-05
-4.17785e-08
1.58305e-05
-5.12679e-08
1.58321e-05
-6.27209e-08
1.58337e-05
-7.65775e-08
1.58354e-05
-9.34157e-08
1.5837e-05
-1.13974e-07
1.58387e-05
-1.3917e-07
1.58403e-05
-1.70129e-07
1.58419e-05
-2.08221e-07
1.58433e-05
-2.55124e-07
1.58445e-05
-3.12924e-07
1.58452e-05
-3.84252e-07
1.58452e-05
-4.72705e-07
1.58441e-05
-5.82057e-07
-7.23468e-07
1.58421e-05
1.58111e-05
-4.11905e-10
1.58115e-05
-1.41139e-09
1.58122e-05
-2.67442e-09
1.58131e-05
-4.07469e-09
1.5814e-05
-5.50016e-09
1.58151e-05
-6.89227e-09
1.58162e-05
-8.26387e-09
1.58174e-05
-9.69726e-09
1.58186e-05
-1.13311e-08
1.58198e-05
-1.33391e-08
1.5821e-05
-1.59052e-08
1.58222e-05
-1.92033e-08
1.58234e-05
-2.33913e-08
1.58245e-05
-2.86182e-08
1.58257e-05
-3.50402e-08
1.58267e-05
-4.2842e-08
1.58277e-05
-5.22638e-08
1.58286e-05
-6.36284e-08
1.58294e-05
-7.73692e-08
1.58301e-05
-9.40546e-08
1.58305e-05
-1.14409e-07
1.58306e-05
-1.39331e-07
1.58304e-05
-1.69919e-07
1.58297e-05
-2.07502e-07
1.58283e-05
-2.53703e-07
1.58259e-05
-3.10526e-07
1.58221e-05
-3.80482e-07
1.58164e-05
-4.67011e-07
1.58079e-05
-5.73535e-07
-7.11269e-07
1.57957e-05
1.58111e-05
-5.57642e-10
1.58115e-05
-1.83889e-09
1.58122e-05
-3.33623e-09
1.5813e-05
-4.90496e-09
1.5814e-05
-6.43863e-09
1.5815e-05
-7.90016e-09
1.5816e-05
-9.31837e-09
1.58171e-05
-1.07794e-08
1.58182e-05
-1.24215e-08
1.58193e-05
-1.44198e-08
1.58203e-05
-1.69594e-08
1.58214e-05
-2.02141e-08
1.58223e-05
-2.43397e-08
1.58232e-05
-2.94831e-08
1.58239e-05
-3.57975e-08
1.58245e-05
-4.34641e-08
1.5825e-05
-5.27175e-08
1.58252e-05
-6.38723e-08
1.58252e-05
-7.73504e-08
1.58249e-05
-9.37041e-08
1.58241e-05
-1.13635e-07
1.58228e-05
-1.38013e-07
1.58208e-05
-1.67893e-07
1.58178e-05
-2.04547e-07
1.58136e-05
-2.49515e-07
1.58078e-05
-3.04682e-07
1.57997e-05
-3.72384e-07
1.57885e-05
-4.55795e-07
1.57729e-05
-5.57931e-07
-6.89312e-07
1.57509e-05
1.58111e-05
-7.07601e-10
1.58116e-05
-2.27915e-09
1.58122e-05
-4.00674e-09
1.5813e-05
-5.72739e-09
1.5814e-05
-7.34827e-09
1.58149e-05
-8.86051e-09
1.58159e-05
-1.03089e-08
1.58169e-05
-1.17806e-08
1.58179e-05
-1.34118e-08
1.58189e-05
-1.53779e-08
1.58198e-05
-1.78638e-08
1.58206e-05
-2.10404e-08
1.58213e-05
-2.50596e-08
1.58219e-05
-3.00645e-08
1.58223e-05
-3.6204e-08
1.58225e-05
-4.36538e-08
1.58224e-05
-5.26404e-08
1.5822e-05
-6.34673e-08
1.58212e-05
-7.65401e-08
1.58199e-05
-9.23891e-08
1.58179e-05
-1.11686e-07
1.58152e-05
-1.3526e-07
1.58114e-05
-1.64112e-07
1.58063e-05
-1.99438e-07
1.57994e-05
-2.42672e-07
1.57903e-05
-2.9555e-07
1.57781e-05
-3.60187e-07
1.57617e-05
-4.39402e-07
1.57396e-05
-5.35765e-07
-6.58418e-07
1.57087e-05
1.58111e-05
-8.67222e-10
1.58116e-05
-2.74632e-09
1.58123e-05
-4.70305e-09
1.58131e-05
-6.556e-09
1.5814e-05
-8.23919e-09
1.58149e-05
-9.78175e-09
1.58159e-05
-1.12432e-08
1.58168e-05
-1.27073e-08
1.58177e-05
-1.43074e-08
1.58185e-05
-1.62188e-08
1.58193e-05
-1.86241e-08
1.58199e-05
-2.16885e-08
1.58204e-05
-2.55582e-08
1.58207e-05
-3.03711e-08
1.58208e-05
-3.62705e-08
1.58206e-05
-4.34246e-08
1.582e-05
-5.20497e-08
1.5819e-05
-6.24348e-08
1.58174e-05
-7.49657e-08
1.58151e-05
-9.01447e-08
1.58121e-05
-1.08607e-07
1.58079e-05
-1.31131e-07
1.58025e-05
-1.58653e-07
1.57953e-05
-1.9228e-07
1.5786e-05
-2.33322e-07
1.57737e-05
-2.83339e-07
1.57578e-05
-3.44194e-07
1.57366e-05
-4.18285e-07
1.57086e-05
-5.07718e-07
-6.19712e-07
1.56699e-05
1.58111e-05
-1.04336e-09
1.58117e-05
-3.25873e-09
1.58124e-05
-5.44527e-09
1.58132e-05
-7.40537e-09
1.58141e-05
-9.12141e-09
1.5815e-05
-1.06729e-08
1.58159e-05
-1.21294e-08
1.58168e-05
-1.35666e-08
1.58176e-05
-1.51148e-08
1.58183e-05
-1.69492e-08
1.58189e-05
-1.92473e-08
1.58194e-05
-2.21665e-08
1.58197e-05
-2.58451e-08
1.58197e-05
-3.04146e-08
1.58195e-05
-3.60114e-08
1.58188e-05
-4.27943e-08
1.58178e-05
-5.09675e-08
1.58161e-05
-6.08028e-08
1.58138e-05
-7.2662e-08
1.58107e-05
-8.70152e-08
1.58065e-05
-1.04454e-07
1.58011e-05
-1.25701e-07
1.57941e-05
-1.51615e-07
1.5785e-05
-1.83203e-07
1.57733e-05
-2.21639e-07
1.57583e-05
-2.68291e-07
1.57388e-05
-3.24754e-07
1.57135e-05
-3.92965e-07
1.56804e-05
-4.7459e-07
-5.74559e-07
1.56352e-05
1.58112e-05
-1.24584e-09
1.58118e-05
-3.84091e-09
1.58126e-05
-6.25739e-09
1.58134e-05
-8.29005e-09
1.58143e-05
-1.00048e-08
1.58152e-05
-1.15438e-08
1.5816e-05
-1.29768e-08
1.58168e-05
-1.43659e-08
1.58176e-05
-1.58408e-08
1.58182e-05
-1.75764e-08
1.58187e-05
-1.97421e-08
1.5819e-05
-2.24844e-08
1.58191e-05
-2.59322e-08
1.58189e-05
-3.02095e-08
1.58183e-05
-3.54447e-08
1.58173e-05
-4.17852e-08
1.58158e-05
-4.94214e-08
1.58136e-05
-5.86056e-08
1.58106e-05
-6.96723e-08
1.58066e-05
-8.30547e-08
1.58015e-05
-9.92956e-08
1.57948e-05
-1.19055e-07
1.57863e-05
-1.43109e-07
1.57755e-05
-1.72356e-07
1.57617e-05
-2.07825e-07
1.5744e-05
-2.50685e-07
1.57216e-05
-3.02258e-07
1.56926e-05
-3.64019e-07
1.56553e-05
-4.37254e-07
-5.24471e-07
1.56052e-05
1.58112e-05
-1.4898e-09
1.58119e-05
-4.52692e-09
1.58128e-05
-7.16771e-09
1.58137e-05
-9.22332e-09
1.58146e-05
-1.08991e-08
1.58155e-05
-1.24055e-08
1.58163e-05
-1.37946e-08
1.58171e-05
-1.51128e-08
1.58177e-05
-1.64932e-08
1.58182e-05
-1.8109e-08
1.58186e-05
-2.01177e-08
1.58188e-05
-2.26531e-08
1.58187e-05
-2.58321e-08
1.58183e-05
-2.97716e-08
1.58174e-05
-3.45903e-08
1.5816e-05
-4.0422e-08
1.58141e-05
-4.74425e-08
1.58113e-05
-5.58818e-08
1.58077e-05
-6.60448e-08
1.5803e-05
-7.83239e-08
1.57969e-05
-9.32089e-08
1.57891e-05
-1.11292e-07
1.57793e-05
-1.33261e-07
1.57668e-05
-1.59901e-07
1.57511e-05
-1.92094e-07
1.57312e-05
-2.30808e-07
1.57061e-05
-2.77109e-07
1.56741e-05
-3.32035e-07
1.56334e-05
-3.96587e-07
-4.70916e-07
1.55799e-05
1.58113e-05
-1.79849e-09
1.58121e-05
-5.36622e-09
1.58132e-05
-8.20874e-09
1.58141e-05
-1.0216e-08
1.58151e-05
-1.18142e-08
1.58159e-05
-1.32694e-08
1.58167e-05
-1.45914e-08
1.58174e-05
-1.58146e-08
1.5818e-05
-1.70807e-08
1.58185e-05
-1.85577e-08
1.58187e-05
-2.03868e-08
1.58188e-05
-2.26852e-08
1.58185e-05
-2.55637e-08
1.58178e-05
-2.9124e-08
1.58167e-05
-3.34726e-08
1.5815e-05
-3.87358e-08
1.58127e-05
-4.50683e-08
1.58095e-05
-5.26772e-08
1.58053e-05
-6.18354e-08
1.57998e-05
-7.28914e-08
1.57929e-05
-8.62792e-08
1.57841e-05
-1.02519e-07
1.57731e-05
-1.22209e-07
1.57592e-05
-1.46017e-07
1.57418e-05
-1.74675e-07
1.57199e-05
-2.0896e-07
1.56925e-05
-2.49699e-07
1.5658e-05
-2.97547e-07
1.56148e-05
-3.53373e-07
-4.15292e-07
1.55592e-05
1.58114e-05
-2.20963e-09
1.58124e-05
-6.43214e-09
1.58136e-05
-9.41326e-09
1.58147e-05
-1.12763e-08
1.58157e-05
-1.27642e-08
1.58165e-05
-1.41477e-08
1.58173e-05
-1.53724e-08
1.5818e-05
-1.64747e-08
1.58185e-05
-1.76083e-08
1.58189e-05
-1.8929e-08
1.5819e-05
-2.05574e-08
1.5819e-05
-2.25951e-08
1.58185e-05
-2.51393e-08
1.58177e-05
-2.8282e-08
1.58163e-05
-3.21178e-08
1.58144e-05
-3.67569e-08
1.58116e-05
-4.23371e-08
1.5808e-05
-4.904e-08
1.58033e-05
-5.71048e-08
1.57972e-05
-6.6832e-08
1.57895e-05
-7.85983e-08
1.57799e-05
-9.28519e-08
1.57677e-05
-1.10096e-07
1.57526e-05
-1.30883e-07
1.57337e-05
-1.55804e-07
1.57102e-05
-1.85448e-07
1.5681e-05
-2.20439e-07
1.56445e-05
-2.61086e-07
1.55994e-05
-3.0832e-07
-3.58621e-07
1.55428e-05
1.58116e-05
-2.79411e-09
1.58129e-05
-7.83045e-09
1.58143e-05
-1.07986e-08
1.58155e-05
-1.24083e-08
1.58165e-05
-1.37717e-08
1.58174e-05
-1.50589e-08
1.58182e-05
-1.61494e-08
1.58188e-05
-1.7106e-08
1.58193e-05
-1.80904e-08
1.58196e-05
-1.92388e-08
1.58197e-05
-2.06469e-08
1.58195e-05
-2.24e-08
1.58189e-05
-2.45819e-08
1.58179e-05
-2.72729e-08
1.58164e-05
-3.05546e-08
1.58141e-05
-3.45214e-08
1.58111e-05
-3.92922e-08
1.58071e-05
-4.50219e-08
1.58019e-05
-5.19164e-08
1.57953e-05
-6.02233e-08
1.57869e-05
-7.02638e-08
1.57765e-05
-8.24106e-08
1.57635e-05
-9.70706e-08
1.57473e-05
-1.14683e-07
1.57272e-05
-1.35705e-07
1.57023e-05
-1.60547e-07
1.56715e-05
-1.89669e-07
1.56334e-05
-2.2304e-07
1.5587e-05
-2.61928e-07
-3.01629e-07
1.55301e-05
1.58119e-05
-3.69509e-09
1.58138e-05
-9.71797e-09
1.58153e-05
-1.23453e-08
1.58165e-05
-1.36051e-08
1.58176e-05
-1.48436e-08
1.58185e-05
-1.5995e-08
1.58193e-05
-1.69139e-08
1.58199e-05
-1.77082e-08
1.58203e-05
-1.85314e-08
1.58206e-05
-1.9494e-08
1.58206e-05
-2.06652e-08
1.58203e-05
-2.21148e-08
1.58196e-05
-2.39116e-08
1.58185e-05
-2.61226e-08
1.58167e-05
-2.88154e-08
1.58143e-05
-3.20685e-08
1.5811e-05
-3.59821e-08
1.58066e-05
-4.06827e-08
1.58011e-05
-4.63434e-08
1.5794e-05
-5.31493e-08
1.57851e-05
-6.13778e-08
1.5774e-05
-7.13182e-08
1.57602e-05
-8.3285e-08
1.57432e-05
-9.76154e-08
1.57221e-05
-1.14644e-07
1.56962e-05
-1.34603e-07
1.56643e-05
-1.57794e-07
1.5625e-05
-1.83784e-07
1.55776e-05
-2.14514e-07
-2.43679e-07
1.55197e-05
1.58125e-05
-5.17926e-09
1.5815e-05
-1.2301e-08
1.58167e-05
-1.4047e-08
1.58181e-05
-1.49389e-08
1.58192e-05
-1.60209e-08
1.58202e-05
-1.69568e-08
1.5821e-05
-1.76664e-08
1.58215e-05
-1.82885e-08
1.58219e-05
-1.89374e-08
1.58222e-05
-1.97015e-08
1.58221e-05
-2.06226e-08
1.58218e-05
-2.17544e-08
1.5821e-05
-2.31476e-08
1.58197e-05
-2.48551e-08
1.58178e-05
-2.69294e-08
1.58152e-05
-2.94335e-08
1.58117e-05
-3.24492e-08
1.58071e-05
-3.60746e-08
1.58012e-05
-4.04579e-08
1.57937e-05
-4.56917e-08
1.57844e-05
-5.20497e-08
1.57728e-05
-5.97115e-08
1.57584e-05
-6.89029e-08
1.57406e-05
-7.98652e-08
1.57188e-05
-9.28227e-08
1.56921e-05
-1.07863e-07
1.56594e-05
-1.2513e-07
1.56192e-05
-1.43595e-07
1.55715e-05
-1.66741e-07
-1.83426e-07
1.55112e-05
1.58136e-05
-7.76425e-09
1.58167e-05
-1.54828e-08
1.58185e-05
-1.57874e-08
1.58201e-05
-1.65179e-08
1.58214e-05
-1.7336e-08
1.58224e-05
-1.79528e-08
1.58231e-05
-1.84261e-08
1.58237e-05
-1.88673e-08
1.58241e-05
-1.93345e-08
1.58243e-05
-1.98864e-08
1.58242e-05
-2.05453e-08
1.58238e-05
-2.13456e-08
1.5823e-05
-2.23165e-08
1.58216e-05
-2.35005e-08
1.58196e-05
-2.49343e-08
1.58168e-05
-2.66648e-08
1.58132e-05
-2.87552e-08
1.58083e-05
-3.12637e-08
1.58022e-05
-3.43471e-08
1.57945e-05
-3.79369e-08
1.57848e-05
-4.23775e-08
1.57728e-05
-4.77023e-08
1.5758e-05
-5.40621e-08
1.57397e-05
-6.16105e-08
1.57173e-05
-7.04686e-08
1.56901e-05
-8.06524e-08
1.56571e-05
-9.21197e-08
1.56165e-05
-1.0301e-07
1.55679e-05
-1.18054e-07
-1.14855e-07
1.54993e-05
1.5817e-05
-1.38196e-08
1.58204e-05
-1.88988e-08
1.58224e-05
-1.77971e-08
1.58239e-05
-1.7954e-08
1.5825e-05
-1.84673e-08
1.58259e-05
-1.8811e-08
1.58265e-05
-1.90426e-08
1.58269e-05
-1.92612e-08
1.5827e-05
-1.94995e-08
1.58269e-05
-1.97792e-08
1.58265e-05
-2.01133e-08
1.58257e-05
-2.052e-08
1.58244e-05
-2.10138e-08
1.58225e-05
-2.16199e-08
1.58199e-05
-2.23554e-08
1.58165e-05
-2.32429e-08
1.58121e-05
-2.43158e-08
1.58064e-05
-2.55975e-08
1.57992e-05
-2.71927e-08
1.57903e-05
-2.89929e-08
1.57792e-05
-3.12665e-08
1.57655e-05
-3.39799e-08
1.57486e-05
-3.72134e-08
1.57281e-05
-4.10475e-08
1.57031e-05
-4.55503e-08
1.56732e-05
-5.069e-08
1.56376e-05
-5.6512e-08
1.55953e-05
-6.07759e-08
1.55426e-05
-6.53053e-08
-2.05811e-08
1.54483e-05
1.57971e-05
1.57782e-05
1.57605e-05
1.57425e-05
1.5724e-05
1.57052e-05
1.56862e-05
1.56669e-05
1.56474e-05
1.56276e-05
1.56075e-05
1.5587e-05
1.5566e-05
1.55444e-05
1.5522e-05
1.54988e-05
1.54745e-05
1.54489e-05
1.54217e-05
1.53927e-05
1.53614e-05
1.53274e-05
1.52902e-05
1.52492e-05
1.52036e-05
1.51529e-05
1.50964e-05
1.50356e-05
1.49703e-05
1.49498e-05
1.55284e-05
-9.07154e-06
9.36404e-06
1.51918e-05
-9.15545e-06
9.49206e-06
1.48023e-05
-9.21673e-06
9.60625e-06
1.43686e-05
-9.253e-06
9.68665e-06
1.39094e-05
-9.28377e-06
9.74297e-06
1.34378e-05
-9.31651e-06
9.78808e-06
1.29606e-05
-9.35262e-06
9.82989e-06
1.24805e-05
-9.3921e-06
9.87214e-06
1.19987e-05
-9.43483e-06
9.91663e-06
1.15152e-05
-9.48061e-06
9.96412e-06
1.10297e-05
-9.52933e-06
1.00148e-05
1.0542e-05
-9.58116e-06
1.00688e-05
1.00521e-05
-9.63661e-06
1.01266e-05
9.5598e-06
-9.69641e-06
1.01887e-05
9.06517e-06
-9.76149e-06
1.02561e-05
8.56808e-06
-9.83294e-06
1.033e-05
8.06835e-06
-9.91218e-06
1.04119e-05
7.56566e-06
-1.0001e-05
1.05037e-05
7.05957e-06
-1.01019e-05
1.0608e-05
6.54942e-06
-1.02181e-05
1.07282e-05
6.03439e-06
-1.03539e-05
1.0869e-05
5.51271e-06
-1.05159e-05
1.10375e-05
4.98386e-06
-1.07119e-05
1.12407e-05
4.43992e-06
-1.09597e-05
1.15036e-05
3.88942e-06
-1.12639e-05
1.18144e-05
3.29091e-06
-1.17144e-05
1.2313e-05
2.69931e-06
-1.22028e-05
1.27944e-05
1.95454e-06
-1.33019e-05
1.40466e-05
1.1912e-06
-1.41041e-05
1.48674e-05
-1.79019e-05
1.90931e-05
1.58072e-05
-8.66806e-06
1.53572e-05
-8.70542e-06
1.4883e-05
-8.74256e-06
1.44015e-05
-8.77147e-06
1.39197e-05
-8.80197e-06
1.34395e-05
-8.83638e-06
1.29608e-05
-8.87386e-06
1.24821e-05
-8.91344e-06
1.20023e-05
-8.95503e-06
1.15206e-05
-8.99888e-06
1.10366e-05
-9.04534e-06
1.05503e-05
-9.09489e-06
1.00618e-05
-9.14811e-06
9.57111e-06
-9.20569e-06
9.07808e-06
-9.26845e-06
8.58257e-06
-9.33743e-06
8.08433e-06
-9.41394e-06
7.58301e-06
-9.49972e-06
7.07813e-06
-9.59704e-06
6.56899e-06
-9.70893e-06
6.0546e-06
-9.83954e-06
5.53342e-06
-9.99467e-06
5.00387e-06
-1.01823e-05
4.46063e-06
-1.04164e-05
3.90538e-06
-1.07087e-05
3.31033e-06
-1.11194e-05
2.70633e-06
-1.15988e-05
1.96851e-06
-1.2564e-05
1.19841e-06
-1.3334e-05
-1.67035e-05
1.57723e-05
-8.21315e-06
1.53069e-05
-8.24007e-06
1.48359e-05
-8.27154e-06
1.43663e-05
-8.30181e-06
1.38966e-05
-8.33235e-06
1.34258e-05
-8.36557e-06
1.29528e-05
-8.40084e-06
1.24772e-05
-8.4378e-06
1.19989e-05
-8.47677e-06
1.15183e-05
-8.51823e-06
1.10354e-05
-8.56254e-06
1.05506e-05
-8.61004e-06
1.00637e-05
-8.66121e-06
9.57464e-06
-8.71663e-06
9.08326e-06
-8.77707e-06
8.58936e-06
-8.84353e-06
8.09266e-06
-8.91724e-06
7.59278e-06
-8.99984e-06
7.08921e-06
-9.09346e-06
6.5812e-06
-9.20092e-06
6.06771e-06
-9.32605e-06
5.54722e-06
-9.47419e-06
5.01769e-06
-9.65279e-06
4.475e-06
-9.87373e-06
3.91703e-06
-1.01507e-05
3.32442e-06
-1.05268e-05
2.71141e-06
-1.09858e-05
1.97896e-06
-1.18316e-05
1.19977e-06
-1.25548e-05
-1.55037e-05
1.57642e-05
-7.75266e-06
1.53011e-05
-7.77696e-06
1.48339e-05
-7.8044e-06
1.43647e-05
-7.83264e-06
1.38941e-05
-7.86174e-06
1.34214e-05
-7.89286e-06
1.29467e-05
-7.92611e-06
1.24702e-05
-7.96133e-06
1.19921e-05
-7.99868e-06
1.15124e-05
-8.03849e-06
1.10309e-05
-8.08102e-06
1.05475e-05
-8.12661e-06
1.0062e-05
-8.17572e-06
9.57427e-06
-8.22894e-06
9.08422e-06
-8.28702e-06
8.5916e-06
-8.3509e-06
8.0961e-06
-8.42174e-06
7.59732e-06
-8.50106e-06
7.09469e-06
-8.59083e-06
6.58744e-06
-8.69366e-06
6.07445e-06
-8.81306e-06
5.55419e-06
-8.95392e-06
5.0244e-06
-9.123e-06
4.48139e-06
-9.33073e-06
3.92114e-06
-9.59047e-06
3.3292e-06
-9.93484e-06
2.70857e-06
-1.03652e-05
1.98063e-06
-1.11036e-05
1.19463e-06
-1.17688e-05
-1.43091e-05
1.57473e-05
-7.28958e-06
1.52824e-05
-7.31207e-06
1.48149e-05
-7.33686e-06
1.43457e-05
-7.36343e-06
1.38754e-05
-7.39149e-06
1.34038e-05
-7.42128e-06
1.29307e-05
-7.45298e-06
1.2456e-05
-7.48657e-06
1.19795e-05
-7.52221e-06
1.15011e-05
-7.56016e-06
1.10209e-05
-7.60076e-06
1.05386e-05
-7.64435e-06
1.00543e-05
-7.69137e-06
9.56773e-06
-7.74239e-06
9.07881e-06
-7.7981e-06
8.58727e-06
-7.85936e-06
8.09278e-06
-7.92725e-06
7.59489e-06
-8.00317e-06
7.093e-06
-8.08894e-06
6.58629e-06
-8.18695e-06
6.07362e-06
-8.30039e-06
5.55337e-06
-8.43367e-06
5.02322e-06
-8.59285e-06
4.47957e-06
-8.78707e-06
3.91753e-06
-9.02844e-06
3.32531e-06
-9.34261e-06
2.69896e-06
-9.73884e-06
1.97443e-06
-1.03791e-05
1.18303e-06
-1.09774e-05
-1.3126e-05
1.57263e-05
-6.82571e-06
1.52612e-05
-6.8469e-06
1.47943e-05
-6.87001e-06
1.43261e-05
-6.89519e-06
1.38566e-05
-6.92203e-06
1.33857e-05
-6.9504e-06
1.29132e-05
-6.98045e-06
1.2439e-05
-7.01236e-06
1.19631e-05
-7.0463e-06
1.14854e-05
-7.08252e-06
1.1006e-05
-7.1213e-06
1.05246e-05
-7.16299e-06
1.00412e-05
-7.20798e-06
9.55565e-06
-7.25681e-06
9.06766e-06
-7.31011e-06
8.57697e-06
-7.36868e-06
8.08325e-06
-7.43352e-06
7.58601e-06
-7.50593e-06
7.08462e-06
-7.58755e-06
6.57821e-06
-7.68055e-06
6.06562e-06
-7.7878e-06
5.54518e-06
-7.91322e-06
5.01449e-06
-8.06217e-06
4.46994e-06
-8.24253e-06
3.90634e-06
-8.46483e-06
3.31322e-06
-8.7495e-06
2.68257e-06
-9.1082e-06
1.96082e-06
-9.65737e-06
1.16635e-06
-1.01829e-05
-1.19597e-05
1.57008e-05
-6.36166e-06
1.52357e-05
-6.38175e-06
1.47692e-05
-6.4035e-06
1.43013e-05
-6.42736e-06
1.38322e-05
-6.45292e-06
1.33617e-05
-6.4799e-06
1.28897e-05
-6.50846e-06
1.24162e-05
-6.53882e-06
1.19411e-05
-6.57116e-06
1.14642e-05
-6.6057e-06
1.09856e-05
-6.64269e-06
1.05051e-05
-6.68246e-06
1.00225e-05
-6.7254e-06
9.5377e-06
-6.77199e-06
9.05041e-06
-6.82283e-06
8.56038e-06
-6.87864e-06
8.06721e-06
-6.94036e-06
7.57041e-06
-7.00913e-06
7.06931e-06
-7.08645e-06
6.56302e-06
-7.17426e-06
6.05032e-06
-7.27511e-06
5.52951e-06
-7.39241e-06
4.99816e-06
-7.53081e-06
4.45263e-06
-7.697e-06
3.88762e-06
-7.89981e-06
3.2934e-06
-8.15528e-06
2.65971e-06
-8.47451e-06
1.94107e-06
-8.93873e-06
1.14509e-06
-9.38695e-06
-1.08146e-05
1.56713e-05
-5.89757e-06
1.52062e-05
-5.91667e-06
1.47399e-05
-5.93724e-06
1.42724e-05
-5.95987e-06
1.38037e-05
-5.98417e-06
1.33336e-05
-6.00983e-06
1.28621e-05
-6.03696e-06
1.23891e-05
-6.06581e-06
1.19145e-05
-6.09657e-06
1.14383e-05
-6.12944e-06
1.09602e-05
-6.16465e-06
1.04803e-05
-6.20251e-06
9.99826e-06
-6.24339e-06
9.51399e-06
-6.28773e-06
9.02723e-06
-6.33606e-06
8.53764e-06
-6.38906e-06
8.04484e-06
-6.44755e-06
7.54829e-06
-6.51258e-06
7.0473e-06
-6.58546e-06
6.54095e-06
-6.66791e-06
6.02799e-06
-6.76215e-06
5.50669e-06
-6.87111e-06
4.9746e-06
-6.99872e-06
4.42807e-06
-7.15048e-06
3.86181e-06
-7.33354e-06
3.26654e-06
-7.56001e-06
2.63093e-06
-7.83889e-06
1.91576e-06
-8.22356e-06
1.12017e-06
-8.59136e-06
-9.69444e-06
1.56377e-05
-5.43345e-06
1.51727e-05
-5.45164e-06
1.47066e-05
-5.47114e-06
1.42393e-05
-5.4926e-06
1.37708e-05
-5.51567e-06
1.3301e-05
-5.54003e-06
1.28299e-05
-5.56578e-06
1.23572e-05
-5.59316e-06
1.1883e-05
-5.62238e-06
1.14072e-05
-5.65361e-06
1.09296e-05
-5.68706e-06
1.04501e-05
-5.72301e-06
9.96854e-06
-5.76182e-06
9.48468e-06
-5.80386e-06
8.99826e-06
-5.84965e-06
8.50896e-06
-5.89976e-06
8.01635e-06
-5.95494e-06
7.51989e-06
-6.01611e-06
7.01886e-06
-6.08443e-06
6.51231e-06
-6.16137e-06
5.99899e-06
-6.24882e-06
5.47713e-06
-6.34925e-06
4.94427e-06
-6.46587e-06
4.39681e-06
-6.60302e-06
3.82949e-06
-6.76622e-06
3.23343e-06
-6.96396e-06
2.59692e-06
-7.20238e-06
1.88572e-06
-7.51237e-06
1.09263e-06
-7.79826e-06
-8.60181e-06
1.56005e-05
-4.96925e-06
1.51355e-05
-4.9866e-06
1.46695e-05
-5.00511e-06
1.42023e-05
-5.02544e-06
1.37339e-05
-5.04731e-06
1.32643e-05
-5.07041e-06
1.27934e-05
-5.09482e-06
1.2321e-05
-5.12078e-06
1.18471e-05
-5.14848e-06
1.13715e-05
-5.17807e-06
1.08942e-05
-5.20976e-06
1.0415e-05
-5.24381e-06
9.93373e-06
-5.28051e-06
9.45011e-06
-5.32024e-06
8.96389e-06
-5.36343e-06
8.47473e-06
-5.41059e-06
7.98217e-06
-5.46239e-06
7.48567e-06
-5.51961e-06
6.98448e-06
-5.58325e-06
6.47766e-06
-5.65454e-06
5.9639e-06
-5.73507e-06
5.44146e-06
-5.82681e-06
4.90788e-06
-5.93229e-06