/*--------------------------------*- C++ -*----------------------------------*\
  =========                 |
  \\      /  F ield         | OpenFOAM: The Open Source CFD Toolbox
   \\    /   O peration     | Website:  https://openfoam.org
    \\  /    A nd           | Version:  11
     \\/     M anipulation  |
\*---------------------------------------------------------------------------*/
FoamFile
{
    format      ascii;
    class       volVectorField;
    location    "1.5";
    object      U;
}
// * * * * * * * * * * * * * * * * * * * * * * * * * * * * * * * * * * * * * //

dimensions      [0 1 -1 0 0 0 0];

internalField   nonuniform List<vector> 
12600
(
(0.399659 0.00010368 0)
(0.399413 0.00017403 0)
(0.399043 0.000177245 0)
(0.398633 0.000175151 0)
(0.398249 0.000174452 0)
(0.397898 0.000171178 0)
(0.397575 0.000165739 0)
(0.397282 0.000157922 0)
(0.397027 0.00014781 0)
(0.396819 0.000134841 0)
(0.396672 0.000118671 0)
(0.396598 0.000100618 0)
(0.396616 7.46112e-05 0)
(0.396748 3.98386e-05 0)
(0.397021 -3.9182e-06 0)
(0.39747 -5.85697e-05 0)
(0.398135 -0.000120942 0)
(0.399068 -0.000199875 0)
(0.400332 -0.000299247 0)
(0.401999 -0.000418463 0)
(0.404152 -0.000563646 0)
(0.406909 -0.000746521 0)
(0.410414 -0.000971249 0)
(0.414836 -0.00124422 0)
(0.420384 -0.00158035 0)
(0.427313 -0.00199111 0)
(0.435891 -0.00250342 0)
(0.446467 -0.00304883 0)
(0.459423 -0.00402744 0)
(0.47742 -0.00353475 0)
(0.400037 0.000146754 0)
(0.400183 0.00024996 0)
(0.40037 0.000221565 0)
(0.400492 0.000198966 0)
(0.40062 0.000183096 0)
(0.400777 0.000164615 0)
(0.400961 0.00014145 0)
(0.401173 0.000114633 0)
(0.401418 8.22081e-05 0)
(0.401707 4.19324e-05 0)
(0.40205 -7.90429e-06 0)
(0.402459 -7.06516e-05 0)
(0.40295 -0.00014801 0)
(0.403541 -0.00024282 0)
(0.404256 -0.000359329 0)
(0.405119 -0.000502272 0)
(0.406166 -0.000678882 0)
(0.407433 -0.000896501 0)
(0.408966 -0.00116484 0)
(0.410813 -0.00149755 0)
(0.413167 -0.00190754 0)
(0.416033 -0.0024085 0)
(0.419541 -0.00302346 0)
(0.423854 -0.00378079 0)
(0.429153 -0.0047076 0)
(0.435651 -0.0058303 0)
(0.443615 -0.0071962 0)
(0.453369 -0.00878888 0)
(0.465321 -0.0110223 0)
(0.479921 -0.0118982 0)
(0.400024 7.02664e-05 0)
(0.400114 0.000114101 0)
(0.40024 8.79048e-05 0)
(0.40036 6.29077e-05 0)
(0.400484 4.5453e-05 0)
(0.400631 2.11063e-05 0)
(0.400806 -1.36251e-05 0)
(0.40101 -5.76787e-05 0)
(0.401247 -0.000111157 0)
(0.401524 -0.000175251 0)
(0.401852 -0.000253955 0)
(0.402242 -0.000351457 0)
(0.402709 -0.00047229 0)
(0.403272 -0.000621816 0)
(0.403955 -0.000806135 0)
(0.404786 -0.00103315 0)
(0.405802 -0.00131195 0)
(0.407047 -0.001653 0)
(0.408574 -0.00207139 0)
(0.410445 -0.00259597 0)
(0.412729 -0.0032448 0)
(0.415525 -0.00403373 0)
(0.418954 -0.00500536 0)
(0.42316 -0.00620423 0)
(0.428317 -0.00767026 0)
(0.434661 -0.00945434 0)
(0.442432 -0.0116352 0)
(0.452081 -0.0142314 0)
(0.463606 -0.0176574 0)
(0.478963 -0.0202153 0)
(0.400016 3.70399e-05 0)
(0.400081 7.71102e-05 0)
(0.40019 6.94804e-05 0)
(0.400305 4.337e-05 0)
(0.400425 1.41959e-05 0)
(0.400565 -2.15434e-05 0)
(0.400732 -6.86077e-05 0)
(0.400929 -0.0001264 0)
(0.401158 -0.000196399 0)
(0.401427 -0.000282743 0)
(0.401744 -0.000389452 0)
(0.402121 -0.000521735 0)
(0.402573 -0.000686096 0)
(0.403118 -0.000889967 0)
(0.403779 -0.00114207 0)
(0.404583 -0.00145297 0)
(0.405565 -0.00183547 0)
(0.406767 -0.00230576 0)
(0.408239 -0.00288524 0)
(0.410042 -0.00360322 0)
(0.412246 -0.00448771 0)
(0.414943 -0.00557097 0)
(0.418251 -0.00690144 0)
(0.42231 -0.008536 0)
(0.427286 -0.0105411 0)
(0.43341 -0.0129951 0)
(0.440909 -0.0160069 0)
(0.45026 -0.0196099 0)
(0.461394 -0.0242761 0)
(0.47649 -0.028404 0)
(0.400011 1.61854e-05 0)
(0.40006 3.29498e-05 0)
(0.400149 1.43775e-05 0)
(0.400255 -2.67385e-05 0)
(0.400371 -7.24219e-05 0)
(0.400506 -0.000123579 0)
(0.400666 -0.000184294 0)
(0.400855 -0.000258134 0)
(0.401075 -0.000347541 0)
(0.401332 -0.000456934 0)
(0.401636 -0.000591676 0)
(0.401997 -0.000758535 0)
(0.402429 -0.000965576 0)
(0.40295 -0.00122217 0)
(0.403582 -0.00153941 0)
(0.404351 -0.00193069 0)
(0.405288 -0.00241238 0)
(0.406435 -0.0030048 0)
(0.407838 -0.00373373 0)
(0.409555 -0.00463241 0)
(0.411654 -0.00573777 0)
(0.414224 -0.00709343 0)
(0.417374 -0.00875902 0)
(0.421238 -0.0108077 0)
(0.425978 -0.0133247 0)
(0.431817 -0.0164092 0)
(0.438967 -0.0201977 0)
(0.447916 -0.0247686 0)
(0.458538 -0.0305986 0)
(0.473179 -0.0363655 0)
(0.400009 9.8786e-07 0)
(0.400047 -3.84155e-06 0)
(0.400123 -3.05992e-05 0)
(0.40022 -7.49354e-05 0)
(0.400331 -0.000127785 0)
(0.400459 -0.000188031 0)
(0.40061 -0.000259671 0)
(0.400789 -0.000346614 0)
(0.400997 -0.000452193 0)
(0.401241 -0.000581393 0)
(0.401529 -0.000740793 0)
(0.40187 -0.000938514 0)
(0.402279 -0.00118422 0)
(0.402771 -0.00148923 0)
(0.403367 -0.00186689 0)
(0.404091 -0.00233326 0)
(0.404974 -0.00290794 0)
(0.406052 -0.00361514 0)
(0.407371 -0.00448515 0)
(0.408984 -0.00555591 0)
(0.410955 -0.00687231 0)
(0.413368 -0.00848898 0)
(0.416324 -0.0104763 0)
(0.41995 -0.0129204 0)
(0.424397 -0.0159256 0)
(0.429879 -0.0196167 0)
(0.436591 -0.0241585 0)
(0.445027 -0.0296746 0)
(0.455012 -0.0366355 0)
(0.469029 -0.0440131 0)
(0.400007 -1.04218e-05 0)
(0.400038 -3.38367e-05 0)
(0.400104 -7.11337e-05 0)
(0.400192 -0.000123749 0)
(0.400295 -0.000187151 0)
(0.400415 -0.000259891 0)
(0.400556 -0.000344996 0)
(0.400723 -0.000446731 0)
(0.400918 -0.000569551 0)
(0.401146 -0.000719319 0)
(0.401414 -0.000903722 0)
(0.401733 -0.00113217 0)
(0.402114 -0.0014158 0)
(0.402572 -0.00176767 0)
(0.403126 -0.00220316 0)
(0.403798 -0.00274077 0)
(0.404617 -0.00340303 0)
(0.405617 -0.00421765 0)
(0.406837 -0.00521907 0)
(0.408328 -0.00645005 0)
(0.410151 -0.00796261 0)
(0.412379 -0.00982056 0)
(0.415108 -0.0121045 0)
(0.418454 -0.0149142 0)
(0.422558 -0.0183719 0)
(0.427619 -0.0226251 0)
(0.433815 -0.0278648 0)
(0.441631 -0.0342638 0)
(0.450854 -0.0422873 0)
(0.464057 -0.0512278 0)
(0.400006 -1.96255e-05 0)
(0.400032 -5.91469e-05 0)
(0.400089 -0.000107572 0)
(0.400168 -0.000168939 0)
(0.400263 -0.000241569 0)
(0.400374 -0.000324487 0)
(0.400505 -0.000420516 0)
(0.400659 -0.000534435 0)
(0.400838 -0.000671643 0)
(0.401049 -0.000838865 0)
(0.401296 -0.00104475 0)
(0.401588 -0.0012999 0)
(0.401937 -0.00161683 0)
(0.402356 -0.00201021 0)
(0.402863 -0.00249733 0)
(0.403476 -0.0030989 0)
(0.404223 -0.00384011 0)
(0.405132 -0.00475186 0)
(0.406242 -0.00587242 0)
(0.407596 -0.00724922 0)
(0.409249 -0.00894058 0)
(0.411269 -0.0110186 0)
(0.41374 -0.0135735 0)
(0.416768 -0.0167177 0)
(0.420479 -0.0205897 0)
(0.425056 -0.0253589 0)
(0.430657 -0.031243 0)
(0.437749 -0.0384644 0)
(0.446088 -0.0474827 0)
(0.458278 -0.057926 0)
(0.400005 -2.73592e-05 0)
(0.400027 -8.09508e-05 0)
(0.400076 -0.000140243 0)
(0.400147 -0.000210188 0)
(0.400233 -0.000291257 0)
(0.400335 -0.000383582 0)
(0.400454 -0.000490061 0)
(0.400593 -0.000615716 0)
(0.400757 -0.000766656 0)
(0.400947 -0.000950427 0)
(0.40117 -0.00117656 0)
(0.401434 -0.00145668 0)
(0.401748 -0.00180453 0)
(0.402124 -0.00223616 0)
(0.402577 -0.00277054 0)
(0.403126 -0.00343034 0)
(0.403792 -0.00424307 0)
(0.404602 -0.00524245 0)
(0.405588 -0.00647016 0)
(0.406791 -0.0079778 0)
(0.408257 -0.00982922 0)
(0.410046 -0.0121036 0)
(0.412232 -0.0148999 0)
(0.414907 -0.0183415 0)
(0.418181 -0.022582 0)
(0.422219 -0.0278108 0)
(0.427153 -0.0342703 0)
(0.433421 -0.0422309 0)
(0.440759 -0.0521496 0)
(0.451723 -0.0639995 0)
(0.400004 -3.39211e-05 0)
(0.400023 -9.96544e-05 0)
(0.400066 -0.00016895 0)
(0.400128 -0.000247122 0)
(0.400205 -0.00033612 0)
(0.400296 -0.000437023 0)
(0.400403 -0.000552876 0)
(0.400527 -0.000688913 0)
(0.400672 -0.000851851 0)
(0.400841 -0.00104997 0)
(0.401039 -0.00129357 0)
(0.401271 -0.00159517 0)
(0.401547 -0.00196958 0)
(0.401876 -0.00243414 0)
(0.402272 -0.00300927 0)
(0.40275 -0.00371936 0)
(0.403329 -0.00459393 0)
(0.404032 -0.00566912 0)
(0.404885 -0.00698954 0)
(0.405924 -0.00861046 0)
(0.407187 -0.0106004 0)
(0.408727 -0.0130444 0)
(0.410603 -0.0160492 0)
(0.412894 -0.0197476 0)
(0.415693 -0.0243063 0)
(0.419139 -0.0299322 0)
(0.423342 -0.0368905 0)
(0.428692 -0.0454965 0)
(0.434918 -0.0562066 0)
(0.44444 -0.0693341 0)
(0.400004 -3.94925e-05 0)
(0.40002 -0.00011569 0)
(0.400057 -0.00019401 0)
(0.400111 -0.000279823 0)
(0.400178 -0.000375982 0)
(0.400258 -0.000484378 0)
(0.400351 -0.000608359 0)
(0.40046 -0.000753379 0)
(0.400586 -0.000926623 0)
(0.400732 -0.001137 0)
(0.400902 -0.00139551 0)
(0.401101 -0.00171546 0)
(0.401336 -0.00211259 0)
(0.401616 -0.00260528 0)
(0.40195 -0.00321516 0)
(0.402353 -0.00396803 0)
(0.402839 -0.00489504 0)
(0.403427 -0.00603433 0)
(0.404139 -0.00743292 0)
(0.405003 -0.00914903 0)
(0.406051 -0.011255 0)
(0.407323 -0.0138408 0)
(0.408869 -0.017019 0)
(0.410752 -0.0209304 0)
(0.413043 -0.0257522 0)
(0.415855 -0.0317058 0)
(0.41927 -0.0390756 0)
(0.42362 -0.0482166 0)
(0.428634 -0.0595856 0)
(0.436504 -0.0738184 0)
(0.400003 -4.42084e-05 0)
(0.400017 -0.000129351 0)
(0.400048 -0.000215581 0)
(0.400094 -0.000308201 0)
(0.400152 -0.000410628 0)
(0.400221 -0.000525396 0)
(0.4003 -0.000656184 0)
(0.400392 -0.000808669 0)
(0.400498 -0.000990408 0)
(0.40062 -0.00121083 0)
(0.400761 -0.0014815 0)
(0.400925 -0.00181636 0)
(0.401117 -0.00223187 0)
(0.401344 -0.00274725 0)
(0.401615 -0.0033851 0)
(0.401938 -0.00417229 0)
(0.402326 -0.00514129 0)
(0.402794 -0.00633178 0)
(0.403357 -0.00779265 0)
(0.404038 -0.0095844 0)
(0.404859 -0.0117822 0)
(0.405852 -0.0144796 0)
(0.407053 -0.0177938 0)
(0.408506 -0.0218712 0)
(0.410263 -0.0268968 0)
(0.412407 -0.0331031 0)
(0.41499 -0.0407892 0)
(0.41827 -0.0503425 0)
(0.42199 -0.0622187 0)
(0.428015 -0.0773426 0)
(0.400003 -4.8155e-05 0)
(0.400014 -0.000140827 0)
(0.40004 -0.000233803 0)
(0.400078 -0.000332262 0)
(0.400127 -0.000439955 0)
(0.400184 -0.000559901 0)
(0.400249 -0.000696103 0)
(0.400324 -0.000854444 0)
(0.400409 -0.00104276 0)
(0.400506 -0.00127087 0)
(0.400617 -0.00155078 0)
(0.400744 -0.00189694 0)
(0.400892 -0.00232633 0)
(0.401065 -0.00285881 0)
(0.401268 -0.00351765 0)
(0.401509 -0.00433056 0)
(0.401796 -0.00533091 0)
(0.402139 -0.00655946 0)
(0.402549 -0.00806638 0)
(0.40304 -0.00991369 0)
(0.403627 -0.0121784 0)
(0.404331 -0.0149565 0)
(0.405174 -0.0183678 0)
(0.406183 -0.0225624 0)
(0.407389 -0.0277299 0)
(0.408839 -0.0341097 0)
(0.410558 -0.04201 0)
(0.412718 -0.0518409 0)
(0.41508 -0.0640533 0)
(0.419102 -0.0798127 0)
(0.400002 -5.13933e-05 0)
(0.400011 -0.000150267 0)
(0.400032 -0.000248815 0)
(0.400063 -0.000352052 0)
(0.400102 -0.000463911 0)
(0.400147 -0.000587773 0)
(0.400199 -0.000727926 0)
(0.400256 -0.000890431 0)
(0.40032 -0.00108332 0)
(0.400392 -0.00131668 0)
(0.400471 -0.00160284 0)
(0.400561 -0.00195657 0)
(0.400663 -0.0023952 0)
(0.40078 -0.002939 0)
(0.400915 -0.00361167 0)
(0.401072 -0.00444139 0)
(0.401255 -0.00546209 0)
(0.40147 -0.00671511 0)
(0.401723 -0.0082513 0)
(0.402019 -0.0101335 0)
(0.402368 -0.0124395 0)
(0.402777 -0.0152663 0)
(0.403255 -0.0187349 0)
(0.403811 -0.0229964 0)
(0.404455 -0.028242 0)
(0.405199 -0.0347131 0)
(0.406036 -0.0427206 0)
(0.407045 -0.0526865 0)
(0.408014 -0.0650502 0)
(0.409922 -0.0811545 0)
(0.400002 -5.3974e-05 0)
(0.400009 -0.0001578 0)
(0.400025 -0.000260758 0)
(0.400049 -0.000367652 0)
(0.400079 -0.000482502 0)
(0.400112 -0.000608962 0)
(0.400149 -0.00075156 0)
(0.400189 -0.000916489 0)
(0.400231 -0.00111189 0)
(0.400277 -0.001348 0)
(0.400325 -0.00163733 0)
(0.400377 -0.00199482 0)
(0.400433 -0.00243797 0)
(0.400493 -0.0029872 0)
(0.400559 -0.0036664 0)
(0.40063 -0.00450389 0)
(0.400709 -0.00553376 0)
(0.400794 -0.0067975 0)
(0.400887 -0.00834602 0)
(0.400988 -0.0102422 0)
(0.401096 -0.0125637 0)
(0.401207 -0.0154072 0)
(0.401318 -0.0188928 0)
(0.40142 -0.0231708 0)
(0.401499 -0.0284301 0)
(0.401535 -0.0349096 0)
(0.401488 -0.0429156 0)
(0.401341 -0.0528694 0)
(0.400907 -0.0651904 0)
(0.400653 -0.0813246 0)
(0.400001 -5.59452e-05 0)
(0.400006 -0.000163556 0)
(0.400018 -0.000269786 0)
(0.400036 -0.000379183 0)
(0.400056 -0.000495795 0)
(0.400078 -0.000623491 0)
(0.4001 -0.000766993 0)
(0.400123 -0.000932569 0)
(0.400144 -0.00112838 0)
(0.400164 -0.00136472 0)
(0.400181 -0.00165411 0)
(0.400195 -0.00201152 0)
(0.400204 -0.00245441 0)
(0.400207 -0.00300314 0)
(0.400203 -0.00368151 0)
(0.400189 -0.0045177 0)
(0.400162 -0.00554556 0)
(0.400118 -0.00680623 0)
(0.400053 -0.00835014 0)
(0.399958 -0.0102393 0)
(0.399825 -0.0125506 0)
(0.399641 -0.0153788 0)
(0.399387 -0.0188418 0)
(0.399038 -0.0230862 0)
(0.398559 -0.0282956 0)
(0.397896 -0.0347015 0)
(0.396978 -0.0425983 0)
(0.395695 -0.0523937 0)
(0.393883 -0.0644768 0)
(0.39149 -0.0803162 0)
(0.400001 -5.73588e-05 0)
(0.400004 -0.000167674 0)
(0.400012 -0.00027608 0)
(0.400023 -0.00038681 0)
(0.400035 -0.000503912 0)
(0.400046 -0.000631452 0)
(0.400054 -0.000774301 0)
(0.400059 -0.000938735 0)
(0.400059 -0.00113285 0)
(0.400053 -0.00136686 0)
(0.400039 -0.00165322 0)
(0.400015 -0.0020067 0)
(0.399978 -0.00244458 0)
(0.399925 -0.00298692 0)
(0.399852 -0.00365716 0)
(0.399753 -0.00448302 0)
(0.399622 -0.00549776 0)
(0.39945 -0.00674172 0)
(0.399227 -0.00826424 0)
(0.39894 -0.010126 0)
(0.39857 -0.0124016 0)
(0.398094 -0.0151832 0)
(0.397483 -0.0185847 0)
(0.396693 -0.0227469 0)
(0.395669 -0.0278451 0)
(0.394328 -0.0340985 0)
(0.392569 -0.0417827 0)
(0.390195 -0.0512794 0)
(0.387062 -0.0629367 0)
(0.382629 -0.0781642 0)
(0.4 -5.82762e-05 0)
(0.400002 -0.000170321 0)
(0.400007 -0.00027986 0)
(0.400012 -0.000390745 0)
(0.400016 -0.000507034 0)
(0.400015 -0.000633008 0)
(0.40001 -0.00077365 0)
(0.399997 -0.000935157 0)
(0.399977 -0.00112548 0)
(0.399946 -0.00135464 0)
(0.399901 -0.00163488 0)
(0.39984 -0.00198066 0)
(0.399758 -0.00240884 0)
(0.39965 -0.00293897 0)
(0.399509 -0.00359389 0)
(0.399327 -0.00440057 0)
(0.399094 -0.0053913 0)
(0.398797 -0.00660519 0)
(0.39842 -0.00808997 0)
(0.397944 -0.00990415 0)
(0.397344 -0.0121196 0)
(0.396585 -0.0148244 0)
(0.395627 -0.0181272 0)
(0.394412 -0.022161 0)
(0.392866 -0.0270898 0)
(0.390878 -0.0331167 0)
(0.388321 -0.0404927 0)
(0.384925 -0.0495616 0)
(0.380559 -0.0606213 0)
(0.374259 -0.0749463 0)
(0.4 -5.87737e-05 0)
(0.400001 -0.000171707 0)
(0.400002 -0.000281392 0)
(0.400002 -0.000391244 0)
(0.399998 -0.000505394 0)
(0.399988 -0.000628393 0)
(0.399969 -0.000765287 0)
(0.39994 -0.000922106 0)
(0.399899 -0.00110656 0)
(0.399844 -0.00132841 0)
(0.39977 -0.00159953 0)
(0.399672 -0.00193391 0)
(0.399547 -0.0023478 0)
(0.399385 -0.00286006 0)
(0.399178 -0.00349268 0)
(0.398915 -0.00427156 0)
(0.398584 -0.00522772 0)
(0.398165 -0.00639861 0)
(0.397641 -0.00782987 0)
(0.396983 -0.00957725 0)
(0.39616 -0.0117089 0)
(0.39513 -0.0143083 0)
(0.393841 -0.0174771 0)
(0.392221 -0.0213391 0)
(0.39018 -0.026045 0)
(0.387586 -0.0317784 0)
(0.384287 -0.0387606 0)
(0.379958 -0.0472889 0)
(0.374475 -0.0576037 0)
(0.366546 -0.0707801 0)
(0.4 -5.895e-05 0)
(0.4 -0.000172096 0)
(0.399999 -0.000281006 0)
(0.399994 -0.000388612 0)
(0.399983 -0.000499277 0)
(0.399963 -0.000617907 0)
(0.399931 -0.000749549 0)
(0.399887 -0.000899949 0)
(0.399827 -0.00107651 0)
(0.399748 -0.00128865 0)
(0.399646 -0.00154776 0)
(0.399514 -0.00186718 0)
(0.399346 -0.00226239 0)
(0.399133 -0.00275133 0)
(0.398863 -0.00335492 0)
(0.398523 -0.00409775 0)
(0.398097 -0.00500921 0)
(0.397563 -0.00612474 0)
(0.396897 -0.00748741 0)
(0.396066 -0.00914968 0)
(0.395032 -0.0111755 0)
(0.393745 -0.0136425 0)
(0.392143 -0.0166446 0)
(0.390143 -0.0202952 0)
(0.387641 -0.0247298 0)
(0.384488 -0.0301104 0)
(0.380513 -0.0366259 0)
(0.375357 -0.0445206 0)
(0.368895 -0.0539742 0)
(0.359621 -0.065816 0)
(0.4 -5.89384e-05 0)
(0.399999 -0.000171829 0)
(0.399997 -0.000279105 0)
(0.399989 -0.000383207 0)
(0.399972 -0.000489015 0)
(0.399942 -0.000601919 0)
(0.399899 -0.000726851 0)
(0.39984 -0.000869162 0)
(0.399762 -0.00103588 0)
(0.399661 -0.00123599 0)
(0.399531 -0.0014803 0)
(0.399367 -0.00178136 0)
(0.399159 -0.00215371 0)
(0.398897 -0.00261419 0)
(0.398568 -0.0031824 0)
(0.398155 -0.00388139 0)
(0.39764 -0.00473862 0)
(0.396997 -0.00578717 0)
(0.396197 -0.00706715 0)
(0.395203 -0.00862722 0)
(0.393971 -0.0105264 0)
(0.392444 -0.0128361 0)
(0.39055 -0.0156418 0)
(0.388199 -0.0190454 0)
(0.385275 -0.0231662 0)
(0.381615 -0.0281439 0)
(0.377039 -0.0341335 0)
(0.371168 -0.0413243 0)
(0.363879 -0.0498359 0)
(0.35357 -0.0602264 0)
(0.4 -5.89294e-05 0)
(0.399999 -0.000171366 0)
(0.399996 -0.000276178 0)
(0.399986 -0.000375399 0)
(0.399964 -0.000474948 0)
(0.399926 -0.000580854 0)
(0.399872 -0.000697694 0)
(0.399799 -0.000830318 0)
(0.399704 -0.000985365 0)
(0.399582 -0.00117132 0)
(0.399428 -0.0013982 0)
(0.399233 -0.00167763 0)
(0.398988 -0.00202307 0)
(0.39868 -0.0024501 0)
(0.398296 -0.00297684 0)
(0.397815 -0.00362454 0)
(0.397217 -0.00441849 0)
(0.396472 -0.00538911 0)
(0.395548 -0.00657316 0)
(0.394404 -0.00801514 0)
(0.392989 -0.00976878 0)
(0.39124 -0.0118986 0)
(0.389079 -0.0144811 0)
(0.386408 -0.0176063 0)
(0.383102 -0.0213773 0)
(0.378993 -0.0259109 0)
(0.373892 -0.03133 0)
(0.367423 -0.0377696 0)
(0.359463 -0.0452954 0)
(0.348431 -0.0541923 0)
(0.4 -5.92044e-05 0)
(0.400001 -0.000171356 0)
(0.399999 -0.000272778 0)
(0.399988 -0.000365612 0)
(0.399961 -0.000457536 0)
(0.399915 -0.000555163 0)
(0.399851 -0.000662489 0)
(0.399766 -0.000783862 0)
(0.399655 -0.00092557 0)
(0.399515 -0.00109549 0)
(0.399337 -0.00130275 0)
(0.399114 -0.00155789 0)
(0.398835 -0.00187312 0)
(0.398486 -0.00226257 0)
(0.398051 -0.00274266 0)
(0.397508 -0.00333262 0)
(0.396833 -0.00405535 0)
(0.395996 -0.0049383 0)
(0.394959 -0.0060146 0)
(0.393677 -0.0073242 0)
(0.392095 -0.00891515 0)
(0.390145 -0.0108447 0)
(0.387744 -0.0131804 0)
(0.384786 -0.0160002 0)
(0.381142 -0.0193911 0)
(0.376641 -0.0234483 0)
(0.371091 -0.0282648 0)
(0.364137 -0.0339271 0)
(0.355656 -0.0404578 0)
(0.344191 -0.0478894 0)
(0.400001 -6.02127e-05 0)
(0.400004 -0.000172668 0)
(0.400005 -0.000269454 0)
(0.399994 -0.000354256 0)
(0.399963 -0.000437449 0)
(0.399911 -0.000525725 0)
(0.399838 -0.000622116 0)
(0.399742 -0.000730485 0)
(0.399618 -0.000856779 0)
(0.39946 -0.0010082 0)
(0.399261 -0.00119293 0)
(0.399013 -0.00142036 0)
(0.398703 -0.00170135 0)
(0.398317 -0.00204848 0)
(0.397836 -0.00247634 0)
(0.397237 -0.00300198 0)
(0.396494 -0.00364563 0)
(0.395573 -0.00443157 0)
(0.394435 -0.00538906 0)
(0.39303 -0.00655329 0)
(0.3913 -0.00796639 0)
(0.389171 -0.00967823 0)
(0.386556 -0.011747 0)
(0.383346 -0.014239 0)
(0.379408 -0.0172264 0)
(0.374572 -0.020784 0)
(0.368648 -0.0249797 0)
(0.361311 -0.0298593 0)
(0.352444 -0.0354168 0)
(0.340788 -0.0414745 0)
(0.400002 -6.27336e-05 0)
(0.400009 -0.000176617 0)
(0.400017 -0.000266635 0)
(0.400008 -0.000341132 0)
(0.399973 -0.000414615 0)
(0.399915 -0.00049321 0)
(0.399835 -0.000578512 0)
(0.399729 -0.000673866 0)
(0.399593 -0.000784773 0)
(0.39942 -0.000917549 0)
(0.399204 -0.00107919 0)
(0.398933 -0.00127783 0)
(0.398597 -0.00152283 0)
(0.398177 -0.00182503 0)
(0.397656 -0.002197 0)
(0.397008 -0.00265352 0)
(0.396205 -0.00321209 0)
(0.395211 -0.00389359 0)
(0.393984 -0.00472308 0)
(0.392472 -0.00573069 0)
(0.390612 -0.00695236 0)
(0.388328 -0.00843049 0)
(0.385528 -0.0102142 0)
(0.3821 -0.0123587 0)
(0.377912 -0.014922 0)
(0.372796 -0.0179608 0)
(0.366566 -0.0215232 0)
(0.358933 -0.0256242 0)
(0.34979 -0.03025 0)
(0.338121 -0.0350708 0)
(0.400004 -6.80759e-05 0)
(0.40002 -0.000185438 0)
(0.400037 -0.000265935 0)
(0.400031 -0.000326745 0)
(0.399993 -0.000387046 0)
(0.399929 -0.000451958 0)
(0.399843 -0.000522067 0)
(0.399729 -0.000600548 0)
(0.399582 -0.000692329 0)
(0.399396 -0.000802747 0)
(0.399164 -0.000937623 0)
(0.398875 -0.00110374 0)
(0.398515 -0.00130884 0)
(0.398068 -0.00156199 0)
(0.397513 -0.00187359 0)
(0.396823 -0.00225579 0)
(0.39597 -0.0027231 0)
(0.394914 -0.00329295 0)
(0.393612 -0.00398626 0)
(0.392008 -0.00482801 0)
(0.390039 -0.00584783 0)
(0.387624 -0.0070806 0)
(0.384669 -0.00856662 0)
(0.381061 -0.0103512 0)
(0.376668 -0.0124793 0)
(0.371325 -0.0149909 0)
(0.364855 -0.0179189 0)
(0.357003 -0.0212564 0)
(0.347674 -0.0250071 0)
(0.336105 -0.0287593 0)
(0.400008 -7.80159e-05 0)
(0.400039 -0.000199982 0)
(0.400071 -0.000271562 0)
(0.400069 -0.000324 0)
(0.400028 -0.000376492 0)
(0.399961 -0.000431357 0)
(0.399869 -0.00048911 0)
(0.399749 -0.00055327 0)
(0.399594 -0.00062797 0)
(0.399397 -0.000717245 0)
(0.399152 -0.00082566 0)
(0.398848 -0.000958877 0)
(0.398469 -0.00112289 0)
(0.397999 -0.00132474 0)
(0.397416 -0.00157288 0)
(0.396693 -0.00187707 0)
(0.395799 -0.0022487 0)
(0.394694 -0.00270136 0)
(0.393331 -0.00325136 0)
(0.391656 -0.00391827 0)
(0.3896 -0.00472534 0)
(0.387082 -0.00569996 0)
(0.384005 -0.00687383 0)
(0.380258 -0.00828395 0)
(0.37571 -0.00996386 0)
(0.370206 -0.0119385 0)
(0.363578 -0.0142316 0)
(0.355597 -0.0168165 0)
(0.34618 -0.019743 0)
(0.33477 -0.0225727 0)
(0.400015 -0.000100296 0)
(0.40007 -0.000202467 0)
(0.400119 -0.00024252 0)
(0.400119 -0.000276263 0)
(0.400077 -0.000314573 0)
(0.400007 -0.000353741 0)
(0.399913 -0.000394662 0)
(0.399787 -0.000440895 0)
(0.399626 -0.000495693 0)
(0.399422 -0.000562044 0)
(0.399168 -0.000643082 0)
(0.398851 -0.000742244 0)
(0.398459 -0.000864028 0)
(0.397973 -0.00101364 0)
(0.397369 -0.00119688 0)
(0.396621 -0.00142065 0)
(0.395695 -0.00169337 0)
(0.394554 -0.00202517 0)
(0.393148 -0.00242814 0)
(0.391422 -0.00291656 0)
(0.389307 -0.0035072 0)
(0.386723 -0.00421975 0)
(0.383571 -0.00507711 0)
(0.379745 -0.0061104 0)
(0.375118 -0.00734362 0)
(0.369535 -0.00878844 0)
(0.36284 -0.0104624 0)
(0.354787 -0.0123162 0)
(0.345375 -0.0144522 0)
(0.333834 -0.0163366 0)
(0.400024 -0.000165672 0)
(0.400173 -0.000322832 0)
(0.400225 -0.000317443 0)
(0.400196 -0.000328874 0)
(0.400137 -0.000350671 0)
(0.400058 -0.000374785 0)
(0.399951 -0.000399006 0)
(0.399811 -0.000427381 0)
(0.399632 -0.000460733 0)
(0.399406 -0.00050105 0)
(0.399124 -0.000549293 0)
(0.398774 -0.000611356 0)
(0.39834 -0.00068748 0)
(0.397804 -0.000780773 0)
(0.397143 -0.000895444 0)
(0.396331 -0.00103604 0)
(0.395333 -0.00120766 0)
(0.394111 -0.00141641 0)
(0.392618 -0.00166979 0)
(0.390797 -0.00197695 0)
(0.388581 -0.0023488 0)
(0.385889 -0.0027981 0)
(0.382623 -0.00333949 0)
(0.37868 -0.00398892 0)
(0.373825 -0.00475995 0)
(0.36794 -0.00566145 0)
(0.360892 -0.00670009 0)
(0.352384 -0.00783784 0)
(0.342729 -0.00920024 0)
(0.32953 -0.00983242 0)
(0.399645 -0.000114265 0)
(0.399344 -0.000190498 0)
(0.398876 -0.000206402 0)
(0.398326 -0.000216507 0)
(0.397752 -0.000228089 0)
(0.397158 -0.000238614 0)
(0.396535 -0.000248948 0)
(0.395876 -0.000260089 0)
(0.395175 -0.000272928 0)
(0.394424 -0.000288412 0)
(0.393614 -0.000307068 0)
(0.392731 -0.000329207 0)
(0.391756 -0.000356247 0)
(0.39067 -0.000389606 0)
(0.389445 -0.000430316 0)
(0.38805 -0.000479895 0)
(0.386448 -0.000540552 0)
(0.384593 -0.000614952 0)
(0.382428 -0.000706114 0)
(0.379888 -0.000817434 0)
(0.37689 -0.000952798 0)
(0.373339 -0.00111666 0)
(0.36912 -0.00131403 0)
(0.364108 -0.00154608 0)
(0.35816 -0.00181678 0)
(0.351114 -0.00213217 0)
(0.342786 -0.00249885 0)
(0.332987 -0.00288262 0)
(0.321689 -0.00349394 0)
(0.304916 -0.00290867 0)
(0.484592 -0.00827749 1.19534e-20)
(0.491598 -0.0128055 -1.29936e-17)
(0.497867 -0.0178689 1.30502e-17)
(0.502953 -0.0233779 6.55573e-18)
(0.507397 -0.0292756 4.94893e-18)
(0.51151 -0.0355589 9.98294e-18)
(0.515383 -0.0422778 5.01077e-18)
(0.519083 -0.0495015 1.3495e-17)
(0.52269 -0.0572844 6.81147e-18)
(0.526257 -0.0656624 3.41845e-18)
(0.529801 -0.0746665 -3.45895e-18)
(0.533314 -0.0843345 6.9436e-18)
(0.536786 -0.0947162 3.53732e-18)
(0.540213 -0.105875 3.55042e-18)
(0.543599 -0.117892 7.15361e-18)
(0.546953 -0.130866 3.63018e-18)
(0.550292 -0.144918 1.09024e-17)
(0.553634 -0.160196 0)
(0.556999 -0.176881 0)
(0.560413 -0.195197 3.67879e-18)
(0.563899 -0.215425 -3.70868e-20)
(0.567494 -0.237915 3.74807e-18)
(0.571226 -0.263109 0)
(0.575136 -0.29159 7.40327e-18)
(0.579319 -0.323997 3.67063e-18)
(0.583421 -0.361741 -3.72152e-18)
(0.589456 -0.403794 3.60139e-18)
(0.589251 -0.462664 3.58205e-18)
(0.609238 -0.499286 1.02136e-17)
(0.574451 -0.63903 -3.21389e-18)
(0.49103 -0.0175136 -6.54195e-18)
(0.495493 -0.0219391 7.39966e-18)
(0.499177 -0.0272509 -7.45339e-18)
(0.502235 -0.0330036 0)
(0.505139 -0.0391021 -6.7485e-18)
(0.508093 -0.0455987 -6.7863e-18)
(0.511092 -0.052567 -1.71064e-18)
(0.514109 -0.0600499 -1.20942e-17)
(0.517136 -0.0680658 -6.95872e-18)
(0.520148 -0.0766328 -7.05002e-18)
(0.523112 -0.0857831 3.54227e-18)
(0.525996 -0.0955643 -3.58777e-18)
(0.528785 -0.106037 -7.20814e-18)
(0.531475 -0.117272 -7.27404e-18)
(0.534069 -0.129355 -7.34081e-18)
(0.536569 -0.142386 -7.40793e-18)
(0.538977 -0.156488 -1.50102e-17)
(0.541291 -0.171806 3.775e-18)
(0.543508 -0.188521 -3.83183e-18)
(0.545622 -0.206852 -1.15806e-17)
(0.547623 -0.227072 3.35522e-20)
(0.549498 -0.249518 -5.47173e-20)
(0.551213 -0.274617 -4.74144e-20)
(0.55275 -0.302907 -1.19014e-17)
(0.554024 -0.335028 -7.95013e-18)
(0.554825 -0.372146 -3.87205e-18)
(0.556041 -0.413939 1.1945e-19)
(0.551944 -0.469094 -1.25955e-19)
(0.563816 -0.509879 -1.11777e-17)
(0.523604 -0.637893 0)
(0.488642 -0.0262663 0)
(0.491734 -0.0307072 0)
(0.494482 -0.0360835 0)
(0.497159 -0.0419418 -8.53002e-19)
(0.499896 -0.04816 7.74887e-18)
(0.502678 -0.0547672 -1.73685e-18)
(0.505429 -0.0618079 1.75778e-18)
(0.508101 -0.0693079 7.07519e-18)
(0.510675 -0.0772933 -1.78653e-18)
(0.513137 -0.0858045 9.02144e-18)
(0.515476 -0.0948935 3.6447e-18)
(0.517687 -0.104618 -3.69428e-18)
(0.519768 -0.115039 3.72067e-18)
(0.521717 -0.126227 -3.77387e-18)
(0.523525 -0.138263 -7.64493e-18)
(0.525179 -0.151247 7.73068e-18)
(0.526663 -0.165298 7.75209e-18)
(0.527955 -0.180558 0)
(0.52903 -0.197205 0)
(0.529854 -0.21545 7.99289e-18)
(0.53038 -0.235557 0)
(0.530554 -0.257844 1.2309e-17)
(0.530279 -0.28272 4.14851e-18)
(0.529475 -0.310677 8.2472e-18)
(0.527923 -0.342349 1.24208e-17)
(0.525447 -0.37868 4.24765e-18)
(0.522174 -0.419855 0)
(0.51428 -0.471764 1.65758e-17)
(0.517217 -0.515674 0)
(0.473782 -0.631357 7.9349e-18)
(0.48581 -0.0353312 0)
(0.488341 -0.0399562 0)
(0.490599 -0.0454129 0)
(0.492934 -0.0512972 -6.99783e-18)
(0.495291 -0.0575177 0)
(0.497565 -0.0641123 0)
(0.499717 -0.0711321 0)
(0.501752 -0.0786119 7.29296e-18)
(0.503673 -0.086585 0)
(0.505477 -0.0950915 0)
(0.507151 -0.104176 0)
(0.508683 -0.113889 -7.63277e-18)
(0.510057 -0.124285 -7.72512e-18)
(0.511254 -0.135433 -3.8893e-18)
(0.51225 -0.147413 -4.8183e-20)
(0.51302 -0.160325 -7.9388e-18)
(0.513532 -0.174286 1.58132e-20)
(0.51375 -0.189433 1.23333e-17)
(0.513626 -0.205936 4.13617e-18)
(0.5131 -0.223996 -4.21006e-18)
(0.512094 -0.243859 -4.23791e-18)
(0.510512 -0.265826 -4.23142e-18)
(0.508205 -0.29027 -4.33443e-18)
(0.505035 -0.317639 1.33067e-17)
(0.50067 -0.34853 0)
(0.494966 -0.383685 -1.34891e-17)
(0.487417 -0.423612 -4.54832e-18)
(0.475815 -0.472262 2.87156e-19)
(0.470177 -0.517069 -1.35974e-17)
(0.424819 -0.620401 5.96717e-19)
(0.481999 -0.0440076 0)
(0.483967 -0.0486886 7.01065e-18)
(0.485646 -0.0541266 -8.83494e-19)
(0.487485 -0.0599885 1.51978e-17)
(0.489352 -0.0662092 0)
(0.491095 -0.0728189 0)
(0.492694 -0.0798546 7.41006e-18)
(0.494174 -0.0873422 -7.4601e-18)
(0.495532 -0.0953085 0)
(0.496746 -0.103789 0)
(0.497795 -0.112828 0)
(0.498656 -0.122475 7.83168e-18)
(0.499309 -0.132789 7.9332e-18)
(0.499728 -0.14384 -4.02871e-18)
(0.499883 -0.155706 1.22424e-17)
(0.49974 -0.168484 0)
(0.499254 -0.182284 8.4564e-18)
(0.498372 -0.197236 -1.28179e-17)
(0.497027 -0.213499 -4.34042e-18)
(0.495134 -0.231259 0)
(0.492584 -0.250744 0)
(0.489245 -0.272226 0)
(0.484925 -0.296045 0)
(0.479432 -0.322596 -4.61218e-18)
(0.47235 -0.352424 -4.76235e-18)
(0.463542 -0.386098 4.73434e-18)
(0.452011 -0.424329 4.9051e-18)
(0.436884 -0.469566 -9.6925e-18)
(0.423234 -0.513899 9.7848e-18)
(0.377098 -0.605204 -9.55818e-18)
(0.477273 -0.0523076 -7.08919e-18)
(0.478718 -0.057048 -6.69853e-18)
(0.479857 -0.0625031 -1.35755e-18)
(0.481223 -0.0683753 -5.48085e-18)
(0.482625 -0.0746039 -1.61508e-21)
(0.483865 -0.0812084 -2.81308e-18)
(0.484928 -0.0882192 4.33757e-20)
(0.485845 -0.0956622 -7.71464e-18)
(0.486612 -0.103567 -5.87019e-18)
(0.487201 -0.111973 7.9281e-18)
(0.487586 -0.120923 0)
(0.487744 -0.130468 1.01852e-17)
(0.487649 -0.140664 -1.034e-17)
(0.48727 -0.151575 -8.40341e-18)
(0.486567 -0.163276 1.27786e-17)
(0.485494 -0.175857 -1.2993e-17)
(0.483992 -0.18942 -4.34825e-18)
(0.481993 -0.204086 -4.56107e-18)
(0.479412 -0.22 -4.52747e-18)
(0.476141 -0.237333 1.39102e-17)
(0.472047 -0.256289 0)
(0.466965 -0.27711 4.77236e-18)
(0.460666 -0.300095 -9.74618e-18)
(0.452916 -0.325585 1.00595e-17)
(0.443232 -0.354057 5.08352e-18)
(0.431478 -0.385938 1.04524e-17)
(0.41628 -0.422025 0)
(0.397863 -0.463623 1.09098e-17)
(0.376993 -0.506277 0)
(0.33102 -0.585937 -1.12587e-17)
(0.471637 -0.0601358 7.22497e-18)
(0.472573 -0.0649205 3.67215e-18)
(0.473181 -0.0703718 -3.72037e-18)
(0.474063 -0.0762204 2.82918e-18)
(0.474982 -0.0824135 1.35822e-21)
(0.475705 -0.0889702 1.31118e-21)
(0.476216 -0.0959198 -6.81935e-18)
(0.476559 -0.103289 1.9473e-18)
(0.476727 -0.111107 1.2038e-17)
(0.476687 -0.11941 -1.01751e-17)
(0.476409 -0.128239 2.06963e-18)
(0.475864 -0.137641 -1.0487e-17)
(0.475021 -0.147667 8.51466e-18)
(0.473839 -0.15838 8.65328e-18)
(0.47227 -0.169848 -4.35783e-18)
(0.470258 -0.182153 8.95035e-18)
(0.467734 -0.19539 0)
(0.464616 -0.209669 4.61775e-18)
(0.460801 -0.225119 4.75947e-18)
(0.456166 -0.241891 -9.63866e-18)
(0.450553 -0.260163 0)
(0.443773 -0.280145 -5.04941e-18)
(0.435568 -0.302092 1.94202e-20)
(0.425666 -0.326288 -1.04681e-17)
(0.413543 -0.353134 1.0843e-17)
(0.39905 -0.382936 -1.65818e-17)
(0.380556 -0.416488 0)
(0.359152 -0.454246 -1.14557e-17)
(0.331969 -0.494264 1.09889e-19)
(0.286872 -0.562832 1.21633e-17)
(0.465099 -0.0673968 3.71411e-18)
(0.465536 -0.0722022 -3.27768e-18)
(0.465622 -0.0776241 3.32269e-18)
(0.46602 -0.0834224 -7.72123e-18)
(0.466455 -0.0895532 -3.92511e-18)
(0.466661 -0.0960348 -9.91868e-19)
(0.466625 -0.102894 4.04241e-18)
(0.466396 -0.110155 9.20232e-18)
(0.465967 -0.117846 4.16812e-18)
(0.465299 -0.126001 -2.10865e-18)
(0.464355 -0.134658 2.14554e-18)