/*--------------------------------*- C++ -*----------------------------------*\
  =========                 |
  \\      /  F ield         | OpenFOAM: The Open Source CFD Toolbox
   \\    /   O peration     | Website:  https://openfoam.org
    \\  /    A nd           | Version:  11
     \\/     M anipulation  |
\*---------------------------------------------------------------------------*/
FoamFile
{
    format      ascii;
    class       volVectorField;
    location    "1.5";
    object      U;
}
// * * * * * * * * * * * * * * * * * * * * * * * * * * * * * * * * * * * * * //

dimensions      [0 1 -1 0 0 0 0];

internalField   nonuniform List<vector> 
12600
(
(0.412112 0.000105891 0)
(0.411841 0.00018107 0)
(0.411428 0.000192175 0)
(0.410956 0.000195208 0)
(0.410488 0.000199288 0)
(0.41003 0.000201924 0)
(0.409576 0.000203228 0)
(0.409122 0.000203925 0)
(0.408671 0.000204161 0)
(0.408225 0.000203867 0)
(0.407786 0.000202998 0)
(0.407356 0.000201462 0)
(0.406936 0.00019909 0)
(0.406531 0.000195713 0)
(0.406143 0.00019133 0)
(0.405777 0.000185635 0)
(0.405438 0.000178235 0)
(0.40513 0.000168688 0)
(0.404862 0.000157063 0)
(0.404643 0.000142749 0)
(0.404486 0.000126106 0)
(0.404404 0.00010593 0)
(0.404416 7.78799e-05 0)
(0.404543 3.78788e-05 0)
(0.404815 -1.30052e-05 0)
(0.405265 -6.86425e-05 0)
(0.405941 -0.000138244 0)
(0.406894 -0.000222794 0)
(0.408306 -0.000353918 0)
(0.409136 -0.000861036 0)
(0.412492 0.000154117 0)
(0.412637 0.000281671 0)
(0.41277 0.000263395 0)
(0.412822 0.000255003 0)
(0.412867 0.000257341 0)
(0.412921 0.000257453 0)
(0.412977 0.000255324 0)
(0.413035 0.000252217 0)
(0.413095 0.000248165 0)
(0.413159 0.000242889 0)
(0.41323 0.000236223 0)
(0.413309 0.00022798 0)
(0.413398 0.000217799 0)
(0.413501 0.000205231 0)
(0.413619 0.000189854 0)
(0.413758 0.000170481 0)
(0.413921 0.000148405 0)
(0.414112 0.000122265 0)
(0.414339 8.85538e-05 0)
(0.414609 4.72961e-05 0)
(0.414931 -3.57382e-06 0)
(0.415318 -6.68277e-05 0)
(0.415784 -0.000144179 0)
(0.416346 -0.000237883 0)
(0.417028 -0.000352136 0)
(0.417837 -0.000495539 0)
(0.418881 -0.000673684 0)
(0.419945 -0.000923414 0)
(0.421707 -0.00122618 0)
(0.422189 -0.00203919 0)
(0.41248 8.52801e-05 0)
(0.412554 0.000153053 0)
(0.412643 0.000156813 0)
(0.412709 0.000157581 0)
(0.412761 0.00016288 0)
(0.412814 0.000165042 0)
(0.412871 0.000163554 0)
(0.41293 0.000160366 0)
(0.412992 0.000155616 0)
(0.413057 0.000148802 0)
(0.413127 0.000139599 0)
(0.413204 0.000127719 0)
(0.413291 0.000112711 0)
(0.413389 9.41459e-05 0)
(0.413503 7.1752e-05 0)
(0.413636 4.32367e-05 0)
(0.413792 9.6213e-06 0)
(0.413975 -3.42164e-05 0)
(0.414192 -8.77822e-05 0)
(0.414449 -0.000151993 0)
(0.414754 -0.000230492 0)
(0.41512 -0.000326833 0)
(0.41556 -0.000445418 0)
(0.416091 -0.000592254 0)
(0.416737 -0.00077295 0)
(0.417521 -0.000999826 0)
(0.418483 -0.00127236 0)
(0.419637 -0.00163506 0)
(0.420991 -0.00209301 0)
(0.422612 -0.00247116 0)
(0.412472 5.61019e-05 0)
(0.412522 0.000132262 0)
(0.412594 0.000160109 0)
(0.412657 0.000166872 0)
(0.412706 0.000173818 0)
(0.412756 0.000176572 0)
(0.412811 0.000174903 0)
(0.412869 0.000171018 0)
(0.412929 0.00016508 0)
(0.412992 0.00015667 0)
(0.41306 0.000145121 0)
(0.413136 0.000129781 0)
(0.41322 0.000109097 0)
(0.413317 8.246e-05 0)
(0.413428 4.95886e-05 0)
(0.413556 1.08346e-05 0)
(0.413707 -3.64995e-05 0)
(0.413885 -9.41945e-05 0)
(0.414095 -0.00016436 0)
(0.414343 -0.000250653 0)
(0.414639 -0.000356568 0)
(0.414992 -0.000486974 0)
(0.415417 -0.000648001 0)
(0.41593 -0.000847079 0)
(0.416553 -0.00109249 0)
(0.417309 -0.00139657 0)
(0.418228 -0.00177003 0)
(0.419346 -0.00223158 0)
(0.420662 -0.00280696 0)
(0.422398 -0.00321783 0)
(0.412468 4.04752e-05 0)
(0.412501 0.000102284 0)
(0.412558 0.000126764 0)
(0.412613 0.00013032 0)
(0.412661 0.000130194 0)
(0.412709 0.000129206 0)
(0.412762 0.000125515 0)
(0.412818 0.000118936 0)
(0.412877 0.000109869 0)
(0.412938 9.74113e-05 0)
(0.413005 8.14228e-05 0)
(0.413078 6.07451e-05 0)
(0.41316 3.44427e-05 0)
(0.413254 1.24123e-06 0)
(0.413362 -4.02331e-05 0)
(0.413487 -8.94846e-05 0)
(0.413632 -0.000148924 0)
(0.413802 -0.000221186 0)
(0.414004 -0.000309507 0)
(0.414241 -0.000417807 0)
(0.414524 -0.000550505 0)
(0.414862 -0.000713552 0)
(0.415268 -0.000914434 0)
(0.415758 -0.00116233 0)
(0.416352 -0.00146798 0)
(0.417073 -0.00184507 0)
(0.417947 -0.00230838 0)
(0.419023 -0.00286799 0)
(0.420285 -0.00356784 0)
(0.422026 -0.00419048 0)
(0.412465 2.99591e-05 0)
(0.412489 7.85601e-05 0)
(0.412534 0.000102596 0)
(0.412584 0.000108682 0)
(0.41263 0.000109853 0)
(0.412677 0.000109642 0)
(0.412728 0.000106717 0)
(0.412781 0.00010059 0)
(0.412838 9.13891e-05 0)
(0.412898 7.86287e-05 0)
(0.412963 6.10999e-05 0)
(0.413034 3.77231e-05 0)
(0.413113 7.73062e-06 0)
(0.413203 -3.03468e-05 0)
(0.413306 -7.76394e-05 0)
(0.413425 -0.000136163 0)
(0.413564 -0.000207004 0)
(0.413726 -0.000292945 0)
(0.413917 -0.000397612 0)
(0.414142 -0.000525537 0)
(0.414409 -0.000682385 0)
(0.414728 -0.000875424 0)
(0.41511 -0.00111363 0)
(0.415571 -0.0014079 0)
(0.416129 -0.00177119 0)
(0.416806 -0.0022189 0)
(0.417627 -0.00276957 0)
(0.418644 -0.00343368 0)
(0.419839 -0.00426899 0)
(0.421536 -0.00508672 0)
(0.412464 2.27038e-05 0)
(0.412482 6.06316e-05 0)
(0.412518 8.16852e-05 0)
(0.412562 8.74998e-05 0)
(0.412606 8.67441e-05 0)
(0.412651 8.37171e-05 0)
(0.412699 7.82663e-05 0)
(0.41275 6.97316e-05 0)
(0.412805 5.78221e-05 0)
(0.412862 4.17465e-05 0)
(0.412924 2.04227e-05 0)
(0.412993 -7.89981e-06 0)
(0.413069 -4.40891e-05 0)
(0.413154 -8.91533e-05 0)
(0.413252 -0.000144515 0)
(0.413365 -0.000212336 0)
(0.413495 -0.000294349 0)
(0.413648 -0.000393554 0)
(0.413826 -0.000514133 0)
(0.414037 -0.000661375 0)
(0.414286 -0.000841838 0)
(0.414583 -0.00106373 0)
(0.414938 -0.0013372 0)
(0.415365 -0.0016746 0)
(0.415882 -0.00209082 0)
(0.416509 -0.00260338 0)
(0.41727 -0.00323418 0)
(0.418216 -0.00399888 0)
(0.419327 -0.00495842 0)
(0.420934 -0.00597246 0)
(0.412463 1.73539e-05 0)
(0.412477 4.63528e-05 0)
(0.412507 6.30821e-05 0)
(0.412546 6.73526e-05 0)
(0.412587 6.49288e-05 0)
(0.41263 6.00644e-05 0)
(0.412676 5.32969e-05 0)
(0.412725 4.38301e-05 0)
(0.412777 3.09013e-05 0)
(0.412832 1.34915e-05 0)
(0.412892 -9.63027e-06 0)
(0.412957 -4.01961e-05 0)
(0.413029 -7.97507e-05 0)
(0.41311 -0.000129555 0)
(0.413202 -0.000191016 0)
(0.413307 -0.000266175 0)
(0.413429 -0.00035732 0)
(0.41357 -0.000467737 0)
(0.413735 -0.000601936 0)
(0.413929 -0.000765745 0)
(0.414158 -0.00096655 0)
(0.41443 -0.00121362 0)
(0.414754 -0.00151838 0)
(0.415143 -0.00189469 0)
(0.415612 -0.00235933 0)
(0.416183 -0.00293212 0)
(0.416873 -0.00363817 0)
(0.417735 -0.00449883 0)
(0.418746 -0.00557691 0)
(0.420236 -0.0067758 0)
(0.412463 1.31609e-05 0)
(0.412474 3.46359e-05 0)
(0.4125 4.67227e-05 0)
(0.412534 4.8785e-05 0)
(0.412572 4.46536e-05 0)
(0.412613 3.79705e-05 0)
(0.412656 2.9575e-05 0)
(0.412703 1.86536e-05 0)
(0.412753 4.09501e-06 0)
(0.412805 -1.53782e-05 0)
(0.412862 -4.1382e-05 0)
(0.412923 -7.54008e-05 0)
(0.412991 -0.000119172 0)
(0.413067 -0.000174172 0)
(0.413152 -0.00024197 0)
(0.413249 -0.000324681 0)
(0.413361 -0.000424906 0)
(0.41349 -0.000546191 0)
(0.41364 -0.000693413 0)
(0.413816 -0.000872954 0)
(0.414022 -0.00109292 0)
(0.414266 -0.0013634 0)
(0.414556 -0.00169683 0)
(0.414903 -0.00210833 0)
(0.415321 -0.0026163 0)
(0.415827 -0.00324277 0)
(0.416439 -0.00401576 0)
(0.417206 -0.00496302 0)
(0.418101 -0.00614735 0)
(0.419447 -0.00751895 0)
(0.412462 9.7205e-06 0)
(0.412472 2.47733e-05 0)
(0.412494 3.22775e-05 0)
(0.412525 3.16742e-05 0)
(0.41256 2.5618e-05 0)
(0.412599 1.70777e-05 0)
(0.41264 6.98993e-06 0)
(0.412684 -5.39287e-06 0)
(0.412731 -2.13939e-05 0)
(0.412781 -4.25279e-05 0)
(0.412834 -7.0537e-05 0)
(0.412892 -0.000107126 0)
(0.412955 -0.00015411 0)
(0.413025 -0.000213146 0)
(0.413103 -0.000285947 0)
(0.413192 -0.000374697 0)
(0.413293 -0.000482231 0)
(0.413409 -0.000612369 0)
(0.413543 -0.000770299 0)
(0.413699 -0.000962834 0)
(0.413881 -0.00119866 0)
(0.414095 -0.00148865 0)
(0.414348 -0.00184615 0)
(0.41465 -0.00228747 0)
(0.415011 -0.0028325 0)
(0.415447 -0.00350538 0)
(0.415973 -0.00433685 0)
(0.416633 -0.00536056 0)
(0.417397 -0.00663904 0)
(0.418573 -0.00816581 0)
(0.412462 6.78754e-06 0)
(0.412471 1.62563e-05 0)
(0.41249 1.93914e-05 0)
(0.412518 1.5883e-05 0)
(0.412551 7.74482e-06 0)
(0.412587 -2.61672e-06 0)
(0.412626 -1.432e-05 0)
(0.412667 -2.80846e-05 0)
(0.412712 -4.54003e-05 0)
(0.412759 -6.80231e-05 0)
(0.412809 -9.78642e-05 0)
(0.412862 -0.000136818 0)
(0.41292 -0.000186746 0)
(0.412984 -0.000249423 0)
(0.413055 -0.000326692 0)
(0.413135 -0.000420841 0)
(0.413224 -0.000534865 0)
(0.413326 -0.000672796 0)
(0.413443 -0.000840084 0)
(0.413578 -0.00104391 0)
(0.413734 -0.00129345 0)
(0.413916 -0.00160016 0)
(0.414129 -0.00197815 0)
(0.414383 -0.00244464 0)
(0.414684 -0.00302074 0)
(0.415046 -0.0037323 0)
(0.415479 -0.00461225 0)
(0.416022 -0.00569951 0)
(0.416643 -0.00705563 0)
(0.417625 -0.00871614 0)
(0.412462 4.19488e-06 0)
(0.412469 8.67663e-06 0)
(0.412487 7.70362e-06 0)
(0.412512 1.24172e-06 0)
(0.412543 -9.0232e-06 0)
(0.412577 -2.11299e-05 0)
(0.412614 -3.43531e-05 0)
(0.412653 -4.94309e-05 0)
(0.412695 -6.79657e-05 0)
(0.412739 -9.19013e-05 0)
(0.412785 -0.0001233 0)
(0.412834 -0.000164184 0)
(0.412887 -0.000216484 0)
(0.412945 -0.000282063 0)
(0.413008 -0.00036287 0)
(0.413077 -0.000461273 0)
(0.413155 -0.000580384 0)
(0.413243 -0.000724402 0)
(0.413341 -0.000898987 0)
(0.413454 -0.00111159 0)
(0.413582 -0.00137176 0)
(0.413731 -0.00169141 0)
(0.413904 -0.0020852 0)
(0.414106 -0.00257106 0)
(0.414344 -0.00317102 0)
(0.414627 -0.0039123 0)
(0.414962 -0.00482955 0)
(0.41538 -0.00596612 0)
(0.415847 -0.0073822 0)
(0.416614 -0.00915092 0)
(0.412462 1.85688e-06 0)
(0.412469 1.88192e-06 0)
(0.412485 -2.98279e-06 0)
(0.412508 -1.23938e-05 0)
(0.412537 -2.47918e-05 0)
(0.412569 -3.85649e-05 0)
(0.412603 -5.31806e-05 0)
(0.41264 -6.94429e-05 0)
(0.412679 -8.90452e-05 0)
(0.41272 -0.00011407 0)
(0.412763 -0.000146705 0)
(0.412808 -0.00018908 0)
(0.412855 -0.0002432 0)
(0.412906 -0.000310993 0)
(0.412961 -0.000394482 0)
(0.413021 -0.000496102 0)
(0.413086 -0.000619048 0)
(0.413158 -0.000767633 0)
(0.413238 -0.000947667 0)
(0.413328 -0.00116679 0)
(0.413428 -0.00143479 0)
(0.413542 -0.00176389 0)
(0.413673 -0.0021691 0)
(0.413822 -0.00266879 0)
(0.413995 -0.00328558 0)
(0.414196 -0.00404754 0)
(0.414429 -0.00499041 0)
(0.414716 -0.00616064 0)
(0.415022 -0.00761646 0)
(0.415555 -0.0094631 0)
(0.412462 -3.7205e-07 0)
(0.412468 -4.43257e-06 0)
(0.412483 -1.28508e-05 0)
(0.412505 -2.51047e-05 0)
(0.412532 -3.96033e-05 0)
(0.412562 -5.49606e-05 0)
(0.412595 -7.08437e-05 0)
(0.412629 -8.8146e-05 0)
(0.412665 -0.000108636 0)
(0.412703 -0.000134506 0)
(0.412742 -0.000168047 0)
(0.412783 -0.000211472 0)
(0.412825 -0.000266836 0)
(0.412869 -0.000336114 0)
(0.412915 -0.000421379 0)
(0.412965 -0.000525112 0)
(0.413017 -0.000650554 0)
(0.413074 -0.000802077 0)
(0.413135 -0.000985565 0)
(0.413201 -0.00120876 0)
(0.413273 -0.00148156 0)
(0.413352 -0.00181631 0)
(0.413439 -0.00222821 0)
(0.413535 -0.00273578 0)
(0.413641 -0.00336185 0)
(0.413759 -0.00413481 0)
(0.413888 -0.00509073 0)
(0.41404 -0.00627785 0)
(0.41418 -0.00775176 0)
(0.414467 -0.00964236 0)
(0.412461 -2.56794e-06 0)
(0.412468 -1.02099e-05 0)
(0.412482 -2.22028e-05 0)
(0.412503 -3.71894e-05 0)
(0.412529 -5.36255e-05 0)
(0.412557 -7.04014e-05 0)
(0.412588 -8.73868e-05 0)
(0.41262 -0.000105563 0)
(0.412653 -0.000126748 0)
(0.412688 -0.000153201 0)
(0.412723 -0.000187295 0)
(0.412759 -0.000231302 0)
(0.412796 -0.000287321 0)
(0.412833 -0.000357348 0)
(0.412871 -0.000443481 0)
(0.41291 -0.000548213 0)
(0.41295 -0.000674794 0)
(0.412991 -0.000827606 0)
(0.413032 -0.00101255 0)
(0.413075 -0.00123736 0)
(0.413118 -0.00151194 0)
(0.413161 -0.00184863 0)
(0.413205 -0.00226254 0)
(0.413247 -0.00277209 0)
(0.413286 -0.00339992 0)
(0.41332 -0.0041742 0)
(0.413345 -0.00513057 0)
(0.413361 -0.00631753 0)
(0.413334 -0.00778721 0)
(0.413369 -0.00968524 0)
(0.412461 -4.50632e-06 0)
(0.412468 -1.59799e-05 0)
(0.412482 -3.12312e-05 0)
(0.412502 -4.87117e-05 0)
(0.412526 -6.69257e-05 0)
(0.412553 -8.49632e-05 0)
(0.412582 -0.000102883 0)
(0.412612 -0.000121747 0)
(0.412643 -0.000143401 0)
(0.412674 -0.000170154 0)
(0.412706 -0.000204436 0)
(0.412738 -0.000248562 0)
(0.412769 -0.000304644 0)
(0.412799 -0.000374678 0)
(0.412829 -0.000460755 0)
(0.412857 -0.000565359 0)
(0.412884 -0.000691715 0)
(0.412909 -0.000844172 0)
(0.412932 -0.00102857 0)
(0.41295 -0.00125255 0)
(0.412965 -0.00152591 0)
(0.412973 -0.00186077 0)
(0.412973 -0.00227201 0)
(0.412961 -0.00277767 0)
(0.412934 -0.00339982 0)
(0.412886 -0.0041658 0)
(0.412807 -0.00510999 0)
(0.412689 -0.00627956 0)
(0.4125 -0.00772234 0)
(0.412284 -0.00958985 0)
(0.412461 -6.46687e-06 0)
(0.412468 -2.16564e-05 0)
(0.412481 -4.00478e-05 0)
(0.412502 -5.98687e-05 0)
(0.412525 -7.96543e-05 0)
(0.412551 -9.87394e-05 0)
(0.412578 -0.000117388 0)
(0.412606 -0.000136729 0)
(0.412634 -0.000158621 0)
(0.412663 -0.000185393 0)
(0.412691 -0.000219508 0)
(0.412718 -0.00026329 0)
(0.412744 -0.000318838 0)
(0.412767 -0.000388128 0)
(0.412789 -0.000473227 0)
(0.412807 -0.000576581 0)
(0.412821 -0.000701358 0)
(0.41283 -0.000851819 0)
(0.412834 -0.00103368 0)
(0.412829 -0.00125442 0)
(0.412815 -0.00152359 0)
(0.412788 -0.00185299 0)
(0.412746 -0.00225701 0)
(0.412682 -0.00275304 0)
(0.41259 -0.00336221 0)
(0.412462 -0.00411054 0)
(0.412283 -0.00503045 0)
(0.412036 -0.00616629 0)
(0.41169 -0.0075608 0)
(0.411235 -0.00936106 0)
(0.412461 -8.45392e-06 0)
(0.412468 -2.74166e-05 0)
(0.412482 -4.88788e-05 0)
(0.412502 -7.08297e-05 0)
(0.412525 -9.19299e-05 0)
(0.41255 -0.00011183 0)
(0.412576 -0.000130997 0)
(0.412602 -0.000150597 0)
(0.412628 -0.000172474 0)
(0.412654 -0.000198968 0)
(0.412678 -0.000232548 0)
(0.412701 -0.000275519 0)
(0.412721 -0.000329941 0)
(0.412738 -0.000397749 0)
(0.412751 -0.000480963 0)
(0.412759 -0.000581965 0)
(0.412761 -0.000703835 0)
(0.412755 -0.000850702 0)
(0.41274 -0.0010281 0)
(0.412713 -0.00124325 0)
(0.412671 -0.00150534 0)
(0.41261 -0.00182571 0)
(0.412526 -0.00221811 0)
(0.412412 -0.00269905 0)
(0.412258 -0.00328838 0)
(0.412053 -0.0040103 0)
(0.411779 -0.00489456 0)
(0.411411 -0.0059813 0)
(0.410919 -0.00730759 0)
(0.410241 -0.00900645 0)
(0.412462 -1.05362e-05 0)
(0.412468 -3.34347e-05 0)
(0.412483 -5.79266e-05 0)
(0.412504 -8.17712e-05 0)
(0.412527 -0.000103888 0)
(0.412551 -0.000124342 0)
(0.412576 -0.000143799 0)
(0.4126 -0.000163421 0)
(0.412624 -0.000185024 0)
(0.412647 -0.000210944 0)
(0.412668 -0.000243629 0)
(0.412686 -0.000285328 0)
(0.412701 -0.000338038 0)
(0.412712 -0.000403635 0)
(0.412717 -0.000484075 0)
(0.412715 -0.000581653 0)
(0.412705 -0.000699327 0)
(0.412684 -0.000841056 0)
(0.412651 -0.00101213 0)
(0.412602 -0.00121944 0)
(0.412533 -0.00147173 0)
(0.412441 -0.00177974 0)
(0.412317 -0.00215639 0)
(0.412155 -0.00261708 0)
(0.411942 -0.00318015 0)
(0.411664 -0.00386765 0)
(0.411302 -0.00470617 0)
(0.410822 -0.00573059 0)
(0.410198 -0.0069719 0)
(0.409324 -0.00854053 0)
(0.412462 -1.27976e-05 0)
(0.412469 -3.9921e-05 0)
(0.412485 -6.7431e-05 0)
(0.412507 -9.28824e-05 0)
(0.412531 -0.000115666 0)
(0.412554 -0.000136393 0)
(0.412577 -0.000155902 0)
(0.4126 -0.000175297 0)
(0.412622 -0.000196352 0)
(0.412642 -0.000221398 0)
(0.41266 -0.000252835 0)
(0.412675 -0.000292821 0)
(0.412685 -0.00034326 0)
(0.41269 -0.000405947 0)
(0.412687 -0.000482752 0)
(0.412676 -0.000575857 0)
(0.412654 -0.000688072 0)
(0.412619 -0.000823144 0)
(0.412569 -0.000986066 0)
(0.412499 -0.00118334 0)
(0.412405 -0.00142315 0)
(0.412281 -0.00171555 0)
(0.412121 -0.00207251 0)
(0.411913 -0.00250817 0)
(0.411645 -0.00303909 0)
(0.4113 -0.00368484 0)
(0.410857 -0.00446853 0)
(0.410277 -0.00541915 0)
(0.409536 -0.00656175 0)
(0.408496 -0.00797819 0)
(0.412462 -1.53501e-05 0)
(0.41247 -4.71555e-05 0)
(0.412488 -7.76752e-05 0)
(0.412512 -0.000104355 0)
(0.412536 -0.000127397 0)
(0.412559 -0.000148113 0)
(0.412582 -0.000167431 0)
(0.412603 -0.000186326 0)
(0.412623 -0.000206543 0)
(0.412641 -0.000230404 0)
(0.412656 -0.000260232 0)
(0.412667 -0.000298071 0)
(0.412672 -0.000345711 0)
(0.412671 -0.000404857 0)
(0.412662 -0.000477277 0)
(0.412642 -0.000565013 0)
(0.412609 -0.0006707 0)
(0.412561 -0.000797837 0)
(0.412494 -0.000951076 0)
(0.412404 -0.00113645 0)
(0.412287 -0.00136153 0)
(0.412134 -0.00163554 0)
(0.411939 -0.00196942 0)
(0.411689 -0.0023759 0)
(0.411371 -0.00286969 0)
(0.410966 -0.00346775 0)
(0.41045 -0.00418948 0)
(0.409782 -0.0050576 0)
(0.408941 -0.00609163 0)
(0.407771 -0.00734133 0)
(0.412462 -1.8342e-05 0)
(0.412472 -5.55182e-05 0)
(0.412493 -8.90061e-05 0)
(0.412519 -0.000116381 0)
(0.412545 -0.000139205 0)
(0.412568 -0.000159621 0)
(0.412589 -0.000178506 0)
(0.412609 -0.000196645 0)
(0.412628 -0.000215763 0)
(0.412644 -0.000238154 0)
(0.412656 -0.000266008 0)
(0.412663 -0.000301209 0)
(0.412664 -0.000345402 0)
(0.412658 -0.000400199 0)
(0.412641 -0.000467256 0)
(0.412613 -0.000548458 0)
(0.41257 -0.000646253 0)
(0.412509 -0.000763865 0)
(0.412428 -0.000905566 0)
(0.41232 -0.00107687 0)
(0.41218 -0.00128469 0)
(0.412001 -0.00153738 0)
(0.411774 -0.00184471 0)
(0.411486 -0.00221792 0)
(0.411123 -0.00266975 0)
(0.410663 -0.00321453 0)
(0.410083 -0.0038682 0)
(0.409341 -0.00464759 0)
(0.408419 -0.00556787 0)
(0.40715 -0.00664627 0)
(0.412463 -2.20743e-05 0)
(0.412475 -6.55176e-05 0)
(0.4125 -0.000101797 0)
(0.412529 -0.000129159 0)
(0.412556 -0.000151241 0)
(0.412579 -0.000171014 0)
(0.4126 -0.000189118 0)
(0.41262 -0.000206194 0)
(0.412637 -0.000224025 0)
(0.412651 -0.000244852 0)
(0.41266 -0.00027068 0)
(0.412664 -0.000303192 0)
(0.412662 -0.000343896 0)
(0.41265 -0.000394242 0)
(0.412628 -0.000455727 0)
(0.412592 -0.000530085 0)
(0.412539 -0.000619522 0)
(0.412468 -0.000726955 0)
(0.412372 -0.000856235 0)
(0.412247 -0.0010123 0)
(0.412088 -0.00120134 0)
(0.411885 -0.00143077 0)
(0.411629 -0.0017092 0)
(0.411307 -0.00204631 0)
(0.410903 -0.00245286 0)
(0.410396 -0.00294045 0)
(0.409761 -0.00352163 0)
(0.408957 -0.0042076 0)
(0.407968 -0.00501084 0)
(0.406634 -0.005919 0)
(0.412464 -2.69534e-05 0)
(0.41248 -7.78657e-05 0)
(0.41251 -0.000116432 0)
(0.412544 -0.000142883 0)
(0.412572 -0.000163872 0)
(0.412595 -0.000182768 0)
(0.412616 -0.000199574 0)
(0.412635 -0.000214846 0)
(0.412651 -0.00023054 0)
(0.412663 -0.000248853 0)
(0.41267 -0.000271561 0)
(0.412671 -0.000300139 0)
(0.412665 -0.000335983 0)
(0.412649 -0.0003804 0)
(0.412621 -0.000434739 0)
(0.412578 -0.000500576 0)
(0.412517 -0.000579866 0)
(0.412435 -0.000675208 0)
(0.412327 -0.000790031 0)
(0.412188 -0.000928669 0)
(0.41201 -0.00109653 0)
(0.411786 -0.00130006 0)
(0.411505 -0.00154661 0)
(0.411153 -0.00184435 0)
(0.410714 -0.00220212 0)
(0.410166 -0.00262907 0)
(0.409486 -0.00313496 0)
(0.408632 -0.00372625 0)
(0.407592 -0.00441491 0)
(0.406216 -0.00516362 0)
(0.412465 -3.36927e-05 0)
(0.412487 -9.37272e-05 0)
(0.412526 -0.000133047 0)
(0.412564 -0.000157091 0)
(0.412593 -0.000176856 0)
(0.412617 -0.000195448 0)
(0.412638 -0.000211841 0)
(0.412656 -0.000226474 0)
(0.412671 -0.000241354 0)
(0.412682 -0.000258497 0)
(0.412687 -0.000279393 0)
(0.412686 -0.000305287 0)
(0.412677 -0.000337377 0)
(0.412657 -0.000376814 0)
(0.412624 -0.000424775 0)
(0.412575 -0.000482633 0)
(0.412507 -0.000552104 0)
(0.412416 -0.000635427 0)
(0.412297 -0.000735557 0)
(0.412145 -0.000856177 0)
(0.411952 -0.00100199 0)
(0.411709 -0.00117844 0)
(0.411406 -0.00139161 0)
(0.411028 -0.00164808 0)
(0.410559 -0.00195478 0)
(0.409978 -0.00231828 0)
(0.409259 -0.0027457 0)
(0.408366 -0.00323923 0)
(0.407287 -0.0038136 0)
(0.405887 -0.00441353 0)
(0.412467 -4.36439e-05 0)
(0.412499 -0.000115225 0)
(0.412549 -0.000152911 0)
(0.412592 -0.000171515 0)
(0.412622 -0.000186895 0)
(0.412646 -0.00020153 0)
(0.412667 -0.000213907 0)
(0.412685 -0.000224754 0)
(0.412699 -0.000236032 0)
(0.412708 -0.000249416 0)
(0.412712 -0.000266049 0)
(0.412709 -0.000286933 0)
(0.412697 -0.000313067 0)
(0.412674 -0.000345435 0)
(0.412637 -0.000385031 0)
(0.412583 -0.000432997 0)
(0.412509 -0.0004908 0)
(0.41241 -0.000560344 0)
(0.412282 -0.00064415 0)
(0.412118 -0.000745049 0)
(0.411912 -0.000867079 0)
(0.411654 -0.00101466 0)
(0.411332 -0.0011926 0)
(0.410934 -0.00140606 0)
(0.410441 -0.00166037 0)
(0.409833 -0.00195986 0)
(0.409087 -0.00230956 0)
(0.408163 -0.00270656 0)
(0.407055 -0.00317372 0)
(0.405627 -0.00363818 0)
(0.412472 -5.8576e-05 0)
(0.412519 -0.000143018 0)
(0.412585 -0.000180448 0)
(0.412635 -0.000200266 0)
(0.412666 -0.000218023 0)
(0.412689 -0.000233286 0)
(0.412711 -0.000245112 0)
(0.412729 -0.00025529 0)
(0.412742 -0.000265779 0)
(0.412751 -0.000277722 0)
(0.412753 -0.000291983 0)
(0.412748 -0.000309447 0)
(0.412734 -0.000330937 0)
(0.412708 -0.00035726 0)
(0.412667 -0.000389238 0)
(0.412609 -0.000427811 0)
(0.41253 -0.000474148 0)
(0.412425 -0.000529682 0)
(0.412289 -0.000596636 0)
(0.412117 -0.000676897 0)
(0.4119 -0.000773881 0)
(0.411629 -0.000891036 0)
(0.411293 -0.00103198 0)
(0.410878 -0.0012005 0)
(0.410366 -0.00140021 0)
(0.409737 -0.00163305 0)
(0.408971 -0.0019016 0)
(0.408024 -0.00219591 0)
(0.406898 -0.00254834 0)
(0.405437 -0.00288696 0)
(0.412479 -8.70015e-05 0)
(0.41255 -0.000160377 0)
(0.412634 -0.000173957 0)
(0.412688 -0.000183582 0)
(0.412719 -0.000196099 0)
(0.412745 -0.000207051 0)
(0.412767 -0.000215342 0)
(0.412786 -0.000222515 0)
(0.412799 -0.000229873 0)
(0.412806 -0.000238954 0)
(0.412808 -0.000249862 0)
(0.412802 -0.000263087 0)
(0.412786 -0.00027918 0)
(0.412759 -0.000298676 0)
(0.412716 -0.000322216 0)
(0.412654 -0.000350624 0)
(0.412571 -0.000384926 0)
(0.412461 -0.000426417 0)
(0.41232 -0.000476446 0)
(0.412141 -0.000537078 0)
(0.411915 -0.000609932 0)
(0.411635 -0.000697217 0)
(0.411288 -0.000801642 0)
(0.41086 -0.000925858 0)
(0.410335 -0.00107219 0)
(0.409692 -0.00124134 0)
(0.408915 -0.00143374 0)
(0.407952 -0.00163048 0)
(0.406824 -0.0018638 0)
(0.405227 -0.00196513 0)
(0.41249 -0.000155247 0)
(0.41264 -0.000289103 0)
(0.412758 -0.000273857 0)
(0.412791 -0.000270822 0)
(0.412814 -0.000277405 0)
(0.412837 -0.000283143 0)
(0.412858 -0.000286768 0)
(0.412872 -0.000290166 0)
(0.412879 -0.000294246 0)
(0.41288 -0.000299179 0)
(0.412873 -0.000305217 0)
(0.412857 -0.000312747 0)
(0.41283 -0.000322023 0)
(0.412789 -0.00033371 0)
(0.412731 -0.000348073 0)
(0.412654 -0.000365464 0)
(0.412553 -0.000386527 0)
(0.412422 -0.000411446 0)
(0.412256 -0.000443327 0)
(0.412048 -0.000477208 0)
(0.411789 -0.000522364 0)
(0.411468 -0.000576851 0)
(0.411072 -0.000641838 0)
(0.410588 -0.00071896 0)
(0.409999 -0.000809357 0)
(0.409288 -0.00091301 0)
(0.408437 -0.00102976 0)
(0.407414 -0.00113253 0)
(0.40621 -0.00127199 0)
(0.403913 -0.000813654 0)
(0.412111 -0.000107015 0)
(0.411835 -0.000182572 0)
(0.411412 -0.000195255 0)
(0.410924 -0.000199922 0)
(0.410434 -0.000205789 0)
(0.409946 -0.000210332 0)
(0.409454 -0.00021375 0)
(0.408955 -0.000216845 0)
(0.40845 -0.000219837 0)
(0.407937 -0.000222859 0)
(0.407417 -0.000226095 0)
(0.406888 -0.000229714 0)
(0.406346 -0.000233862 0)
(0.405791 -0.000238605 0)
(0.405218 -0.000244068 0)
(0.404624 -0.00025047 0)
(0.404005 -0.000258069 0)
(0.403355 -0.00026724 0)
(0.402669 -0.000277817 0)
(0.401938 -0.000290935 0)
(0.401154 -0.000306422 0)
(0.400306 -0.000324307 0)
(0.39938 -0.000345078 0)
(0.398364 -0.000369362 0)
(0.397238 -0.000398052 0)
(0.395988 -0.000430473 0)
(0.394595 -0.00047131 0)
(0.393059 -0.00049056 0)
(0.391446 -0.00058652 0)
(0.388218 -3.78321e-06 0)
(0.414634 -0.00175081 -1.03271e-18)
(0.41975 -0.00231832 -7.93312e-21)
(0.423525 -0.00275322 1.062e-18)
(0.425527 -0.00335991 2.1352e-18)
(0.426648 -0.0041749 1.0906e-18)
(0.427413 -0.00515855 -1.08242e-18)
(0.428017 -0.00628092 1.10422e-18)
(0.428549 -0.00753972 0)
(0.429062 -0.00893814 1.12037e-18)
(0.429577 -0.0104761 -4.26468e-21)
(0.430089 -0.0121576 7.87542e-20)
(0.430589 -0.0139957 0)
(0.431072 -0.0160128 -1.32705e-18)
(0.431538 -0.0182384 0)
(0.431991 -0.0207097 0)
(0.432434 -0.0234742 -1.45889e-18)
(0.43287 -0.0265937 -1.40158e-18)
(0.433301 -0.0301499 -1.84871e-22)
(0.433727 -0.0342516 1.39494e-18)
(0.434148 -0.0390468 2.0689e-19)
(0.434565 -0.0447375 -1.91833e-18)
(0.434972 -0.0516256 2.21276e-19)
(0.435374 -0.0600684 -1.14627e-19)
(0.435721 -0.0709548 1.74639e-18)
(0.436153 -0.084322 2.39732e-19)
(0.436221 -0.10491 -1.2224e-19)
(0.437148 -0.126277 0)
(0.436085 -0.178469 -1.50858e-18)
(0.440667 -0.211271 -1.61482e-18)
(0.437433 -0.39163 0)
(0.423847 -0.00244531 1.03578e-18)
(0.425535 -0.00278892 -2.44186e-20)
(0.426563 -0.00343983 2.08612e-20)
(0.426701 -0.00432069 -1.08025e-18)
(0.426822 -0.00534403 -3.46161e-20)
(0.427097 -0.00646733 1.16786e-18)
(0.427492 -0.00769196 1.09035e-18)
(0.427941 -0.00902935 1.48683e-19)
(0.428409 -0.0104846 -7.6299e-20)
(0.428873 -0.0120633 1.24842e-18)
(0.429317 -0.0137794 1.36915e-18)
(0.429732 -0.0156546 1.24282e-18)
(0.430122 -0.0177154 1.44953e-18)
(0.430488 -0.0199922 1.31861e-18)
(0.430833 -0.0225232 1.4508e-18)
(0.431155 -0.0253574 3.07763e-18)
(0.43145 -0.0285587 1.45292e-18)
(0.431714 -0.0322109 -1.70358e-18)
(0.431939 -0.0364257 1.76552e-18)
(0.432114 -0.0413537 -1.07029e-19)
(0.432221 -0.0472016 1.11138e-19)
(0.432236 -0.0542671 1.85998e-18)
(0.432113 -0.0629419 0)
(0.431787 -0.0740074 -1.23272e-19)
(0.431202 -0.0878427 2.20124e-18)
(0.429962 -0.108242 0)
(0.428643 -0.130932 2.17078e-18)
(0.42432 -0.181213 -1.84566e-18)
(0.422672 -0.216679 -3.54276e-20)
(0.409863 -0.389737 -8.06323e-20)
(0.423571 -0.00277308 -8.07022e-21)
(0.424262 -0.00332437 -8.17507e-21)
(0.424818 -0.00428772 -1.05723e-18)
(0.425222 -0.00538162 -3.436e-20)
(0.42563 -0.00649704 3.5224e-20)
(0.426144 -0.00764846 -3.60033e-20)
(0.426666 -0.00887567 -1.14258e-18)
(0.427135 -0.0102031 0)
(0.427551 -0.0116448 0)
(0.427928 -0.0132156 0)
(0.428274 -0.0149335 -1.30957e-18)
(0.428591 -0.0168189 -7.62591e-20)
(0.428881 -0.0188953 -1.21392e-18)
(0.429141 -0.0211921 -1.43124e-18)
(0.429368 -0.023748 -1.57011e-18)
(0.429553 -0.0266133 -1.5269e-18)
(0.42969 -0.0298531 1.14504e-19)
(0.429767 -0.0335522 1.53399e-18)
(0.429769 -0.0378233 -1.59097e-18)
(0.429673 -0.0428177 -1.10847e-19)
(0.429444 -0.0487442 0)
(0.429033 -0.0558962 -3.96593e-18)
(0.428363 -0.0646894 1.2508e-19)
(0.427307 -0.0758077 -2.1112e-18)
(0.425734 -0.0899558 6.54214e-20)
(0.423067 -0.109912 0)
(0.41967 -0.133953 -4.66341e-18)
(0.411932 -0.181391 4.24044e-18)
(0.404401 -0.220945 -2.32934e-18)
(0.381173 -0.384207 6.18592e-20)
(0.423496 -0.00402604 0)
(0.424037 -0.00478578 -1.08737e-18)
(0.424531 -0.00574544 2.83146e-23)
(0.424927 -0.00674385 1.74917e-20)
(0.425296 -0.00776185 0)
(0.42567 -0.00885659 0)
(0.426023 -0.0100653 -1.20585e-18)
(0.426341 -0.0113962 0)
(0.426635 -0.0128522 7.9233e-20)
(0.426912 -0.0144419 -1.63017e-19)
(0.427167 -0.0161799 5.96208e-23)
(0.427394 -0.0180851 -1.29191e-18)
(0.427584 -0.0201821 8.91438e-20)
(0.427731 -0.0225025 1.38713e-18)
(0.427829 -0.0250868 9.52281e-20)
(0.427866 -0.0279864 1.48662e-18)
(0.427832 -0.0312671 -1.62726e-18)
(0.427708 -0.0350141 -1.709e-18)
(0.427469 -0.0393407 0)
(0.42708 -0.0443988 1.73979e-18)
(0.426488 -0.0503968 1.19896e-19)
(0.425622 -0.0576268 2.11487e-18)
(0.424362 -0.0665069 -1.31072e-19)
(0.42254 -0.0776828 2.17147e-18)
(0.419886 -0.0919837 -2.2668e-18)
(0.41579 -0.111631 0)
(0.410062 -0.136422 2.51091e-18)
(0.399095 -0.181322 -2.36067e-18)
(0.385262 -0.223596 2.38713e-18)
(0.352204 -0.37581 5.00699e-20)
(0.423103 -0.00514493 0)
(0.423494 -0.00587976 1.08406e-18)
(0.423833 -0.00676431 0)
(0.424144 -0.00773207 0)
(0.424447 -0.00877497 0)
(0.42475 -0.009915 0)
(0.42504 -0.0111634 1.22337e-18)
(0.425305 -0.0125205 3.93416e-20)
(0.425542 -0.0139912 -4.04763e-20)
(0.425749 -0.0155895 0)
(0.425918 -0.0173344 0)
(0.426045 -0.0192481 8.85195e-20)
(0.426122 -0.021357 3.93683e-23)
(0.426144 -0.0236934 -1.60065e-18)
(0.4261 -0.0262977 0)
(0.425977 -0.0292211 -1.61634e-18)
(0.425757 -0.0325293 0)
(0.425413 -0.0363079 1.85546e-18)
(0.424913 -0.0406696 -2.28925e-19)
(0.424207 -0.0457656 -1.77916e-18)
(0.423226 -0.0518028 1.01077e-18)
(0.42187 -0.0590692 0)
(0.419984 -0.0679789 0)
(0.417346 -0.0791488 0)
(0.413567 -0.0934615 1.24956e-18)
(0.407985 -0.112755 -1.32125e-18)
(0.399851 -0.137859 0)
(0.385727 -0.180197 -1.42216e-18)
(0.365456 -0.224338 -1.52368e-18)
(0.32304 -0.364561 9.15772e-19)
(0.422554 -0.00615727 5.31031e-19)
(0.422853 -0.00692101 5.60734e-19)
(0.423104 -0.00782014 5.83303e-19)
(0.42336 -0.00880656 5.4358e-19)
(0.423615 -0.00986839 6.501e-19)
(0.423852 -0.0110153 5.72112e-19)
(0.424062 -0.0122589 6.26838e-19)
(0.42424 -0.0136082 -6.44588e-19)
(0.424383 -0.0150744 4.13363e-20)
(0.42449 -0.0166731 5.98562e-19)
(0.424554 -0.0184225 7.05387e-19)
(0.424569 -0.0203436 6.83272e-19)
(0.424526 -0.0224618 9.37611e-20)
(0.424414 -0.0248089 -7.80857e-19)
(0.42422 -0.0274252 1.00868e-19)
(0.423925 -0.030362 -2.09378e-19)
(0.423505 -0.0336849 -7.68303e-19)
(0.422927 -0.037479 -9.15369e-19)
(0.422146 -0.0418557 0)
(0.421103 -0.0469644 -1.24892e-19)
(0.419707 -0.0530081 1.88337e-20)
(0.417834 -0.0602688 1.37171e-19)
(0.415289 -0.0691506 1.03331e-18)
(0.411796 -0.0802449 2.31171e-19)
(0.406855 -0.0944356 -3.54901e-20)
(0.399741 -0.113306 1.45743e-18)
(0.389158 -0.138288 -9.2447e-20)
(0.371955 -0.178043 1.48907e-18)
(0.345207 -0.223164 1.69361e-18)
(0.29438 -0.35029 -1.07005e-18)
(0.421871 -0.00712821 -5.46067e-19)
(0.422095 -0.00790491 -5.50343e-19)
(0.422266 -0.00880246 -5.82e-19)
(0.422454 -0.00978461 2.1072e-20)
(0.422641 -0.0108448 -1.18949e-18)
(0.4228 -0.0119918 -6.18862e-19)
(0.422926 -0.0132367 -1.35546e-18)
(0.423018 -0.0145893 7.79817e-20)
(0.423073 -0.0160599 -4.22491e-20)
(0.423086 -0.0176624 -1.39466e-18)
(0.423049 -0.0194141 5.59851e-21)
(0.422951 -0.0213362 -6.94796e-19)
(0.422783 -0.0234546 7.26248e-19)
(0.42253 -0.0258018 -7.89609e-21)
(0.422175 -0.0284181 1.03969e-19)
(0.421696 -0.0313544 -1.07852e-19)
(0.421063 -0.0346752 8.95744e-19)
(0.420235 -0.0384641 9.35757e-19)
(0.419158 -0.0428306 1.23909e-19)
(0.417757 -0.0479202 7.87712e-19)