/*--------------------------------*- C++ -*----------------------------------*\
  =========                 |
  \\      /  F ield         | OpenFOAM: The Open Source CFD Toolbox
   \\    /   O peration     | Website:  https://openfoam.org
    \\  /    A nd           | Version:  11
     \\/     M anipulation  |
\*---------------------------------------------------------------------------*/
FoamFile
{
    format      ascii;
    class       volScalarField;
    location    "0.5";
    object      p;
}
// * * * * * * * * * * * * * * * * * * * * * * * * * * * * * * * * * * * * * //

dimensions      [0 2 -2 0 0 0 0];

internalField   nonuniform List<scalar> 
12600
(
0.0738307
0.0736951
0.0736309
0.0736112
0.0735916
0.0735666
0.0735558
0.0735333
0.0734992
0.0734301
0.0733658
0.073316
0.0732502
0.0731887
0.0731398
0.0730705
0.0729678
0.0728399
0.0726837
0.0724942
0.0722653
0.0719898
0.0716575
0.0712543
0.0707648
0.0701664
0.0694381
0.0685478
0.0674666
0.0661168
0.0737558
0.0736847
0.0736318
0.0736111
0.0735949
0.0735726
0.0735397
0.0735139
0.0734842
0.0734329
0.073378
0.0733328
0.0732706
0.0732056
0.0731408
0.0730628
0.0729652
0.0728418
0.0726895
0.0725035
0.0722786
0.0720071
0.0716789
0.0712801
0.070797
0.0702045
0.0694855
0.0686038
0.067546
0.066285
0.0737208
0.073687
0.073641
0.0736126
0.0735946
0.0735754
0.073541
0.0735157
0.0734914
0.0734439
0.0733958
0.0733363
0.0732692
0.0732155
0.0731567
0.0730766
0.0729768
0.0728542
0.0727052
0.0725232
0.0723032
0.0720377
0.0717165
0.0713263
0.0708522
0.0702729
0.0695681
0.0687087
0.0676726
0.0664302
0.0736966
0.0736754
0.0736388
0.0736111
0.0735942
0.0735762
0.0735446
0.0735096
0.0734805
0.0734432
0.0733953
0.0733391
0.0732841
0.0732315
0.0731653
0.0730857
0.0729893
0.0728721
0.0727285
0.072553
0.0723405
0.0720839
0.0717729
0.0713951
0.0709355
0.0703751
0.069692
0.0688604
0.0678491
0.0666267
0.0736792
0.0736653
0.0736374
0.0736129
0.0735964
0.0735773
0.0735461
0.0735102
0.0734867
0.0734587
0.0734112
0.0733555
0.0732998
0.0732465
0.0731826
0.0731047
0.0730109
0.0728981
0.0727603
0.0725923
0.0723891
0.0721437
0.0718463
0.0714849
0.071045
0.0705087
0.0698542
0.0690565
0.0680798
0.0668959
0.0736668
0.0736569
0.0736354
0.0736134
0.0735971
0.073579
0.0735489
0.0735134
0.0734872
0.073459
0.0734145
0.0733619
0.0733116
0.0732631
0.0732024
0.0731265
0.0730366
0.0729297
0.0727996
0.0726409
0.0724492
0.0722175
0.0719367
0.0715953
0.0711797
0.0706729
0.0700536
0.0692972
0.0683666
0.0672349
0.0736578
0.0736504
0.0736331
0.0736138
0.0735993
0.0735818
0.073551
0.0735157
0.0734927
0.0734708
0.0734299
0.0733797
0.0733313
0.0732832
0.0732247
0.0731522
0.0730675
0.0729677
0.0728463
0.0726983
0.0725197
0.072304
0.0720427
0.071725
0.0713381
0.0708661
0.0702885
0.0695815
0.0687079
0.0676414
0.0736515
0.0736455
0.0736313
0.0736148
0.0736013
0.073584
0.0735545
0.0735215
0.0734996
0.0734788
0.0734396
0.0733904
0.0733465
0.0733036
0.0732498
0.0731819
0.0731031
0.0730111
0.0728995
0.0727637
0.0726
0.0724026
0.0721634
0.0718727
0.0715187
0.0710865
0.0705569
0.0699074
0.0691012
0.0681132
0.0736472
0.0736422
0.0736303
0.0736159
0.0736039
0.0735876
0.0735592
0.0735269
0.0735062
0.0734883
0.0734534
0.0734075
0.0733665
0.0733272
0.0732773
0.0732146
0.0731427
0.0730596
0.0729589
0.0728365
0.0726893
0.0725121
0.0722975
0.0720369
0.0717196
0.071332
0.0708566
0.0702722
0.0695438
0.0686476
0.0736445
0.0736403
0.07363
0.0736176
0.0736069
0.0735915
0.0735639
0.0735332
0.073515
0.0734999
0.0734673
0.073424
0.0733863
0.0733516
0.0733069
0.0732503
0.073186
0.0731124
0.0730235
0.0729158
0.0727865
0.0726313
0.0724436
0.0722159
0.0719386
0.0716001
0.0711844
0.0706725
0.0700319
0.0692406
0.0736433
0.0736396
0.0736306
0.0736198
0.0736104
0.0735959
0.0735696
0.0735406
0.0735241
0.0735109
0.0734814
0.0734417
0.0734079
0.0733778
0.0733385
0.0732884
0.0732323
0.073169
0.0730929
0.0730007
0.0728907
0.072759
0.0726001
0.0724076
0.0721736
0.071888
0.0715371
0.0711044
0.070561
0.0698871
0.0736434
0.0736401
0.073632
0.0736225
0.0736143
0.0736009
0.0735756
0.0735481
0.0735339
0.0735233
0.0734966
0.0734602
0.0734303
0.0734049
0.0733716
0.0733286
0.0732813
0.0732288
0.0731661
0.0730904
0.0730006
0.0728937
0.0727653
0.0726101
0.0724219
0.0721925
0.0719108
0.0715633
0.0711253
0.0705805
0.0736446
0.0736415
0.0736342
0.0736258
0.0736188
0.0736062
0.0735823
0.0735566
0.0735441
0.0735356
0.0735119
0.0734793
0.0734536
0.0734332
0.0734059
0.0733704
0.0733323
0.0732911
0.0732424
0.0731839
0.0731151
0.073034
0.0729373
0.072821
0.0726807
0.0725102
0.0723014
0.0720438
0.0717184
0.0713127
0.0736467
0.0736439
0.0736372
0.0736297
0.0736236
0.073612
0.0735892
0.0735652
0.073555
0.0735487
0.0735278
0.0734988
0.0734773
0.0734621
0.073441
0.0734133
0.0733847
0.0733553
0.0733209
0.07328
0.0732329
0.0731784
0.0731142
0.073038
0.0729471
0.0728375
0.0727041
0.0725402
0.0723328
0.0720741
0.0736497
0.0736471
0.0736408
0.0736341
0.073629
0.073618
0.0735965
0.0735743
0.0735661
0.0735618
0.0735437
0.0735185
0.0735015
0.0734914
0.0734767
0.0734569
0.0734381
0.0734205
0.0734007
0.0733778
0.0733527
0.0733252
0.0732942
0.0732588
0.073218
0.0731705
0.0731142
0.0730462
0.0729603
0.0728539
0.0736536
0.073651
0.073645
0.0736391
0.0736346
0.0736244
0.0736039
0.0735836
0.0735775
0.0735751
0.0735597
0.0735382
0.0735256
0.0735207
0.0735125
0.0735007
0.0734918
0.0734861
0.073481
0.0734761
0.0734731
0.0734727
0.0734751
0.0734806
0.0734904
0.0735053
0.0735265
0.0735552
0.073592
0.07364
0.0736582
0.0736558
0.0736498
0.0736444
0.0736406
0.073631
0.0736114
0.0735931
0.073589
0.0735882
0.0735755
0.0735577
0.0735495
0.0735498
0.0735479
0.0735443
0.0735452
0.0735515
0.0735609
0.073574
0.0735929
0.0736195
0.0736549
0.0737011
0.073761
0.0738379
0.0739359
0.0740604
0.0742189
0.0744202
0.0736637
0.0736612
0.0736553
0.07365
0.0736466
0.0736378
0.0736192
0.0736025
0.0736001
0.0736011
0.0735911
0.0735768
0.073573
0.0735784
0.0735827
0.0735871
0.0735977
0.0736157
0.0736396
0.0736702
0.0737108
0.0737638
0.0738316
0.0739178
0.0740268
0.0741643
0.0743375
0.0745554
0.074832
0.0751818
0.0736699
0.0736674
0.0736613
0.0736559
0.0736527
0.0736447
0.0736271
0.0736116
0.0736111
0.0736141
0.0736064
0.0735952
0.0735956
0.073606
0.0736165
0.0736288
0.0736489
0.0736783
0.0737161
0.0737639
0.0738254
0.073904
0.0740033
0.0741281
0.0742847
0.0744807
0.0747262
0.0750337
0.0754228
0.075913
0.073677
0.0736743
0.0736678
0.0736619
0.0736587
0.0736515
0.0736353
0.0736207
0.0736211
0.0736262
0.0736209
0.073613
0.0736175
0.0736323
0.0736488
0.0736688
0.073698
0.0737385
0.0737898
0.0738539
0.0739354
0.0740386
0.0741681
0.0743299
0.0745318
0.0747835
0.0750976
0.0754894
0.0759834
0.0766031
0.0736849
0.0736819
0.0736748
0.073668
0.0736647
0.0736584
0.0736428
0.0736291
0.0736315
0.0736383
0.0736345
0.0736295
0.073638
0.073657
0.0736794
0.0737067
0.0737447
0.0737957
0.0738597
0.0739394
0.0740399
0.0741663
0.0743242
0.0745208
0.0747654
0.0750693
0.0754473
0.0759174
0.0765072
0.0772432
0.0736939
0.0736904
0.0736821
0.0736741
0.0736705
0.0736651
0.0736508
0.0736377
0.0736405
0.0736488
0.0736471
0.0736453
0.0736569
0.0736798
0.0737081
0.0737423
0.0737885
0.0738493
0.0739252
0.0740193
0.0741375
0.0742855
0.0744698
0.0746987
0.0749829
0.0753351
0.0757718
0.076313
0.0769885
0.0778266
0.073704
0.0736997
0.0736897
0.0736802
0.0736762
0.0736712
0.0736574
0.0736458
0.0736505
0.0736594
0.0736579
0.0736585
0.0736733
0.0737001
0.0737341
0.0737751
0.0738288
0.0738987
0.0739855
0.0740929
0.0742272
0.074395
0.0746035
0.0748619
0.0751821
0.0755781
0.0760678
0.0766725
0.0774234
0.0783486
0.0737157
0.07371
0.0736973
0.0736856
0.0736815
0.0736777
0.0736643
0.0736526
0.0736579
0.0736686
0.0736697
0.0736725
0.0736893
0.0737195
0.0737574
0.0738044
0.0738653
0.0739435
0.0740402
0.0741595
0.0743082
0.0744936
0.0747237
0.0750086
0.0753609
0.0757959
0.0763324
0.076993
0.0778088
0.0788071
0.0737293
0.0737214
0.0737049
0.0736908
0.0736857
0.0736825
0.0736715
0.0736614
0.0736662
0.0736745
0.0736739
0.0736794
0.0736996
0.0737338
0.0737778
0.0738308
0.0738979
0.0739833
0.0740885
0.0742181
0.0743795
0.0745804
0.0748294
0.0751373
0.0755176
0.0759864
0.0765635
0.0772721
0.0781432
0.079202
0.0737458
0.0737339
0.0737113
0.0736953
0.0736904
0.0736876
0.0736767
0.0736663
0.0736754
0.0736862
0.0736857
0.0736943
0.0737126
0.0737461
0.0737942
0.0738531
0.0739265
0.074018
0.0741302
0.0742684
0.0744403
0.0746541
0.0749191
0.0752466
0.0756505
0.0761478
0.0767589
0.077508
0.0784256
0.079535
0.0737664
0.0737476
0.0737163
0.0736971
0.0736931
0.0736914
0.0736812
0.0736746
0.073679
0.073681
0.0736839
0.0736962
0.0737167
0.0737562
0.0738079
0.0738705
0.0739491
0.0740463
0.0741645
0.07431
0.0744904
0.0747147
0.0749926
0.0753357
0.0757586
0.0762787
0.0769172
0.0776989
0.078656
0.0798091
0.0737932
0.0737619
0.0737213
0.0737015
0.073697
0.0736937
0.0736821
0.0736855
0.0736966
0.0736903
0.0736953
0.0737054
0.0737162
0.0737594
0.0738189
0.073888
0.0739707
0.0740703
0.0741917
0.074342
0.0745284
0.0747604
0.0750479
0.0754031
0.0758405
0.0763779
0.0770367
0.0778426
0.0788323
0.0800307
0.0738296
0.0737616
0.0737147
0.0737024
0.0736987
0.0736932
0.073686
0.0736883
0.0736921
0.0736875
0.0736914
0.0737083
0.0737257
0.0737615
0.0738204
0.0738927
0.0739818
0.0740862
0.0742107
0.0743645
0.0745553
0.0747927
0.0750865
0.0754494
0.0758962
0.0764448
0.0771168
0.0779375
0.0789457
0.0801909
0.073906
0.0737725
0.0737144
0.0737033
0.0736964
0.0736881
0.0736953
0.0737073
0.0737112
0.0736878
0.0736811
0.0736934
0.0737114
0.0737539
0.0738283
0.073912
0.0739967
0.0740985
0.0742242
0.0743775
0.0745687
0.0748077
0.0751054
0.0754729
0.0759251
0.0764801
0.0771594
0.0779893
0.078997
0.0802208
0.0652691
0.0645135
0.0639895
0.0636476
0.063292
0.0628786
0.0624418
0.0620078
0.0615818
0.0611621
0.0607477
0.0603374
0.0599291
0.0595192
0.0591034
0.0586763
0.0582309
0.0577579
0.0572446
0.0566727
0.0560166
0.0552318
0.0542749
0.0529453
0.051432
0.0479245
0.0464678
0.0313319
0.0345214
-0.0454637
0.0655513
0.0648873
0.0643576
0.0640002
0.0636423
0.0632406
0.0628347
0.0624466
0.0620721
0.0617047
0.0613427
0.0609859
0.0606326
0.0602805
0.0599265
0.0595668
0.0591965
0.0588086
0.0583936
0.0579378
0.0574208
0.0568106
0.0560598
0.0550529
0.0537774
0.0512229
0.0495314
0.0378329
0.0393488
-0.028955
0.0654694
0.0649858
0.0645898
0.0642768
0.0639574
0.06361
0.0632624
0.0629285
0.0626041
0.0622851
0.061972
0.0616661
0.0613667
0.0610722
0.0607808
0.0604903
0.0601977
0.0598984
0.0595864
0.0592525
0.0588825
0.058454
0.0579288
0.057233
0.056292
0.054532
0.052977
0.0442613
0.0447045
-0.0121449
0.0656299
0.0652839
0.0649841
0.064693
0.0643911
0.0640819
0.0637802
0.0634919
0.0632139
0.0629441
0.0626833
0.0624326
0.0621916
0.0619598
0.0617369
0.0615221
0.0613145
0.0611123
0.060913
0.0607123
0.0605024
0.0602707
0.0599916
0.0596203
0.0590746
0.0580403
0.0568836
0.0507975
0.0506976
0.0045907
0.0659098
0.0656368
0.0653976
0.0651375
0.0648691
0.0646079
0.0643589
0.0641213
0.0638935
0.0636758
0.0634694
0.0632759
0.063096
0.0629303
0.0627799
0.0626458
0.0625291
0.0624311
0.0623527
0.0622948
0.0622566
0.0622351
0.0622191
0.0621878
0.062079
0.0617314
0.0611772
0.0574081
0.0573235
0.0211049
0.0662801
0.0660654
0.0658829
0.0656639
0.065435
0.0652197
0.0650194
0.0648303
0.0646523
0.0644871
0.0643369
0.0642033
0.0640879
0.0639924
0.0639193
0.0638714
0.0638521
0.0638655
0.0639166
0.0640113
0.0641561
0.0643582
0.0646209
0.0649466
0.0653025
0.0656294
0.0658139
0.0641153
0.0644651
0.0373816
0.0667316
0.0665686
0.0664378
0.0662606
0.0660723
0.0659025
0.0657513
0.0656127
0.065487
0.0653771
0.0652857
0.0652149
0.0651673
0.0651458
0.0651544
0.0651978
0.0652817
0.0654134
0.0656017
0.065858
0.0661962
0.0666335
0.0671886
0.0678859
0.0687258
0.0697245
0.0707351
0.0708959
0.072011
0.0532756
0.0672608
0.0671462
0.0670642
0.0669302
0.0667846
0.0666614
0.0665598
0.0664727
0.0664005
0.0663473
0.0663166
0.0663111
0.0663343
0.0663904
0.0664849
0.0666244
0.066817
0.0670731
0.0674056
0.0678314
0.0683717
0.0690542
0.0699125
0.0709925
0.0723287
0.073998
0.0758821
0.0777197
0.0798718
0.0685985
0.0678648
0.0677962
0.0677612
0.0676709
0.0675692
0.0674928
0.0674412
0.0674066
0.0673894
0.0673947
0.0674268
0.067489
0.0675859
0.0677228
0.0679069
0.0681465
0.0684524
0.068838
0.0693205
0.069922
0.0706714
0.0716063
0.0727751
0.0742445
0.076082
0.0784163
0.0811895
0.0845408
0.0879291
0.0831714
0.0685402
0.0685158
0.0685257
0.0684794
0.0684225
0.0683937
0.0683926
0.0684112
0.0684503
0.0685155
0.0686119
0.0687438
0.0689165
0.0691368
0.0694132
0.0697561
0.0701788
0.0706977
0.0713342
0.0721157
0.0730784
0.0742698
0.0757522
0.0776121
0.0799484
0.0829342
0.0865856
0.0912994
0.0960473
0.0968272
0.069282
0.0692998
0.0693526
0.0693503
0.069339
0.0693581
0.0694078
0.0694802
0.0695763
0.0697023
0.0698642
0.070067
0.070317
0.0706222
0.0709928
0.071441
0.0719824
0.0726367
0.0734292
0.0743925
0.0755696
0.0770176
0.078812
0.0810571
0.0838814
0.087495
0.0919915
0.0979222
0.104076
0.109416
0.0700833
0.0701413
0.0702345
0.070276
0.0703107
0.0703778
0.0704782
0.0706044
0.0707577
0.070945
0.0711727
0.0714469
0.0717746
0.0721654
0.0726306
0.0731845
0.073845
0.0746347
0.0755826
0.0767264
0.0781156
0.0798159
0.081915
0.0845336
0.0878258
0.092033
0.0973214
0.104324
0.111857
0.120806
0.0709347
0.0710308
0.0711618
0.0712464
0.0713272
0.071442
0.0715925
0.071772
0.0719821
0.07223
0.0725231
0.072868
0.073273
0.0737484
0.0743072
0.0749655
0.0757433
0.0766659
0.0777661
0.0790859
0.0806809
0.0826245
0.0850152
0.087988
0.0917194
0.0964748
0.102484
0.11041
0.119223
0.130871
0.0718247
0.0719565
0.0721226
0.0722491
0.0723755
0.0725371
0.0727365
0.072968
0.0732336
0.073541
0.0738979
0.0743119
0.074792
0.0753498
0.0759996
0.0767589
0.07765
0.0787006
0.0799467
0.0814345
0.0832246
0.0853976
0.0880611
0.0913618
0.0954947
0.100743
0.107388
0.116084
0.126009
0.139453
0.0727398
0.0729048
0.0731027
0.0732696
0.0734404
0.0736474
0.0738938
0.0741752
0.0744942
0.0748587
0.0752768
0.0757568
0.0763088
0.0769451
0.0776812
0.0785363
0.0795342
0.0807052
0.0820878
0.0837319
0.0857026
0.0880861
0.0909976
0.0945932
0.0990819
0.104758
0.111944
0.121252
0.132071
0.146421
0.0736645
0.07386
0.0740867
0.0742916
0.074505
0.0747552
0.075046
0.0753745
0.0757439
0.076162
0.0766374
0.0771793
0.0777982
0.0785075
0.0793236
0.0802671
0.0813632
0.0826442
0.084151
0.0859363
0.0880689
0.0906395
0.0937691
0.0976205
0.102413
0.108445
0.116067
0.125835
0.13731
0.151844
0.0745824
0.0748057
0.0750578
0.075298
0.0755515
0.0758422
0.076174
0.0765459
0.0769615
0.0774289
0.0779568
0.0785549
0.0792346
0.0800097
0.0808978
0.0819203
0.0831038
0.0844821
0.0860979
0.0880062
0.0902785
0.0930089
0.0963222
0.100385
0.105423
0.111736
0.119686
0.129763
0.141674
0.155979
0.0754769
0.0757251
0.0759995
0.0762718
0.0765622
0.0768897
0.0772586
0.0776694
0.0781265
0.0786378
0.0792123
0.07986
0.0805929
0.0814255
0.0823759
0.0834663
0.0847245
0.0861853
0.0878926
0.0899032
0.0922904
0.09515
0.0986092
0.102837
0.108058
0.11457
0.122739
0.132982
0.14512
0.158791
0.076332
0.0766025
0.0768962
0.0771969
0.0775203
0.0778806
0.0782821
0.0787269
0.0792198
0.0797689
0.0803831
0.0810729
0.0818505
0.082731
0.0837329
0.0848791
0.0861977
0.0877245
0.0895043
0.0915946
0.0940697
0.0970261
0.100591
0.104933
0.110276
0.116905
0.125181
0.135442
0.147572
0.160207
0.0771336
0.0774238
0.077734
0.0780592
0.0784113
0.0787999
0.0792292
0.0797024
0.0802252
0.0808054
0.0814521
0.0821757
0.0829889
0.083907
0.0849487
0.0861373
0.0875014
0.0890768
0.0909089
0.0930553
0.0955903
0.0986101
0.102241
0.106646
0.112046
0.11871
0.126982
0.137107
0.148942
0.160354
0.0778703
0.0781777
0.0785019
0.0788477
0.0792238
0.0796359
0.0800877
0.0805837
0.08113
0.0817344
0.0824057
0.0831547
0.0839939
0.0849388
0.0860084
0.0872257
0.0886197
0.090226
0.0920899
0.0942686
0.0968356
0.0998853
0.103541
0.107961
0.113356
0.119975
0.128132
0.137963
0.149282
0.159274
0.0785341
0.0788564
0.0791925
0.0795551
0.0799506
0.0803812
0.0808505
0.0813636
0.0819272
0.0825487
0.083237
0.0840027
0.0848584
0.0858195
0.0869048
0.0881374
0.0895459
0.0911656
0.0930413
0.0952291
0.097801
0.100849
0.104491
0.10888
0.114212
0.120711
0.128656
0.138047
0.148748
0.156875
0.0791201
0.0794553
0.0798014
0.0801773
0.0805875
0.0810321
0.0815138
0.0820387
0.0826135
0.0832456
0.0839436
0.0847179
0.0855809
0.086548
0.0876377
0.0888727
0.0902811
0.0918978
0.0937664
0.0959418
0.0984937
0.101511
0.105106
0.109421
0.114639
0.120951
0.128603
0.137426
0.147458
0.153101
0.0796275
0.0799734
0.0803278
0.0807137
0.0811343
0.0815881
0.0820776
0.0826091
0.0831894
0.0838258
0.0845264
0.0853015
0.0861634
0.087127
0.0882104
0.0894358
0.0908308
0.0924292
0.0942734
0.0964166
0.0989257
0.101885
0.105402
0.109606
0.114666
0.120731
0.128029
0.136171
0.145528
0.148386
0.0800593
0.0804141
0.0807743
0.0811668
0.0815944
0.082054
0.0825474
0.0830811
0.0836623
0.0842978
0.0849952
0.0857644
0.0866174
0.0875688
0.088636
0.0898409
0.09121
0.0927764
0.0945807
0.096674
0.0991203
0.101999
0.105411
0.109473
0.114336
0.120109
0.127008
0.13438
0.143078
0.143075
0.0804228
0.0807846
0.0811464
0.0815405
0.0819712
0.0824331
0.0829263
0.0834576
0.0840348
0.0846643
0.0853531
0.0861106
0.0869486
0.0878812
0.0889245
0.0900996
0.0914325
0.0929548
0.0947056
0.0967335
0.0991
0.101879
0.105164
0.109059
0.1137
0.119144
0.125621
0.132132
0.140229
0.136807
0.0807294
0.0810955
0.0814535
0.0818476
0.0822819
0.0827447
0.0832351
0.0837625
0.0843344
0.0849553
0.0856311
0.0863711
0.0871872
0.0880934
0.0891043
0.0902412
0.0915293
0.0929984
0.0946853
0.0966357
0.0989086
0.101573
0.104715
0.108423
0.112821
0.117908
0.123953
0.129503
0.137085
0.129648
0.0810101
0.0813503
0.0816757
0.0820676
0.0825102
0.0829691
0.0834469
0.0839639
0.0845279
0.0851389
0.0858005
0.0865215
0.0873149
0.0881965
0.0891716
0.0902633
0.0914972
0.0929022
0.0945138
0.0963744
0.0985423
0.101081
0.104067
0.107576
0.111721
0.116431
0.122062
0.126541
0.133741
0.121922
0.0813945
0.0816389
0.0818764
0.0822684
0.0827432
0.0832093
0.0836789
0.0841868
0.0847407
0.0853378
0.0859794
0.0866733
0.0874314
0.088266
0.089199
0.0902458
0.0914268
0.0927718
0.0943101
0.0960754
0.0981314
0.100536
0.103359
0.10666
0.110546
0.114856
0.120097
0.123377
0.130332
0.113903
0.0816644
0.0817041
0.0819009
0.0822883
0.0827625
0.0832153
0.0837018
0.0842238
0.0847846
0.0853845
0.0860211
0.0866972
0.0874239
0.088214
0.0890903
0.0900676
0.0911673
0.092417
0.0938494
0.0955113
0.097447
0.0997099
0.102366
0.105457
0.109098
0.112995
0.117951
0.119895
0.126834
0.105764
0.0986211
0.0915993
0.0839978
0.0762616
0.0689709
0.0625127
0.0572071
0.0533964
0.0514185
0.051551
0.0536387
0.0569215
0.0597833
0.0609795
0.0599973
0.0582527
0.0570998
0.0560124
0.055332
0.0552918
0.055494
0.0550918
0.0545775
0.0541437
0.053569
0.0525853
0.0510836
0.0490925
0.0466067
0.0437078
0.123302
0.118459
0.113052
0.107687
0.102391
0.0969733
0.0915698
0.086515
0.0819466
0.0783548
0.0760606
0.0749321
0.0744363
0.0730956
0.0696912
0.0633799
0.0569399
0.0546394
0.0544904
0.0544299
0.0543182
0.054823
0.0550499
0.0551826
0.0546359
0.0532727
0.0509209
0.0472572
0.0420949
0.0363051
0.117163
0.114384
0.111176
0.107512
0.103194
0.0982879
0.0931159
0.0879685
0.0831151
0.0789131
0.0756786
0.0732003
0.0708801
0.0677869
0.064073
0.0605855
0.0575245
0.0562826
0.0560861
0.0561648
0.0580455
0.060595
0.0621914
0.0612865
0.0586853
0.0543468
0.0482751
0.0400716
0.0295099
0.0186633
0.116509
0.115308
0.113652
0.111119
0.107883
0.104087
0.099803
0.095131
0.0902647
0.0855106
0.0811507
0.0772821
0.073783
0.0704483
0.0673912
0.064379
0.0610744
0.0593409
0.0596141
0.0607005
0.0631438
0.0653325
0.0656348
0.062356
0.0560866
0.0468289
0.0350311
0.0207278
0.00386502
-0.0130711
0.111954
0.111613
0.111008
0.109697
0.107675
0.105031
0.101825
0.0980789
0.0938798
0.0894256
0.0849859
0.0807997
0.0769591
0.0734188
0.0701089
0.0668982
0.0640894
0.0622129
0.0616704
0.0624909
0.0639663
0.064332
0.0615487
0.054828
0.0431871
0.0280358
0.010009
-0.0101018
-0.0319671
-0.0534381
0.108466
0.108742
0.108847
0.108222
0.106865
0.104903
0.10235
0.0991736
0.0954207
0.091248
0.08689
0.0825903
0.078507
0.0746655
0.0710372
0.067658
0.0648407
0.0628514
0.0616173
0.0609276
0.0599677
0.0569578
0.0498492
0.0385361
0.0227377
0.00323542
-0.0188928
-0.0418441
-0.0651655
-0.0887508
0.105055
0.105677
0.106218
0.106112
0.105371
0.10407
0.102169
0.0995967
0.0963502
0.0925334
0.0883354
0.0839874
0.0796934
0.0755673
0.0716612
0.0680458
0.0648721
0.0622575
0.0599778
0.0573941
0.0536963
0.0471604
0.0359039
0.0197562
0.00058218
-0.0212369
-0.0446774
-0.067903
-0.0901593
-0.109023
0.102142
0.102991
0.103822
0.104078
0.10376
0.102935
0.101548
0.0994924
0.0967238
0.0932944
0.0893425
0.0850687
0.0806891
0.0763708
0.072214
0.0682879
0.0646538
0.0612784
0.0578238
0.053499
0.047245
0.0373935
0.0228169
0.00388224
-0.0176987
-0.0401195
-0.0624452
-0.0822912
-0.099412
-0.108942
0.0996124
0.100587
0.101589
0.102085
0.10208
0.101632
0.100661
0.0990381
0.0966856
0.093616
0.0899245
0.0857784
0.0813852
0.0769328
0.0725453
0.0682875
0.0641674
0.0600457
0.0554687
0.0495901
0.0413134
0.0293791
0.0128826
-0.00683759
-0.0281008
-0.0486529
-0.0666218
-0.079791
-0.0878491
-0.0880677
0.097446
0.0984923
0.0995965
0.100258
0.100483
0.100317
0.0996729
0.0984052
0.0964126
0.0936702
0.0902319
0.0862297
0.081853
0.0772947
0.072693
0.0681075
0.0635017
0.0586592
0.0530558
0.0458522
0.0360934
0.0230787
0.00675545
-0.011525
-0.0299249
-0.0461557
-0.0580135
-0.0643354
-0.0645039
-0.0582178
0.0955848
0.0966658
0.0978261
0.0985969
0.0989867
0.0990359
0.0986511
0.0976783
0.095996
0.0935486
0.0903526
0.0865032
0.0821656
0.0775274
0.0727326
0.0678353
0.0627638
0.0572488
0.050744
0.0424831
0.0317535
0.0183178
0.00278002
-0.013342
-0.0280677
-0.0393374
-0.0455802
-0.0461471
-0.0412401
-0.0324981
0.0939825
0.0950751
0.0962636
0.0971076
0.097617
0.0978284
0.0976479
0.0969165
0.0954978
0.0933111
0.0903395
0.086643
0.0823592
0.0776629
0.072697
0.0675095
0.0620056
0.0558887
0.0486295
0.0395827
0.0283074
0.0149636
0.000560528
-0.0131835
-0.024343
-0.0312762
-0.0330831
-0.0298145
-0.0223226
-0.0123155
0.0925982
0.0936856
0.0948848
0.0957782
0.0963751
0.0967099
0.0966907
0.0961572
0.0949623
0.0930043
0.0902371
0.0866878
0.0824647
0.0777254
0.0726068
0.0671519
0.061254
0.0546128
0.0467471
0.0371624
0.025689
0.012828
-0.000144756
-0.0114593
-0.0194034
-0.0228162
-0.0213843
-0.0156926
-0.00693888
0.00304266
0.0913886
0.0924664
0.0936665
0.094594
0.0952564
0.0956866
0.0957958
0.0954249
0.0944198
0.0926618
0.0900792
0.0866686
0.0825089
0.0777375
0.0724823
0.0667829
0.0605305
0.0534406
0.0451042
0.0351936
0.0237978
0.0116922
0.000308451
-0.00865789
-0.013799
-0.0144321
-0.0107639
-0.00377451
0.00512442
0.0140721
0.0903216
0.0913889
0.0925868
0.0935383
0.0942509
0.0947569
0.0949697
0.0947335
0.0938901
0.092307
0.0898904
0.0866087
0.0825123
0.0777166
0.072339
0.0664172
0.0598488
0.0523803
0.043692
0.0336288
0.0225145
0.0113312
0.00156877
-0.00523666
-0.00803696
-0.00660676
-0.00153157
0.00590712
0.0142749
0.0219175
0.0893688
0.0904292
0.0916249
0.0925946
0.0933476
0.0939155
0.0942139
0.0940909
0.0933863
0.0919567
0.089689
0.086526
0.0824907
0.0776762
0.072188
0.0660639
0.0592147
0.0514301
0.0424903
0.0324108
0.0217198
0.0115417
0.00334494
-0.00155444
-0.00247479
0.000436642
0.00627544
0.0136151
0.0211532
0.0275461
0.0885073
0.0895653
0.0907619
0.0917474
0.0925347
0.0931553
0.0935265
0.0935004
0.0929164
0.0916225
0.0894886
0.0864343
0.0824568
0.0776268
0.0720374
0.0657281
0.058629
0.0505816
0.0414725
0.0314802
0.0213051
0.0121547
0.00541571
0.00215183
0.00270562
0.00662326
0.0127594
0.0196823
0.0263049
0.0315957
0.0877224
0.0887807
0.0899808
0.0909819
0.0918005
0.0924682
0.0929036
0.0929625
0.092485
0.0913122
0.0892992
0.0863445
0.0824206
0.0775767
0.0718934
0.0654132
0.0580898
0.0498235
0.04061
0.030781
0.021176
0.0130348
0.00761714
0.00572567
0.00741855
0.0119602
0.0180743
0.0244229
0.0301576
0.0345191
0.0870005
0.0880613
0.0892666
0.0902846
0.0911339
0.0918458
0.0923399
0.0924754
0.092094
0.091031
0.0891282
0.0862646
0.0823901
0.0775325
0.0717604
0.0651206
0.0575935
0.0491429
0.0398741
0.0302611
0.0212528
0.0140756
0.00983212
0.00908339
0.0116286
0.0165024
0.0223926
0.0281125
0.0330408
0.0366395
0.0863275
0.0873959
0.0886067
0.0896435
0.0905246
0.0912797
0.0918296
0.0920364
0.0917436
0.0907819
0.0889807
0.0862009
0.0823715
0.0774996
0.0716416
0.0648501
0.0571343
0.0485255
0.0392382
0.0298769
0.0214707
0.0151988
0.0119926
0.012187
0.0153393
0.0203285
0.0258808
0.0309822
0.0352048
0.0381824
0.0857002
0.086773
0.0879878
0.089048
0.0899631
0.0907621
0.0913666
0.0916416
0.0914327
0.0905664
0.0888604
0.0861584
0.0823694
0.0774815
0.0715396
0.0646021
0.0567073
0.0479571
0.0386749
0.0295885
0.0217773
0.016331
0.0140238
0.0149984
0.0185706
0.0235292
0.0286903
0.0332162
0.0368364
0.0393089
0.085117
0.0861811
0.0873994
0.0884872
0.0894401
0.0902853
0.0909449
0.0912869
0.0911594
0.0903846
0.0887692
0.0861406
0.0823886
0.0774819
0.0714544
0.0643728
0.0563058
0.0474276
0.0381674
0.0293672
0.0221416
0.0174755
0.0159353
0.0175312
0.0213643
0.0262003
0.0309577
0.0349585
0.0380632
0.0401267
0.0845701
0.0856192
0.0868384
0.0879511
0.088946
0.0898414
0.0905584
0.0909678
0.0909211
0.0902364
0.0887088
0.0861492
0.0824304
0.077504
0.071391
0.0641639
0.0559206
0.046915
0.0376867
0.0291879
0.0224805
0.0184797
0.0176568
0.0197706
0.023742
0.028414
0.0327948
0.0363402
0.0390051
0.0407138
0.0840509
0.0850877
0.0863039
0.0874364
0.0884751
0.089423
0.0902001
0.0906799
0.0907145
0.09012
0.0886803
0.0861876
0.0824974
0.0775446
0.0713421
0.0639732
0.0555581
0.0464269
0.0372317
0.0290525
0.02289
0.0195041
0.0192756
0.0218169
0.0258159
0.0302665
0.0342744
0.0374219
0.0397472
0.0411821
0.0835687
0.0845833
0.0857886
0.0869388
0.088023
0.0890247
0.0898639
0.0904179
0.0905365
0.090034
0.0886831
0.0862573
0.0825963
0.0776173
0.0713174
0.0637875
0.0551793
0.0459176
0.0367455
0.0288279
0.0230911
0.0203219
0.0206496
0.0234656
0.0275865
0.0318302
0.0354783
0.0382192
0.0401818
0.0413901
0.0831235
0.0841058
0.0852884
0.0864555
0.0875841
0.0886411
0.0895483
0.0901738
0.0903791
0.0899705
0.0887107
0.0863508
0.0827138
0.077704
0.0713163
0.0636506
0.0548553
0.0454446
0.0363384
0.0287983
0.0235923
0.021167
0.0220181
0.0250088
0.0291644
0.0332194
0.0366307
0.0391655
0.0408708
0.0417316
0.0827299
0.0836659
0.0848049
0.085986
0.0871531
0.0882611
0.0892389
0.0899751
0.0902683
0.0899607
0.0887914
0.0864964
0.0828814
0.0778247
0.0712958
0.0634245
0.0544292
0.044842
0.0357142
0.0284045
0.0236307
0.0217396
0.0230421
0.0263654
0.0304121
0.0340929
0.0370609
0.039243
0.0408679
0.0417961
0.0823965
0.0832436
0.0843356
0.0855367
0.0867391
0.0878782
0.088883
0.0896482
0.0900626
0.089904
0.0888569
0.0866445
0.0830722
0.0780216
0.0714346
0.0633437
0.054135
0.0444059
0.0354376
0.0283005
0.0237451
0.0223918
0.0241579
0.0278265
0.0319583
0.0355996
0.0384406
0.0403027
0.041375
0.0417631
0.0821389
0.0828434
0.0838727
0.0851181
0.0864268
0.0876776
0.0887808
0.0896462
0.0901129
0.0899589
0.0890043
0.0868325
0.0832221
0.0780836
0.0713518
0.0630182
0.0535589
0.0436323
0.0348258
0.0279572
0.0237359
0.0228015
0.0247511
0.0283779
0.0321801
0.0354884
0.0382699
0.0402621
0.0413699
0.0417099
0.0819941
0.0824733
0.0833076
0.084425
0.0857108
0.0870223
0.0882219
0.0892065
0.0898706
0.0899624
0.0891733
0.0871972
0.0836948
0.0785758
0.0716601
0.0630189
0.0532354
0.042992
0.0338569
0.0272074
0.0235987
0.0235739
0.0263272
0.0304025
0.0341312
0.0372104
0.0394544
0.0408839
0.0414117
0.0409278
-0.10397
-0.0836139
-0.099208
-0.0579026
-0.0370636
-0.0137327
0.000172956
0.0109708
0.0182938
0.0240974
0.0282994
0.0315803
0.0341276
0.0361968
0.0378952
0.0393288
0.0405775
0.0416611
0.0426936
0.0435705
0.0445237
0.0452593
0.0461489
0.0467191
0.0476953
0.0483067
0.0494052
0.0501263
0.0515895
0.0511611
-0.103981
-0.0830606
-0.104827
-0.0654047
-0.041785
-0.0170818
-0.00180902
0.00940676
0.0172996
0.0233713
0.0278159
0.0312141
0.0338499
0.0359617
0.0376863
0.0391255
0.040376
0.0414525
0.0424664
0.0433373
0.0442465
0.0449808
0.0458176
0.0465147
0.0473834
0.0480481
0.0489444
0.0495329
0.0504952
0.0506633
-0.105309
-0.0849748
-0.110969
-0.0763226
-0.048225
-0.0219062
-0.00490249
0.00707945
0.0157418
0.0222615
0.0270703
0.0306845
0.0334699
0.0356718
0.0374526
0.0389237
0.0401847
0.0412733
0.0422681
0.0431521
0.0440142
0.0447905
0.0455864
0.0463284
0.0470962
0.0478081
0.0485834
0.049261
0.0500823
0.0508124
-0.107652
-0.0915901
-0.117568
-0.0880707
-0.0545112
-0.0261505
-0.00716431
0.00573152
0.015031
0.0219548
0.0270467
0.0308209
0.033696
0.0359415
0.0377366
0.0392049
0.0404474
0.0415189
0.0424806
0.0433495
0.0441718
0.0449455
0.0457017
0.0464338
0.0471677
0.0478975
0.0486555
0.0494106
0.0502082
0.0510037
-0.110799
-0.101365
-0.124252
-0.0999032
-0.0617273
-0.0306604
-0.00919457
0.00484137
0.0147461
0.0220517
0.0273847
0.0312874
0.0342177
0.0364738
0.0382515
0.0396875
0.0408863
0.0419138
0.042825
0.0436505
0.0444226
0.0451564
0.0458684
0.0465687
0.047271
0.0479783
0.0487017
0.0494371
0.0501881
0.0509505
-0.114558
-0.112306
-0.131653
-0.11196
-0.0709432
-0.0361819
-0.0117201
0.00380333
0.0144638
0.0222121
0.0278118
0.031859
0.03485
0.0371132
0.0388639
0.0402544
0.0413965
0.0423645
0.0432131
0.0439788
0.0446907
0.0453689
0.0460287
0.0466815
0.0473369
0.0480002
0.0486775
0.0493721
0.0500854
0.0508263
-0.118895
-0.123501
-0.140353
-0.124339
-0.0820586
-0.0425719
-0.0149529
0.00251843
0.0142189
0.0225163
0.0284185
0.0326253
0.0356826
0.0379497
0.0396639
0.0409949
0.042065
0.0429568
0.0437278
0.0444182
0.0450574
0.0456667
0.0462615
0.0468532
0.0474507
0.0480609
0.0486892
0.0493402
0.0500144
0.0507198
-0.124428
-0.134926
-0.149641
-0.136339
-0.0943826
-0.0502811
-0.0188028
0.00110812
0.0141354
0.0231094
0.0293466
0.0337096
0.036821
0.0390756
0.0407336
0.0419829
0.0429583
0.0437508
0.0444226
0.045017
0.0455645
0.0460871
0.0466002
0.0471153
0.0476412
0.0481847
0.0487508
0.0493439
0.0499641
0.0506182
-0.131356
-0.14703
-0.159655
-0.14771
-0.106855
-0.0595824
-0.0233729
-0.000406115
0.0142477
0.0240516
0.0306676
0.0351761
0.038316
0.0405307
0.0421047
0.0432446
0.0440979
0.0447645
0.0453118
0.0457863
0.0462201
0.0466356
0.0470482
0.0474691
0.0479065
0.0483666