/*--------------------------------*- C++ -*----------------------------------*\
  =========                 |
  \\      /  F ield         | OpenFOAM: The Open Source CFD Toolbox
   \\    /   O peration     | Website:  https://openfoam.org
    \\  /    A nd           | Version:  11
     \\/     M anipulation  |
\*---------------------------------------------------------------------------*/
FoamFile
{
    format      ascii;
    class       surfaceScalarField;
    location    "0.5";
    object      phi;
}
// * * * * * * * * * * * * * * * * * * * * * * * * * * * * * * * * * * * * * //

dimensions      [0 3 -1 0 0 0 0];

internalField   nonuniform List<scalar> 
24840
(
1.53203e-05
1.30411e-08
1.5304e-05
1.63006e-08
1.52891e-05
1.49382e-08
1.52751e-05
1.40038e-08
1.52644e-05
1.06007e-08
1.52645e-05
-3.08852e-11
1.5272e-05
-7.50483e-09
1.52765e-05
-4.54105e-09
1.52647e-05
1.18219e-08
1.52367e-05
2.8039e-08
1.52021e-05
3.45387e-08
1.51723e-05
2.98427e-08
1.51571e-05
1.5207e-08
1.51643e-05
-7.20833e-09
1.51931e-05
-2.88058e-08
1.52396e-05
-4.6508e-08
1.53008e-05
-6.11899e-08
1.53747e-05
-7.39468e-08
1.54603e-05
-8.56033e-08
1.55598e-05
-9.94441e-08
1.56777e-05
-1.17932e-07
1.58192e-05
-1.41486e-07
1.59902e-05
-1.71004e-07
1.61981e-05
-2.07908e-07
1.64519e-05
-2.53817e-07
1.67622e-05
-3.10262e-07
1.71419e-05
-3.7972e-07
1.76008e-05
-4.58875e-07
1.81763e-05
-5.75524e-07
-5.66634e-07
1.87429e-05
1.53394e-05
6.93667e-09
1.53439e-05
1.17944e-08
1.53486e-05
1.03111e-08
1.53516e-05
1.09428e-08
1.53526e-05
9.65014e-09
1.53507e-05
1.85481e-09
1.53492e-05
-5.96128e-09
1.53533e-05
-8.7149e-09
1.53717e-05
-6.53036e-09
1.5403e-05
-3.32689e-09
1.54359e-05
1.65669e-09
1.54615e-05
4.25949e-09
1.54816e-05
-4.91401e-09
1.55022e-05
-2.78093e-08
1.55271e-05
-5.36578e-08
1.55587e-05
-7.81281e-08
1.55979e-05
-1.00352e-07
1.56463e-05
-1.22374e-07
1.57096e-05
-1.4889e-07
1.57914e-05
-1.81281e-07
1.58934e-05
-2.19879e-07
1.6019e-05
-2.67132e-07
1.61735e-05
-3.25489e-07
1.63631e-05
-3.97483e-07
1.65954e-05
-4.8612e-07
1.68799e-05
-5.94797e-07
1.72284e-05
-7.28236e-07
1.76543e-05
-8.84794e-07
1.81766e-05
-1.09774e-06
-1.2182e-06
1.88281e-05
1.53364e-05
3.91143e-09
1.53405e-05
7.62671e-09
1.53447e-05
6.17351e-09
1.53502e-05
5.4e-09
1.53566e-05
3.21818e-09
1.53609e-05
-2.36227e-09
1.53602e-05
-5.34525e-09
1.53562e-05
-4.66423e-09
1.53558e-05
-6.14195e-09
1.53635e-05
-1.1018e-08
1.53845e-05
-1.9339e-08
1.54181e-05
-2.93446e-08
1.54549e-05
-4.17086e-08
1.5488e-05
-6.08879e-08
1.5519e-05
-8.47203e-08
1.55526e-05
-1.11712e-07
1.55936e-05
-1.41371e-07
1.56456e-05
-1.74323e-07
1.57101e-05
-2.13384e-07
1.57896e-05
-2.60829e-07
1.58879e-05
-3.18204e-07
1.60091e-05
-3.88331e-07
1.61583e-05
-4.74657e-07
1.63418e-05
-5.80943e-07
1.65673e-05
-7.11663e-07
1.68444e-05
-8.71915e-07
1.7185e-05
-1.06877e-06
1.76031e-05
-1.30288e-06
1.8116e-05
-1.61067e-06
-1.85735e-06
1.87551e-05
1.53352e-05
1.99933e-09
1.53388e-05
4.06724e-09
1.53423e-05
2.71626e-09
1.5347e-05
7.10927e-10
1.53526e-05
-2.44147e-09
1.53574e-05
-7.12703e-09
1.53621e-05
-1.01166e-08
1.53688e-05
-1.13159e-08
1.53777e-05
-1.5081e-08
1.53888e-05
-2.20532e-08
1.54025e-05
-3.30595e-08
1.54205e-05
-4.73422e-08
1.54441e-05
-6.52753e-08
1.54721e-05
-8.88944e-08
1.55042e-05
-1.16816e-07
1.55407e-05
-1.48236e-07
1.55833e-05
-1.84001e-07
1.56347e-05
-2.2573e-07
1.56975e-05
-2.76145e-07
1.57745e-05
-3.37873e-07
1.58695e-05
-4.13165e-07
1.59865e-05
-5.05294e-07
1.61303e-05
-6.18552e-07
1.63073e-05
-7.57921e-07
1.6525e-05
-9.29346e-07
1.67928e-05
-1.13968e-06
1.71222e-05
-1.3982e-06
1.7528e-05
-1.70864e-06
1.80253e-05
-2.10798e-06
-2.48096e-06
1.86489e-05
1.53346e-05
7.30585e-10
1.53375e-05
1.19234e-09
1.5341e-05
-8.41489e-10
1.53457e-05
-3.98165e-09
1.53507e-05
-7.3884e-09
1.53548e-05
-1.12645e-08
1.53596e-05
-1.48927e-08
1.53677e-05
-1.94087e-08
1.53791e-05
-2.65267e-08
1.53931e-05
-3.60202e-08
1.54084e-05
-4.83538e-08
1.54255e-05
-6.44849e-08
1.54458e-05
-8.55825e-08
1.54697e-05
-1.12787e-07
1.5498e-05
-1.4506e-07
1.55316e-05
-1.81822e-07
1.55719e-05
-2.24344e-07
1.5621e-05
-2.74841e-07
1.56811e-05
-3.36204e-07
1.57547e-05
-4.11465e-07
1.58451e-05
-5.03644e-07
1.59565e-05
-6.1665e-07
1.60935e-05
-7.55558e-07
1.62621e-05
-9.26472e-07
1.64695e-05
-1.13676e-06
1.67249e-05
-1.39506e-06
1.70394e-05
-1.71275e-06
1.74279e-05
-2.09715e-06
1.79047e-05
-2.58473e-06
-3.08198e-06
1.85057e-05
1.53343e-05
-2.18578e-10
1.53367e-05
-1.2015e-09
1.53398e-05
-3.9465e-09
1.53439e-05
-8.10775e-09
1.53491e-05
-1.25431e-08
1.53548e-05
-1.69712e-08
1.53614e-05
-2.15372e-08
1.53695e-05
-2.74618e-08
1.53791e-05
-3.61231e-08
1.53906e-05
-4.76048e-08
1.54044e-05
-6.21195e-08
1.54208e-05
-8.08462e-08
1.54402e-05
-1.05039e-07
1.54629e-05
-1.35427e-07
1.54893e-05
-1.71467e-07
1.55206e-05
-2.13158e-07
1.55584e-05
-2.62139e-07
1.56045e-05
-3.20963e-07
1.5661e-05
-3.92688e-07
1.57303e-05
-4.80696e-07
1.58153e-05
-5.88678e-07
1.59198e-05
-7.21209e-07
1.60484e-05
-8.84138e-07
1.62066e-05
-1.08464e-06
1.64013e-05
-1.33146e-06
1.66412e-05
-1.635e-06
1.69372e-05
-2.0087e-06
1.73037e-05
-2.46363e-06
1.77545e-05
-3.03555e-06
-3.65454e-06
1.8327e-05
1.53341e-05
-9.68501e-10
1.53361e-05
-3.23268e-09
1.5339e-05
-6.83482e-09
1.53426e-05
-1.16824e-08
1.53469e-05
-1.68815e-08
1.53522e-05
-2.2263e-08
1.5359e-05
-2.82973e-08
1.53672e-05
-3.57027e-08
1.53767e-05
-4.55889e-08
1.53877e-05
-5.86337e-08
1.54008e-05
-7.52265e-08
1.54163e-05
-9.63076e-08
1.54342e-05
-1.23015e-07
1.54549e-05
-1.56103e-07
1.5479e-05
-1.95582e-07
1.55078e-05
-2.4194e-07
1.55427e-05
-2.97034e-07
1.55854e-05
-3.63619e-07
1.56376e-05
-4.44954e-07
1.57017e-05
-5.44749e-07
1.57803e-05
-6.67269e-07
1.58768e-05
-8.17748e-07
1.59955e-05
-1.0028e-06
1.61414e-05
-1.23058e-06
1.63211e-05
-1.51115e-06
1.65427e-05
-1.8566e-06
1.68164e-05
-2.2824e-06
1.71562e-05
-2.80343e-06
1.75755e-05
-3.45485e-06
-4.19185e-06
1.81128e-05
1.53339e-05
-1.58474e-09
1.53357e-05
-4.94981e-09
1.53383e-05
-9.42787e-09
1.53416e-05
-1.50068e-08
1.53456e-05
-2.09452e-08
1.53505e-05
-2.70928e-08
1.53565e-05
-3.4269e-08
1.53641e-05
-4.33076e-08
1.53733e-05
-5.47929e-08
1.53839e-05
-6.92696e-08
1.53961e-05
-8.74486e-08
1.54102e-05
-1.10415e-07
1.54265e-05
-1.39289e-07
1.54452e-05
-1.74834e-07
1.54671e-05
-2.17454e-07
1.54932e-05
-2.68072e-07
1.55249e-05
-3.28747e-07
1.55637e-05
-4.02381e-07
1.56112e-05
-4.92414e-07
1.56693e-05
-6.02868e-07
1.57405e-05
-7.38505e-07
1.58279e-05
-9.05167e-07
1.59353e-05
-1.11017e-06
1.60673e-05
-1.3626e-06
1.62299e-05
-1.67368e-06
1.64304e-05
-2.05711e-06
1.66783e-05
-2.53034e-06
1.69869e-05
-3.11199e-06
1.73689e-05
-3.83686e-06
-4.68622e-06
1.78632e-05
1.53338e-05
-2.09452e-09
1.53353e-05
-6.43255e-09
1.53376e-05
-1.17206e-08
1.53406e-05
-1.79655e-08
1.53442e-05
-2.45887e-08
1.53488e-05
-3.16672e-08
1.53546e-05
-4.0052e-08
1.53615e-05
-5.02418e-08
1.53695e-05
-6.2769e-08
1.53788e-05
-7.85842e-08
1.53898e-05
-9.84897e-08
1.54027e-05
-1.23305e-07
1.54175e-05
-1.54069e-07
1.54344e-05
-1.91728e-07
1.5454e-05
-2.37075e-07
1.54774e-05
-2.91401e-07
1.55056e-05
-3.56959e-07
1.554e-05
-4.3678e-07
1.5582e-05
-5.34477e-07
1.56335e-05
-6.54337e-07
1.56965e-05
-8.01537e-07
1.57738e-05
-9.82445e-07
1.58687e-05
-1.20501e-06
1.59852e-05
-1.47911e-06
1.61285e-05
-1.81705e-06
1.63054e-05
-2.23399e-06
1.65243e-05
-2.74918e-06
1.67971e-05
-3.38488e-06
1.7136e-05
-4.17571e-06
-5.12932e-06
1.75791e-05
1.53338e-05
-2.52441e-09
1.5335e-05
-7.71064e-09
1.53371e-05
-1.37339e-08
1.53397e-05
-2.06181e-08
1.5343e-05
-2.7902e-08
1.53471e-05
-3.57088e-08
1.53519e-05
-4.49326e-08
1.53579e-05
-5.62265e-08
1.53652e-05
-7.00535e-08
1.53738e-05
-8.71847e-08
1.53838e-05
-1.08453e-07
1.53952e-05
-1.34716e-07
1.54081e-05
-1.67019e-07
1.54229e-05
-2.06446e-07
1.54399e-05
-2.54113e-07
1.54601e-05
-3.11616e-07
1.54845e-05
-3.81357e-07
1.55142e-05
-4.66465e-07
1.55504e-05
-5.707e-07
1.55947e-05
-6.98591e-07
1.56488e-05
-8.55655e-07
1.5715e-05
-1.0487e-06
1.57963e-05
-1.28621e-06
1.58959e-05
-1.57875e-06
1.60183e-05
-1.93951e-06
1.61693e-05
-2.38492e-06
1.6356e-05
-2.93589e-06
1.6589e-05
-3.61793e-06
1.6879e-05
-4.4657e-06
-5.51244e-06
1.72622e-05
1.53337e-05
-2.88918e-09
1.53348e-05
-8.80946e-09
1.53366e-05
-1.54895e-08
1.53389e-05
-2.29419e-08
1.53418e-05
-3.08075e-08
1.53454e-05
-3.92973e-08
1.53497e-05
-4.92773e-08
1.53549e-05
-6.13929e-08
1.5361e-05
-7.61872e-08
1.53683e-05
-9.44941e-08
1.53769e-05
-1.17074e-07
1.53869e-05
-1.44628e-07
1.5398e-05
-1.78172e-07
1.54105e-05
-2.18978e-07
1.54249e-05
-2.68478e-07
1.54418e-05
-3.2853e-07
1.54621e-05
-4.01664e-07
1.54867e-05
-4.91082e-07
1.55167e-05
-6.00663e-07
1.55532e-05
-7.35123e-07
1.55978e-05
-9.00251e-07
1.56523e-05
-1.1032e-06
1.5719e-05
-1.35286e-06
1.58006e-05
-1.66034e-06
1.59006e-05
-2.03956e-06
1.60236e-05
-2.50794e-06
1.61755e-05
-3.08776e-06
1.6365e-05
-3.80739e-06
1.66007e-05
-4.70146e-06
-5.82702e-06
1.69153e-05
1.53336e-05
-3.19788e-09
1.53346e-05
-9.7421e-09
1.53361e-05
-1.6992e-08
1.53381e-05
-2.49385e-08
1.53406e-05
-3.33262e-08
1.53436e-05
-4.23392e-08
1.53472e-05
-5.28447e-08
1.53515e-05
-6.56955e-08
1.53567e-05
-8.1419e-08
1.5363e-05
-1.00719e-07
1.53702e-05
-1.24313e-07
1.53784e-05
-1.52846e-07
1.53876e-05
-1.87318e-07
1.53977e-05
-2.29138e-07
1.54092e-05
-2.79987e-07
1.54227e-05
-3.41945e-07
1.54386e-05
-4.17648e-07
1.54579e-05
-5.10355e-07
1.54813e-05
-6.24032e-07
1.55097e-05
-7.63533e-07
1.55443e-05
-9.34836e-07
1.55864e-05
-1.14533e-06
1.56378e-05
-1.40422e-06
1.57004e-05
-1.72295e-06
1.57768e-05
-2.11598e-06
1.58703e-05
-2.60145e-06
1.59852e-05
-3.20262e-06
1.61279e-05
-3.95007e-06
1.63047e-05
-4.87829e-06
-6.0651e-06
1.65428e-05
1.53336e-05
-3.45557e-09
1.53344e-05
-1.05213e-08
1.53356e-05
-1.82488e-08
1.53373e-05
-2.6608e-08
1.53394e-05
-3.54213e-08
1.53419e-05
-4.48796e-08
1.53449e-05
-5.57958e-08
1.53483e-05
-6.91475e-08
1.53525e-05
-8.55641e-08
1.53574e-05
-1.05683e-07
1.53632e-05
-1.30104e-07
1.53697e-05
-1.59357e-07
1.53768e-05
-1.9442e-07
1.53845e-05
-2.36835e-07
1.53931e-05
-2.88508e-07
1.54028e-05
-3.51695e-07
1.54143e-05
-4.29117e-07
1.5428e-05
-5.24065e-07
1.54445e-05
-6.40554e-07
1.54645e-05
-7.83519e-07
1.54887e-05
-9.59048e-07
1.55181e-05
-1.17467e-06
1.55536e-05
-1.43974e-06
1.55965e-05
-1.76592e-06
1.56485e-05
-2.16792e-06
1.57113e-05
-2.66428e-06
1.57875e-05
-3.27882e-06
1.5881e-05
-4.04356e-06
1.59952e-05
-4.99247e-06
-6.21999e-06
1.61501e-05
1.53335e-05
-3.66623e-09
1.53342e-05
-1.11597e-08
1.53352e-05
-1.92722e-08
1.53366e-05
-2.79565e-08
1.53382e-05
-3.70858e-08
1.53402e-05
-4.68571e-08
1.53425e-05
-5.80601e-08
1.53451e-05
-7.17847e-08
1.53483e-05
-8.8738e-08
1.5352e-05
-1.09457e-07
1.53564e-05
-1.34423e-07
1.53611e-05
-1.64077e-07
1.5366e-05
-1.99374e-07
1.53712e-05
-2.41958e-07
1.53766e-05
-2.93916e-07
1.53825e-05
-3.57651e-07
1.53893e-05
-4.35933e-07
1.53973e-05
-5.3206e-07
1.54068e-05
-6.50056e-07
1.54182e-05
-7.9488e-07
1.54318e-05
-9.72651e-07
1.54481e-05
-1.19093e-06
1.54674e-05
-1.45909e-06
1.54903e-05
-1.78883e-06
1.55173e-05
-2.19487e-06
1.55488e-05
-2.69578e-06
1.55854e-05
-3.31541e-06
1.56282e-05
-4.08638e-06
1.56773e-05
-5.04154e-06
-6.2869e-06
1.57442e-05
1.53335e-05
-3.83306e-09
1.5334e-05
-1.16627e-08
1.53348e-05
-2.00665e-08
1.53358e-05
-2.89895e-08
1.53371e-05
-3.83346e-08
1.53385e-05
-4.83011e-08
1.53401e-05
-5.9679e-08
1.5342e-05
-7.36257e-08
1.53442e-05
-9.09105e-08
1.53467e-05
-1.11998e-07
1.53495e-05
-1.37235e-07
1.53524e-05
-1.66975e-07
1.53552e-05
-2.02151e-07
1.53577e-05
-2.44473e-07
1.53599e-05
-2.96163e-07
1.5362e-05
-3.5974e-07
1.53641e-05
-4.3801e-07
1.53663e-05
-5.34246e-07
1.53687e-05
-6.5244e-07
1.53713e-05
-7.97514e-07
1.53742e-05
-9.75536e-07
1.53773e-05
-1.19399e-06
1.53803e-05
-1.46217e-06
1.53831e-05
-1.79157e-06
1.53849e-05
-2.19669e-06
1.53849e-05
-2.69578e-06
1.53817e-05
-3.31217e-06
1.53734e-05
-4.0781e-06
1.53565e-05
-5.02463e-06
-6.2635e-06
1.53331e-05
1.53335e-05
-3.95923e-09
1.53338e-05
-1.20395e-08
1.53344e-05
-2.06427e-08
1.53351e-05
-2.97108e-08
1.5336e-05
-3.91707e-08
1.53369e-05
-4.922e-08
1.53379e-05
-6.06575e-08
1.53389e-05
-7.46879e-08
1.53401e-05
-9.21148e-08
1.53415e-05
-1.13334e-07
1.53428e-05
-1.38559e-07
1.53439e-05
-1.68059e-07
1.53445e-05
-2.02737e-07
1.53443e-05
-2.44342e-07
1.53434e-05
-2.95201e-07
1.53416e-05
-3.5792e-07
1.53389e-05
-4.35312e-07
1.53352e-05
-5.30597e-07
1.53305e-05
-6.47692e-07
1.53244e-05
-7.91421e-07
1.53166e-05
-9.67725e-07
1.53065e-05
-1.18392e-06
1.52934e-05
-1.44905e-06
1.52761e-05
-1.7743e-06
1.5253e-05
-2.17365e-06
1.52219e-05
-2.66467e-06
1.51794e-05
-3.26963e-06
1.51208e-05
-4.01946e-06
1.50387e-05
-4.94259e-06
-6.15043e-06
1.49257e-05
1.53334e-05
-4.04841e-09
1.53337e-05
-1.23027e-08
1.53341e-05
-2.10162e-08
1.53345e-05
-3.01215e-08
1.53349e-05
-3.95953e-08
1.53353e-05
-4.96444e-08
1.53357e-05
-6.10448e-08
1.5336e-05
-7.50186e-08
1.53363e-05
-9.23868e-08
1.53365e-05
-1.13481e-07
1.53363e-05
-1.38394e-07
1.53356e-05
-1.67322e-07
1.53339e-05
-2.01131e-07
1.53312e-05
-2.41567e-07
1.5327e-05
-2.91032e-07
1.53213e-05
-3.52199e-07
1.53138e-05
-4.27862e-07
1.53044e-05
-5.21159e-07
1.52926e-05
-6.35882e-07
1.52779e-05
-7.76704e-07
1.52595e-05
-9.49365e-07
1.52365e-05
-1.16092e-06
1.52075e-05
-1.42005e-06
1.51707e-05
-1.73744e-06
1.51234e-05
-2.12636e-06
1.50621e-05
-2.60336e-06
1.49816e-05
-3.18913e-06
1.48745e-05
-3.91236e-06
1.473e-05
-4.79813e-06
-5.9515e-06
1.45311e-05
1.53334e-05
-4.10456e-09
1.53335e-05
-1.24619e-08
1.53337e-05
-2.12008e-08
1.53339e-05
-3.02395e-08
1.53339e-05
-3.96304e-08
1.53339e-05
-4.96098e-08
1.53337e-05
-6.08733e-08
1.53333e-05
-7.46312e-08
1.53327e-05
-9.1743e-08
1.53316e-05
-1.12467e-07
1.533e-05
-1.36775e-07
1.53275e-05
-1.64816e-07
1.53238e-05
-1.97393e-07
1.53184e-05
-2.36204e-07
1.53111e-05
-2.83701e-07
1.53015e-05
-3.42621e-07
1.52894e-05
-4.15723e-07
1.52742e-05
-5.06024e-07
1.52555e-05
-6.17149e-07
1.52323e-05
-7.53557e-07
1.52037e-05
-9.20721e-07
1.51681e-05
-1.12535e-06
1.51238e-05
-1.37567e-06
1.5068e-05
-1.6817e-06
1.49975e-05
-2.05581e-06
1.49073e-05
-2.51324e-06
1.47909e-05
-3.07269e-06
1.46384e-05
-3.75982e-06
1.44359e-05
-4.59569e-06
-5.67367e-06
1.41581e-05
1.53334e-05
-4.13352e-09
1.53334e-05
-1.25335e-08
1.53334e-05
-2.12157e-08
1.53333e-05
-3.00885e-08
1.5333e-05
-3.93073e-08
1.53325e-05
-4.90978e-08
1.53317e-05
-6.01047e-08
1.53306e-05
-7.35688e-08
1.53292e-05
-9.02779e-08
1.53271e-05
-1.10384e-07
1.53241e-05
-1.33794e-07
1.53199e-05
-1.6063e-07
1.53141e-05
-1.91597e-07
1.53062e-05
-2.28304e-07
1.52958e-05
-2.73259e-07
1.52824e-05
-3.2926e-07
1.52657e-05
-3.99005e-07
1.5245e-05
-4.8535e-07
1.52196e-05
-5.91704e-07
1.51883e-05
-7.22261e-07
1.51497e-05
-8.8217e-07
1.51021e-05
-1.07772e-06
1.5043e-05
-1.31657e-06
1.49693e-05
-1.608e-06
1.48768e-05
-1.96328e-06
1.47597e-05
-2.39614e-06
1.461e-05
-2.92297e-06
1.44159e-05
-3.56578e-06
1.41615e-05
-4.34123e-06
-5.32669e-06
1.38145e-05
1.53333e-05
-4.14383e-09
1.53334e-05
-1.25418e-08
1.53332e-05
-2.10724e-08
1.53328e-05
-2.96568e-08
1.53321e-05
-3.8621e-08
1.53312e-05
-4.82486e-08
1.53301e-05
-5.89624e-08
1.53284e-05
-7.18754e-08
1.5326e-05
-8.79086e-08
1.53229e-05
-1.07203e-07
1.53186e-05
-1.29492e-07
1.53128e-05
-1.54827e-07
1.5305e-05
-1.83809e-07
1.52946e-05
-2.17955e-07
1.52812e-05
-2.59824e-07
1.52642e-05
-3.12265e-07
1.52431e-05
-3.77893e-07
1.52171e-05
-4.59367e-07
1.51852e-05
-5.59838e-07
1.51462e-05
-6.8319e-07
1.50982e-05
-8.34194e-07
1.50391e-05
-1.01866e-06
1.49662e-05
-1.24361e-06
1.48756e-05
-1.51747e-06
1.47627e-05
-1.85032e-06
1.46208e-05
-2.25423e-06
1.44409e-05
-2.7431e-06
1.42101e-05
-3.33495e-06
1.39107e-05
-4.04189e-06
-4.92244e-06
1.35065e-05
1.53333e-05
-4.14814e-09
1.53333e-05
-1.25146e-08
1.5333e-05
-2.07958e-08
1.53324e-05
-2.90342e-08
1.53315e-05
-3.76954e-08
1.53302e-05
-4.69427e-08
1.53285e-05
-5.72612e-08
1.53262e-05
-6.96188e-08
1.53231e-05
-8.47665e-08
1.53189e-05
-1.03029e-07
1.53135e-05
-1.24062e-07
1.53063e-05
-1.4764e-07
1.52967e-05
-1.74174e-07
1.52839e-05
-2.05215e-07
1.52675e-05
-2.43453e-07
1.5247e-05
-2.91755e-07
1.52217e-05
-3.52583e-07
1.51907e-05
-4.28346e-07
1.51528e-05
-5.21903e-07
1.51064e-05
-6.36793e-07
1.50496e-05
-7.77373e-07
1.49798e-05
-9.48924e-07
1.4894e-05
-1.15777e-06
1.47879e-05
-1.4114e-06
1.46563e-05
-1.71868e-06
1.44919e-05
-2.08992e-06
1.42854e-05
-2.53656e-06
1.40229e-05
-3.07247e-06
1.36865e-05
-3.70549e-06
-4.47401e-06
1.32381e-05
1.53333e-05
-4.16391e-09
1.53333e-05
-1.2498e-08
1.5333e-05
-2.04705e-08
1.53322e-05
-2.81785e-08
1.53307e-05
-3.62807e-08
1.53292e-05
-4.53755e-08
1.53273e-05
-5.53813e-08
1.53245e-05
-6.68617e-08
1.53207e-05
-8.09816e-08
1.53156e-05
-9.79262e-08
1.53089e-05
-1.17363e-07
1.53002e-05
-1.38942e-07
1.52888e-05
-1.6275e-07
1.52739e-05
-1.90288e-07
1.52549e-05
-2.2441e-07
1.52311e-05
-2.6801e-07
1.52019e-05
-3.23369e-07
1.51662e-05
-3.92621e-07
1.51226e-05
-4.78302e-07
1.50694e-05
-5.83582e-07
1.50043e-05
-7.12361e-07
1.49248e-05
-8.69349e-07
1.48271e-05
-1.06012e-06
1.47069e-05
-1.29122e-06
1.45585e-05
-1.57024e-06
1.43744e-05
-1.90581e-06
1.41448e-05
-2.30696e-06
1.3856e-05
-2.78365e-06
1.34905e-05
-3.34001e-06
-3.99474e-06
1.30112e-05
1.53334e-05
-4.21623e-09
1.53334e-05
-1.25307e-08
1.53331e-05
-2.01156e-08
1.53322e-05
-2.73513e-08
1.53309e-05
-3.49821e-08
1.53288e-05
-4.32098e-08
1.53259e-05
-5.24584e-08
1.53224e-05
-6.34532e-08
1.53181e-05
-7.66262e-08
1.53123e-05
-9.21576e-08
1.53048e-05
-1.09876e-07
1.5295e-05
-1.29148e-07
1.5282e-05
-1.49729e-07
1.5265e-05
-1.73259e-07
1.52434e-05
-2.0281e-07
1.52166e-05
-2.41224e-07
1.51838e-05
-2.90534e-07
1.51437e-05
-3.52561e-07
1.50949e-05
-4.29505e-07
1.50355e-05
-5.24139e-07
1.4963e-05
-6.3989e-07
1.48745e-05
-7.80865e-07
1.47663e-05
-9.51857e-07
1.46335e-05
-1.15844e-06
1.44702e-05
-1.40699e-06
1.42689e-05
-1.70451e-06
1.40199e-05
-2.05789e-06
1.37098e-05
-2.47362e-06
1.33228e-05
-2.95303e-06
-3.49715e-06
1.28252e-05
1.53335e-05
-4.34801e-09
1.53336e-05
-1.27041e-08
1.53333e-05
-1.98069e-08
1.53322e-05
-2.62344e-08
1.53301e-05
-3.29129e-08
1.53278e-05
-4.08866e-08
1.53251e-05
-4.96886e-08
1.53213e-05
-5.97103e-08
1.53165e-05
-7.18549e-08
1.531e-05
-8.56068e-08
1.53012e-05
-1.01072e-07
1.52899e-05
-1.17831e-07
1.52754e-05
-1.35221e-07
1.52567e-05
-1.54625e-07
1.52331e-05
-1.79191e-07
1.52037e-05
-2.1183e-07
1.51676e-05
-2.54439e-07
1.51236e-05
-3.08552e-07
1.50701e-05
-3.75989e-07
1.5005e-05
-4.59076e-07
1.49259e-05
-5.60744e-07
1.48295e-05
-6.84471e-07
1.47119e-05
-8.3423e-07
1.45681e-05
-1.01464e-06
1.4392e-05
-1.23093e-06
1.41761e-05
-1.48861e-06
1.3911e-05
-1.79277e-06
1.35844e-05
-2.14706e-06
1.31826e-05
-2.55118e-06
-2.992e-06
1.26774e-05
1.53336e-05
-4.63393e-09
1.5334e-05
-1.31093e-08
1.53338e-05
-1.96096e-08
1.53331e-05
-2.55161e-08
1.53317e-05
-3.15409e-08
1.53288e-05
-3.7992e-08
1.53243e-05
-4.51365e-08
1.53193e-05
-5.46825e-08
1.53134e-05
-6.59945e-08
1.53059e-05
-7.80952e-08
1.52966e-05
-9.17342e-08
1.52848e-05
-1.06054e-07
1.52694e-05
-1.19859e-07
1.52494e-05
-1.34619e-07
1.5224e-05
-1.53771e-07
1.51924e-05
-1.80205e-07
1.51535e-05
-2.15577e-07
1.51061e-05
-2.61123e-07
1.50484e-05
-3.18312e-07
1.49784e-05
-3.89037e-07
1.48933e-05
-4.75731e-07
1.47901e-05
-5.81202e-07
1.46644e-05
-7.08534e-07
1.45112e-05
-8.61415e-07
1.43243e-05
-1.04403e-06
1.40962e-05
-1.26059e-06
1.38182e-05
-1.51471e-06
1.34791e-05
-1.80794e-06
1.30677e-05
-2.13978e-06
-2.48738e-06
1.25631e-05
1.53339e-05
-5.23133e-09
1.53347e-05
-1.38542e-08
1.53346e-05
-1.95145e-08
1.53339e-05
-2.48775e-08
1.53315e-05
-2.9118e-08
1.53268e-05
-3.32751e-08
1.53206e-05
-3.89754e-08
1.53153e-05
-4.93143e-08
1.53107e-05
-6.14449e-08
1.53046e-05
-7.19728e-08
1.5295e-05
-8.21407e-08
1.52813e-05
-9.22998e-08
1.52635e-05
-1.02116e-07
1.52417e-05
-1.12766e-07
1.52149e-05
-1.27031e-07
1.51819e-05
-1.47212e-07
1.51411e-05
-1.74776e-07
1.5091e-05
-2.10985e-07
1.50298e-05
-2.57163e-07
1.49556e-05
-3.14772e-07
1.48656e-05
-3.85746e-07
1.47565e-05
-4.7215e-07
1.46241e-05
-5.76087e-07
1.44631e-05
-7.00378e-07
1.42673e-05
-8.48278e-07
1.40295e-05
-1.02282e-06
1.37414e-05
-1.22655e-06
1.3393e-05
-1.45956e-06
1.29759e-05
-1.72272e-06
-1.98774e-06
1.24763e-05
1.53345e-05
-6.39768e-09
1.53358e-05
-1.51603e-08
1.53358e-05
-1.95403e-08
1.53352e-05
-2.42273e-08
1.53329e-05
-2.6792e-08
1.53274e-05
-2.78518e-08
1.53201e-05
-3.16276e-08
1.53124e-05
-4.16746e-08
1.53045e-05
-5.34708e-08
1.52946e-05
-6.21431e-08
1.52831e-05
-7.05702e-08
1.52699e-05
-7.9084e-08
1.52542e-05
-8.64448e-08
1.52343e-05
-9.29265e-08
1.52085e-05
-1.01175e-07
1.51749e-05
-1.13671e-07
1.51324e-05
-1.32186e-07
1.50796e-05
-1.58177e-07
1.50151e-05
-1.92758e-07
1.49372e-05
-2.3678e-07
1.48431e-05
-2.91652e-07
1.47294e-05
-3.58501e-07
1.45917e-05
-4.38327e-07
1.44246e-05
-5.33296e-07
1.42221e-05
-6.45839e-07
1.39772e-05
-7.77914e-07
1.36819e-05
-9.31228e-07
1.33272e-05
-1.10489e-06
1.29074e-05
-1.30291e-06
-1.49289e-06
1.24126e-05
1.53357e-05
-8.72106e-09
1.53375e-05
-1.69704e-08
1.5338e-05
-2.004e-08
1.53375e-05
-2.37914e-08
1.53365e-05
-2.57498e-08
1.53316e-05
-2.29264e-08
1.53192e-05
-1.92426e-08
1.52986e-05
-2.11288e-08
1.52778e-05
-3.26309e-08
1.52668e-05
-5.11486e-08
1.52649e-05
-6.87198e-08
1.5264e-05
-7.81341e-08
1.52576e-05
-8.00008e-08
1.52407e-05
-7.60294e-08
1.52125e-05
-7.30169e-08
1.51744e-05
-7.56033e-08
1.51275e-05
-8.52293e-08
1.50713e-05
-1.01978e-07
1.50042e-05
-1.25693e-07
1.49238e-05
-1.56381e-07
1.48275e-05
-1.95342e-07
1.47115e-05
-2.42539e-07
1.45709e-05
-2.97709e-07
1.44004e-05
-3.62737e-07
1.41938e-05
-4.39272e-07
1.39443e-05
-5.28424e-07
1.36443e-05
-6.31233e-07
1.32854e-05
-7.4601e-07
1.28639e-05
-8.81392e-07
-9.93967e-07
1.2365e-05
1.53391e-05
-1.44936e-08
1.5341e-05
-1.88664e-08
1.53404e-05
-1.94116e-08
1.53376e-05
-2.10136e-08
1.53314e-05
-1.95065e-08
1.53197e-05
-1.1301e-08
1.53061e-05
-5.62887e-09
1.52976e-05
-1.26579e-08
1.52975e-05
-3.24948e-08
1.5299e-05
-5.26717e-08
1.5296e-05
-6.57269e-08
1.52856e-05
-6.77409e-08
1.52659e-05
-6.02706e-08
1.52374e-05
-4.74777e-08
1.52016e-05
-3.72865e-08
1.51596e-05
-3.35937e-08
1.51114e-05
-3.69805e-08
1.50557e-05
-4.6348e-08
1.49906e-05
-6.0591e-08
1.4913e-05
-7.87177e-08
1.48171e-05
-9.9429e-08
1.4698e-05
-1.23486e-07
1.45526e-05
-1.52335e-07
1.43759e-05
-1.86013e-07
1.41618e-05
-2.25128e-07
1.39038e-05
-2.70417e-07
1.35948e-05
-3.22252e-07
1.32285e-05
-3.79775e-07
1.27975e-05
-4.50304e-07
-4.67472e-07
1.2271e-05
1.53188e-05
1.53e-05
1.52806e-05
1.52595e-05
1.524e-05
1.52287e-05
1.52231e-05
1.52105e-05
1.5178e-05
1.51253e-05
1.50596e-05
1.49918e-05
1.49315e-05
1.48841e-05
1.48468e-05
1.48132e-05
1.47762e-05
1.47299e-05
1.46693e-05
1.45906e-05
1.44911e-05
1.43676e-05
1.42153e-05
1.40293e-05
1.38042e-05
1.35337e-05
1.32115e-05
1.28317e-05
1.23814e-05
1.19139e-05
1.84585e-05
-8.60304e-06
8.88751e-06
1.82052e-05
-8.77139e-06
9.02465e-06
1.79223e-05
-8.94327e-06
9.22623e-06
1.76118e-05
-9.11085e-06
9.42129e-06
1.72776e-05
-9.28099e-06
9.61525e-06
1.69235e-05
-9.4571e-06
9.81115e-06
1.65519e-05
-9.64043e-06
1.0012e-05
1.61641e-05
-9.83191e-06
1.02197e-05
1.57606e-05
-1.00324e-05
1.04358e-05
1.53414e-05
-1.02424e-05
1.06616e-05
1.49058e-05
-1.04625e-05
1.08981e-05
1.44529e-05
-1.06931e-05
1.1146e-05
1.39817e-05
-1.09351e-05
1.14063e-05
1.34912e-05
-1.11897e-05
1.16802e-05
1.29803e-05
-1.14585e-05
1.19694e-05
1.24479e-05
-1.17434e-05
1.22758e-05
1.18924e-05
-1.20468e-05
1.26023e-05
1.13119e-05
-1.23715e-05
1.2952e-05
1.07039e-05
-1.2721e-05
1.3329e-05
1.00654e-05
-1.30995e-05
1.37381e-05
9.39213e-06
-1.35123e-05
1.41855e-05
8.67899e-06
-1.39657e-05
1.46788e-05
7.91911e-06
-1.44675e-05
1.52273e-05
7.10359e-06
-1.50279e-05
1.58434e-05
6.21978e-06
-1.56582e-05
1.6542e-05
5.2537e-06
-1.63769e-05
1.7343e-05
4.18625e-06
-1.7199e-05
1.82664e-05
2.94145e-06
-1.81821e-05
1.94269e-05
1.65337e-06
-1.91844e-05
2.04725e-05
-2.08948e-05
2.25482e-05
1.85524e-05
-8.32729e-06
1.82465e-05
-8.46552e-06
1.79157e-05
-8.61247e-06
1.75686e-05
-8.76376e-06
1.72087e-05
-8.92108e-06
1.68372e-05
-9.0856e-06
1.64543e-05
-9.25749e-06
1.60592e-05
-9.4369e-06
1.56511e-05
-9.62418e-06
1.52284e-05
-9.81974e-06
1.479e-05
-1.00241e-05
1.43348e-05
-1.02379e-05
1.3862e-05
-1.04623e-05
1.33705e-05
-1.06983e-05
1.28594e-05
-1.09474e-05
1.23275e-05
-1.12114e-05
1.1773e-05
-1.14923e-05
1.1194e-05
-1.17925e-05
1.05879e-05
-1.21149e-05
9.95149e-06
-1.24631e-05
9.28073e-06
-1.28415e-05
8.57037e-06
-1.32553e-05
7.81371e-06
-1.37108e-05
7.00201e-06
-1.42162e-05
6.12391e-06
-1.47801e-05
5.16488e-06
-1.54178e-05
4.10426e-06
-1.61383e-05
2.90533e-06
-1.69832e-05
1.60006e-06
-1.78792e-05
-1.92947e-05
1.84445e-05
-8.0166e-06
1.81184e-05
-8.1395e-06
1.77785e-05
-8.27255e-06
1.74284e-05
-8.41362e-06
1.70686e-05
-8.56133e-06
1.66981e-05
-8.71506e-06
1.63155e-05
-8.87489e-06
1.59198e-05
-9.0412e-06
1.55101e-05
-9.21447e-06
1.50856e-05
-9.39525e-06
1.46457e-05
-9.58417e-06
1.41897e-05
-9.78197e-06
1.3717e-05
-9.98953e-06
1.32266e-05
-1.02079e-05
1.27173e-05
-1.04382e-05
1.21878e-05
-1.06819e-05
1.16363e-05
-1.09408e-05
1.10607e-05
-1.12169e-05
1.04583e-05
-1.15125e-05
9.82593e-06
-1.18308e-05
9.15947e-06
-1.21751e-05
8.45373e-06
-1.25496e-05
7.70211e-06
-1.29592e-05
6.89617e-06
-1.34102e-05
6.02507e-06
-1.3909e-05
5.0747e-06
-1.44675e-05
4.02639e-06
-1.509e-05
2.85292e-06
-1.58097e-05
1.55033e-06
-1.65766e-05
-1.77444e-05
1.83265e-05
-7.69421e-06
1.79935e-05
-7.80654e-06
1.76491e-05
-7.92813e-06
1.72943e-05
-8.05882e-06
1.69291e-05
-8.19608e-06
1.65524e-05
-8.33843e-06
1.61636e-05
-8.48611e-06
1.57623e-05
-8.63981e-06
1.53478e-05
-8.80004e-06
1.49198e-05
-8.96723e-06
1.44775e-05
-9.14191e-06
1.40203e-05
-9.32468e-06
1.3547e-05
-9.5163e-06
1.30568e-05
-9.71761e-06
1.25482e-05
-9.92965e-06
1.20199e-05
-1.01536e-05
1.14701e-05
-1.0391e-05
1.08966e-05
-1.06433e-05
1.02968e-05
-1.09127e-05
9.66743e-06
-1.12014e-05
9.0045e-06
-1.15121e-05
8.30292e-06
-1.1848e-05
7.55637e-06
-1.22126e-05
6.75682e-06
-1.26107e-05
5.89411e-06
-1.30463e-05
4.95521e-06
-1.35286e-05
3.92315e-06
-1.4058e-05
2.77596e-06
-1.46625e-05
1.49515e-06
-1.52958e-05
-1.62493e-05
1.81736e-05
-7.36211e-06
1.78323e-05
-7.46521e-06
1.74806e-05
-7.57649e-06
1.71191e-05
-7.6973e-06
1.67476e-05
-7.82459e-06
1.63655e-05
-7.95635e-06
1.59723e-05
-8.09285e-06
1.55673e-05
-8.23487e-06
1.51502e-05
-8.38288e-06
1.47201e-05
-8.53718e-06
1.42764e-05
-8.6982e-06
1.38182e-05
-8.86648e-06
1.33446e-05
-9.04267e-06
1.28545e-05
-9.22749e-06
1.23466e-05
-9.4218e-06
1.18196e-05
-9.62657e-06
1.12715e-05
-9.84293e-06
1.07003e-05
-1.00722e-05
1.01034e-05
-1.03158e-05
9.47756e-06
-1.05756e-05
8.81884e-06
-1.08534e-05
8.12241e-06
-1.11516e-05
7.38225e-06
-1.14725e-05
6.59086e-06
-1.18193e-05
5.73884e-06
-1.21943e-05
4.81432e-06
-1.2604e-05
3.80205e-06
-1.30457e-05
2.68293e-06
-1.35434e-05
1.43457e-06
-1.40474e-05
-1.48147e-05
1.79867e-05
-7.02183e-06
1.76381e-05
-7.1166e-06
1.72802e-05
-7.21855e-06
1.6913e-05
-7.33013e-06
1.65364e-05
-7.44799e-06
1.61498e-05
-7.56973e-06
1.57526e-05
-7.6956e-06
1.53442e-05
-7.82647e-06
1.4924e-05
-7.96277e-06
1.44916e-05
-8.10472e-06
1.4046e-05
-8.25267e-06
1.35866e-05
-8.40707e-06
1.31124e-05
-8.56846e-06
1.26224e-05
-8.73741e-06
1.21151e-05
-8.91459e-06
1.15893e-05
-9.10072e-06
1.1043e-05
-9.29667e-06
1.04742e-05
-9.50338e-06
9.88036e-06
-9.72194e-06
9.25833e-06
-9.95353e-06
8.6044e-06
-1.01995e-05
7.91397e-06
-1.04611e-05
7.18145e-06
-1.07399e-05
6.39989e-06
-1.10377e-05
5.56077e-06
-1.13552e-05
4.65339e-06
-1.16967e-05
3.6642e-06
-1.20565e-05
2.57658e-06
-1.24558e-05
1.3679e-06
-1.28387e-05
-1.34468e-05
1.77652e-05
-6.67415e-06
1.74099e-05
-6.76132e-06
1.7046e-05
-6.8547e-06
1.66735e-05
-6.9576e-06
1.6292e-05
-7.06647e-06
1.59009e-05
-7.1787e-06
1.54999e-05
-7.29451e-06
1.50882e-05
-7.41481e-06
1.46654e-05
-7.54e-06
1.42309e-05
-7.6702e-06
1.37839e-05
-7.80568e-06
1.33236e-05
-7.94679e-06
1.28491e-05
-8.09396e-06
1.23593e-05
-8.24762e-06
1.1853e-05
-8.40823e-06
1.13286e-05
-8.57633e-06
1.07844e-05
-8.75252e-06
1.02185e-05
-8.93742e-06
9.62826e-06
-9.13172e-06
9.01085e-06
-9.33612e-06
8.36271e-06
-9.55132e-06
7.67959e-06
-9.77802e-06
6.95633e-06
-1.00167e-05
6.18663e-06
-1.0268e-05
5.36286e-06
-1.05314e-05
4.4755e-06
-1.08093e-05
3.51279e-06
-1.10938e-05
2.46032e-06
-1.14033e-05
1.29754e-06
-1.16759e-05
-1.21493e-05
1.75089e-05
-6.31978e-06
1.71475e-05
-6.39997e-06
1.67783e-05
-6.48547e-06
1.64009e-05
-6.5802e-06
1.6015e-05
-6.68055e-06
1.56201e-05
-6.78378e-06
1.52156e-05
-6.89008e-06
1.48012e-05
-7.00036e-06
1.43762e-05
-7.11497e-06
1.39399e-05
-7.23398e-06
1.34918e-05
-7.35754e-06
1.30309e-05
-7.48593e-06
1.25564e-05
-7.61946e-06
1.20672e-05
-7.75841e-06
1.15621e-05
-7.9031e-06
1.10396e-05
-8.05385e-06
1.04981e-05
-8.21102e-06
9.93565e-06
-8.37494e-06
9.34987e-06
-8.54594e-06
8.73805e-06
-8.7243e-06
8.09693e-06
-8.91019e-06
7.42258e-06
-9.10367e-06
6.71036e-06
-9.30446e-06
5.95461e-06
-9.51228e-06
5.14865e-06
-9.72543e-06
4.28413e-06
-9.94478e-06
3.3511e-06
-1.01608e-05
2.33724e-06
-1.03894e-05
1.22526e-06
-1.0564e-05
-1.0924e-05
1.72187e-05
-5.95938e-06
1.68519e-05
-6.03318e-06
1.64779e-05
-6.11144e-06
1.60962e-05
-6.19848e-06
1.57064e-05
-6.29076e-06
1.53081e-05
-6.38548e-06
1.49008e-05
-6.48279e-06
1.4484e-05
-6.58358e-06
1.40572e-05
-6.68815e-06
1.36197e-05
-6.79651e-06
1.31709e-05
-6.90872e-06
1.27099e-05
-7.02497e-06
1.22359e-05
-7.14546e-06
1.17479e-05
-7.27036e-06
1.12446e-05
-7.39981e-06
1.07247e-05
-7.53396e-06
1.01866e-05
-7.67294e-06
9.62852e-06
-7.81684e-06
9.04824e-06
-7.96565e-06
8.44324e-06
-8.1193e-06
7.81054e-06
-8.2775e-06
7.14663e-06
-8.43976e-06
6.44734e-06
-8.60518e-06
5.70773e-06
-8.77267e-06
4.92202e-06
-8.93972e-06
4.08302e-06
-9.10579e-06
3.18258e-06
-9.26033e-06
2.21024e-06
-9.41709e-06
1.15251e-06
-9.50623e-06
-9.77149e-06
1.68964e-05
-5.59367e-06
1.65249e-05
-5.66161e-06
1.61467e-05
-5.73325e-06
1.57613e-05
-5.81308e-06
1.53682e-05
-5.89772e-06
1.49672e-05
-5.9844e-06
1.45576e-05
-6.07324e-06
1.41391e-05
-6.16506e-06
1.37111e-05
-6.26013e-06
1.32729e-05
-6.35838e-06
1.2824e-05
-6.45982e-06
1.23636e-05
-6.56455e-06
1.18908e-05
-6.67265e-06
1.14046e-05
-6.78417e-06
1.09039e-05
-6.89913e-06
1.03875e-05
-7.01751e-06
9.85379e-06
-7.13925e-06
9.30114e-06
-7.26418e-06
8.72755e-06
-7.39207e-06
8.13073e-06
-7.52248e-06