/*--------------------------------*- C++ -*----------------------------------*\
  =========                 |
  \\      /  F ield         | OpenFOAM: The Open Source CFD Toolbox
   \\    /   O peration     | Website:  https://openfoam.org
    \\  /    A nd           | Version:  11
     \\/     M anipulation  |
\*---------------------------------------------------------------------------*/
FoamFile
{
    format      ascii;
    class       surfaceScalarField;
    location    "0.5";
    object      phi;
}
// * * * * * * * * * * * * * * * * * * * * * * * * * * * * * * * * * * * * * //

dimensions      [0 3 -1 0 0 0 0];

internalField   nonuniform List<scalar> 
24840
(
1.92411e-05
7.035e-09
1.92322e-05
8.8524e-09
1.92242e-05
8.07401e-09
1.92167e-05
7.49718e-09
1.92102e-05
6.47883e-09
1.92064e-05
3.79342e-09
1.92103e-05
-3.94142e-09
1.92192e-05
-8.86279e-09
1.92277e-05
-8.44463e-09
1.92271e-05
5.26658e-10
1.92138e-05
1.32814e-08
1.91918e-05
2.20423e-08
1.91687e-05
2.3067e-08
1.91522e-05
1.65355e-08
1.91499e-05
2.32573e-09
1.91654e-05
-1.55016e-08
1.91986e-05
-3.32701e-08
1.92485e-05
-4.98977e-08
1.93136e-05
-6.50483e-08
1.93911e-05
-7.75595e-08
1.94802e-05
-8.90302e-08
1.95826e-05
-1.02448e-07
1.97008e-05
-1.18154e-07
1.98373e-05
-1.36505e-07
1.99956e-05
-1.58295e-07
2.01796e-05
-1.84015e-07
2.03942e-05
-2.14579e-07
2.06407e-05
-2.46545e-07
2.09344e-05
-2.93636e-07
-2.83745e-07
2.12181e-05
1.92526e-05
2.57834e-09
1.92569e-05
4.51101e-09
1.92619e-05
3.09061e-09
1.9267e-05
2.39994e-09
1.9271e-05
2.46689e-09
1.92737e-05
1.14425e-09
1.92745e-05
-4.8118e-09
1.9277e-05
-1.12729e-08
1.92844e-05
-1.58476e-08
1.9302e-05
-1.70932e-08
1.93306e-05
-1.52934e-08
1.93644e-05
-1.18343e-08
1.93972e-05
-9.67198e-09
1.94263e-05
-1.25817e-08
1.94541e-05
-2.54545e-08
1.94833e-05
-4.46975e-08
1.95159e-05
-6.58903e-08
1.95528e-05
-8.68418e-08
1.95948e-05
-1.06975e-07
1.96467e-05
-1.29482e-07
1.97134e-05
-1.55799e-07
1.97956e-05
-1.84597e-07
1.98942e-05
-2.16773e-07
2.00117e-05
-2.54041e-07
2.01513e-05
-2.97877e-07
2.03166e-05
-3.49296e-07
2.05118e-05
-4.09721e-07
2.07412e-05
-4.76036e-07
2.1011e-05
-5.63424e-07
-5.93181e-07
2.13205e-05
1.92501e-05
6.19272e-10
1.92536e-05
9.92747e-10
1.92576e-05
-9.46352e-10
1.92628e-05
-2.72197e-09
1.92697e-05
-4.44665e-09
1.92785e-05
-7.69241e-09
1.92856e-05
-1.18757e-08
1.92885e-05
-1.41447e-08
1.92894e-05
-1.67868e-08
1.92929e-05
-2.05875e-08
1.93026e-05
-2.5024e-08
1.93217e-05
-3.08678e-08
1.93503e-05
-3.83435e-08
1.93852e-05
-4.74929e-08
1.94217e-05
-6.19505e-08
1.94584e-05
-8.13761e-08
1.94965e-05
-1.03953e-07
1.95383e-05
-1.28688e-07
1.95868e-05
-1.5541e-07
1.9643e-05
-1.85745e-07
1.97086e-05
-2.2137e-07
1.97865e-05
-2.62552e-07
1.98799e-05
-3.10082e-07
1.99916e-05
-3.6574e-07
2.01251e-05
-4.3141e-07
2.02844e-05
-5.08574e-07
2.04739e-05
-5.99295e-07
2.06986e-05
-7.00689e-07
2.0964e-05
-8.28875e-07
-9.06942e-07
2.12778e-05
1.92494e-05
-6.28694e-10
1.92524e-05
-2.00208e-09
1.92559e-05
-4.50441e-09
1.92605e-05
-7.24558e-09
1.9266e-05
-9.95869e-09
1.92721e-05
-1.38153e-08
1.92792e-05
-1.89858e-08
1.92884e-05
-2.33197e-08
1.92991e-05
-2.74625e-08
1.93109e-05
-3.24001e-08
1.93241e-05
-3.82591e-08
1.93394e-05
-4.6147e-08
1.93585e-05
-5.74956e-08
1.93832e-05
-7.21287e-08
1.94124e-05
-9.11481e-08
1.94451e-05
-1.14156e-07
1.94814e-05
-1.40215e-07
1.9522e-05
-1.69277e-07
1.95686e-05
-2.02006e-07
1.96227e-05
-2.39879e-07
1.96859e-05
-2.84535e-07
1.97604e-05
-3.37039e-07
1.9849e-05
-3.98741e-07
1.9955e-05
-4.71735e-07
2.0082e-05
-5.58353e-07
2.0234e-05
-6.6064e-07
2.04161e-05
-7.81306e-07
2.06337e-05
-9.18376e-07
2.08925e-05
-1.08766e-06
-1.21911e-06
2.12047e-05
1.9249e-05
-1.53483e-09
1.92515e-05
-4.41377e-09
1.92547e-05
-7.76716e-09
1.92591e-05
-1.16495e-08
1.9265e-05
-1.58064e-08
1.92714e-05
-2.02505e-08
1.92774e-05
-2.50322e-08
1.92844e-05
-3.02838e-08
1.92938e-05
-3.68053e-08
1.93059e-05
-4.45489e-08
1.93209e-05
-5.33042e-08
1.93388e-05
-6.39991e-08
1.93592e-05
-7.78914e-08
1.93825e-05
-9.54197e-08
1.94084e-05
-1.17106e-07
1.94372e-05
-1.4287e-07
1.94693e-05
-1.72387e-07
1.9506e-05
-2.0597e-07
1.95486e-05
-2.44547e-07
1.95983e-05
-2.89581e-07
1.96566e-05
-3.42825e-07
1.97255e-05
-4.05965e-07
1.98077e-05
-4.80924e-07
1.99061e-05
-5.70178e-07
2.00243e-05
-6.76583e-07
2.01666e-05
-8.02936e-07
2.03381e-05
-9.52761e-07
2.05452e-05
-1.12552e-06
2.07939e-05
-1.33632e-06
-1.52405e-06
2.10988e-05
1.92488e-05
-2.25076e-09
1.92509e-05
-6.41572e-09
1.92539e-05
-1.0776e-08
1.92578e-05
-1.55686e-08
1.92625e-05
-2.05041e-08
1.92679e-05
-2.56754e-08
1.92746e-05
-3.17043e-08
1.92831e-05
-3.87634e-08
1.9293e-05
-4.67518e-08
1.93043e-05
-5.58667e-08
1.93176e-05
-6.6558e-08
1.93332e-05
-7.96074e-08
1.93512e-05
-9.59576e-08
1.9372e-05
-1.1616e-07
1.93954e-05
-1.40513e-07
1.94216e-05
-1.69054e-07
1.9451e-05
-2.01852e-07
1.94846e-05
-2.39523e-07
1.95233e-05
-2.83242e-07
1.95683e-05
-3.34617e-07
1.96211e-05
-3.95583e-07
1.96834e-05
-4.68257e-07
1.97575e-05
-5.55077e-07
1.98464e-05
-6.59018e-07
1.99534e-05
-7.83574e-07
2.00829e-05
-9.32431e-07
2.02402e-05
-1.1101e-06
2.04326e-05
-1.3179e-06
2.06666e-05
-1.5703e-06
-1.8174e-06
2.09599e-05
1.92487e-05
-2.84817e-09
1.92505e-05
-8.14596e-09
1.92531e-05
-1.34302e-08
1.92566e-05
-1.90505e-08
1.9261e-05
-2.49429e-08
1.92664e-05
-3.10593e-08
1.92725e-05
-3.78191e-08
1.92795e-05
-4.57402e-08
1.92878e-05
-5.50834e-08
1.9298e-05
-6.59898e-08
1.93102e-05
-7.87954e-08
1.93248e-05
-9.41624e-08
1.93416e-05
-1.12819e-07
1.93607e-05
-1.35238e-07
1.93819e-05
-1.6171e-07
1.94053e-05
-1.92487e-07
1.94315e-05
-2.27996e-07
1.94611e-05
-2.69116e-07
1.9495e-05
-3.17193e-07
1.95344e-05
-3.73973e-07
1.95804e-05
-4.4157e-07
1.96345e-05
-5.22442e-07
1.9699e-05
-6.19495e-07
1.97762e-05
-7.36244e-07
1.98695e-05
-8.76875e-07
1.99831e-05
-1.04607e-06
2.01225e-05
-1.2495e-06
2.02954e-05
-1.49079e-06
2.05091e-05
-1.78401e-06
-2.09303e-06
2.07848e-05
1.92486e-05
-3.3592e-09
1.92501e-05
-9.63361e-09
1.92525e-05
-1.57976e-08
1.92556e-05
-2.21925e-08
1.92595e-05
-2.88183e-08
1.92642e-05
-3.57434e-08
1.92698e-05
-4.34238e-08
1.92763e-05
-5.22738e-08
1.92838e-05
-6.25919e-08
1.92927e-05
-7.48419e-08
1.93034e-05
-8.94935e-08
1.93162e-05
-1.06939e-07
1.9331e-05
-1.27604e-07
1.93476e-05
-1.51891e-07
1.93661e-05
-1.80156e-07
1.93864e-05
-2.12835e-07
1.9409e-05
-2.50602e-07
1.94344e-05
-2.9452e-07
1.94633e-05
-3.46071e-07
1.94965e-05
-4.07137e-07
1.95349e-05
-4.80015e-07
1.95799e-05
-5.67453e-07
1.96332e-05
-6.72769e-07
1.96969e-05
-8.00002e-07
1.97741e-05
-9.5405e-07
1.98687e-05
-1.14065e-06
1.9986e-05
-1.3668e-06
2.0134e-05
-1.63879e-06
2.03206e-05
-1.97059e-06
-2.34257e-06
2.05701e-05
1.92486e-05
-3.79823e-09
1.92499e-05
-1.09145e-08
1.92519e-05
-1.7844e-08
1.92546e-05
-2.49282e-08
1.92581e-05
-3.22553e-08
1.92622e-05
-3.98759e-08
1.92669e-05
-4.81673e-08
1.92724e-05
-5.77565e-08
1.9279e-05
-6.91233e-08
1.92868e-05
-8.26613e-08
1.92961e-05
-9.88131e-08
1.93071e-05
-1.17925e-07
1.93197e-05
-1.40256e-07
1.93339e-05
-1.66085e-07
1.93496e-05
-1.95786e-07
1.93667e-05
-2.29925e-07
1.93854e-05
-2.69357e-07
1.94062e-05
-3.15289e-07
1.94294e-05
-3.69318e-07
1.94557e-05
-4.3344e-07
1.94858e-05
-5.10098e-07
1.95206e-05
-6.02266e-07
1.95614e-05
-7.13591e-07
1.961e-05
-8.48578e-07
1.96688e-05
-1.0128e-06
1.97412e-05
-1.21304e-06
1.98321e-05
-1.45771e-06
1.99493e-05
-1.75599e-06
2.01008e-05
-2.12209e-06
-2.55522e-06
2.03134e-05
1.92485e-05
-4.17016e-09
1.92496e-05
-1.20005e-08
1.92513e-05
-1.95921e-08
1.92537e-05
-2.72827e-08
1.92566e-05
-3.52045e-08
1.92602e-05
-4.3435e-08
1.92643e-05
-5.22959e-08
1.9269e-05
-6.24342e-08
1.92744e-05
-7.45106e-08
1.92808e-05
-8.90703e-08
1.92885e-05
-1.06525e-07
1.92976e-05
-1.27047e-07
1.93081e-05
-1.50713e-07
1.93197e-05
-1.77711e-07
1.93324e-05
-2.08431e-07
1.9346e-05
-2.43533e-07
1.93606e-05
-2.83996e-07
1.93765e-05
-3.3113e-07
1.93937e-05
-3.86603e-07
1.94128e-05
-4.5248e-07
1.9434e-05
-5.31295e-07
1.94579e-05
-6.26165e-07
1.94853e-05
-7.40972e-07
1.95173e-05
-8.80581e-07
1.95556e-05
-1.05114e-06
1.96029e-05
-1.26036e-06
1.96632e-05
-1.518e-06
1.97434e-05
-1.83621e-06
1.9851e-05
-2.22968e-06
-2.71796e-06
2.00138e-05
1.92484e-05
-4.47777e-09
1.92493e-05
-1.29009e-08
1.92508e-05
-2.1046e-08
1.92528e-05
-2.92445e-08
1.92552e-05
-3.76518e-08
1.92581e-05
-4.63565e-08
1.92615e-05
-5.56569e-08
1.92653e-05
-6.62395e-08
1.92697e-05
-7.88883e-08
1.92748e-05
-9.42299e-08
1.9281e-05
-1.12654e-07
1.92881e-05
-1.34225e-07
1.92963e-05
-1.58874e-07
1.93053e-05
-1.8668e-07
1.93148e-05
-2.1801e-07
1.93249e-05
-2.53569e-07
1.93353e-05
-2.94407e-07
1.93461e-05
-3.41895e-07
1.93572e-05
-3.97732e-07
1.93687e-05
-4.64002e-07
1.93807e-05
-5.4326e-07
1.93932e-05
-6.38673e-07
1.94064e-05
-7.54227e-07
1.94208e-05
-8.94992e-07
1.94372e-05
-1.0675e-06
1.9457e-05
-1.28018e-06
1.94829e-05
-1.54391e-06
1.95203e-05
-1.87353e-06
1.95749e-05
-2.28433e-06
-2.81617e-06
1.96731e-05
1.92484e-05
-4.72341e-09
1.92491e-05
-1.36198e-08
1.92503e-05
-2.22055e-08
1.92518e-05
-3.08074e-08
1.92538e-05
-3.95954e-08
1.92561e-05
-4.86573e-08
1.92587e-05
-5.82773e-08
1.92616e-05
-6.91694e-08
1.92649e-05
-8.22082e-08
1.92688e-05
-9.81003e-08
1.92734e-05
-1.1722e-07
1.92787e-05
-1.39523e-07
1.92846e-05
-1.6479e-07
1.92909e-05
-1.92996e-07
1.92974e-05
-2.24476e-07
1.93038e-05
-2.59956e-07
1.93099e-05
-3.00511e-07
1.93155e-05
-3.47519e-07
1.93204e-05
-4.02655e-07
1.93244e-05
-4.6796e-07
1.9327e-05
-5.45929e-07
1.9328e-05
-6.39666e-07
1.93269e-05
-7.5311e-07
1.93233e-05
-8.91335e-07
1.93167e-05
-1.06099e-06
1.93074e-05
-1.27086e-06
1.92961e-05
-1.53255e-06
1.92855e-05
-1.86293e-06
1.92788e-05
-2.2777e-06
-2.83495e-06
1.92976e-05
1.92483e-05
-4.90843e-09
1.92489e-05
-1.41618e-08
1.92497e-05
-2.30803e-08
1.92509e-05
-3.19817e-08
1.92523e-05
-4.10341e-08
1.9254e-05
-5.03335e-08
1.92559e-05
-6.01648e-08
1.9258e-05
-7.12455e-08
1.92603e-05
-8.45037e-08
1.92629e-05
-1.00711e-07
1.92659e-05
-1.20234e-07
1.92693e-05
-1.42935e-07
1.9273e-05
-1.68467e-07
1.92767e-05
-1.9669e-07
1.92801e-05
-2.27885e-07
1.92829e-05
-2.62764e-07
1.92848e-05
-3.02389e-07
1.92854e-05
-3.481e-07
1.92842e-05
-4.01501e-07
1.92808e-05
-4.64521e-07
1.92744e-05
-5.39508e-07
1.92641e-05
-6.29377e-07
1.92488e-05
-7.37849e-07
1.92272e-05
-8.69759e-07
1.91978e-05
-1.03154e-06
1.91588e-05
-1.23188e-06
1.91087e-05
-1.48244e-06
1.90469e-05
-1.80111e-06
1.89727e-05
-2.20349e-06
-2.76121e-06
1.88989e-05
1.92483e-05
-5.03451e-09
1.92486e-05
-1.45289e-08
1.92492e-05
-2.36688e-08
1.925e-05
-3.27698e-08
1.9251e-05
-4.19862e-08
1.9252e-05
-5.14102e-08
1.92532e-05
-6.13312e-08
1.92544e-05
-7.24706e-08
1.92557e-05
-8.57915e-08
1.92571e-05
-1.02101e-07
1.92586e-05
-1.21747e-07
1.92602e-05
-1.44524e-07
1.92617e-05
-1.69979e-07
1.92629e-05
-1.97856e-07
1.92633e-05
-2.28351e-07
1.92627e-05
-2.62129e-07
1.92605e-05
-3.00211e-07
1.92563e-05
-3.43859e-07
1.92493e-05
-3.94558e-07
1.92389e-05
-4.54065e-07
1.92239e-05
-5.24488e-07
1.92029e-05
-6.08425e-07
1.91743e-05
-7.09194e-07
1.91356e-05
-8.31136e-07
1.90842e-05
-9.80085e-07
1.90164e-05
-1.16406e-06
1.89279e-05
-1.39399e-06
1.88142e-05
-1.68739e-06
1.86696e-05
-2.05885e-06
-2.58639e-06
1.84947e-05
1.92482e-05
-5.10376e-09
1.92484e-05
-1.47342e-08
1.92487e-05
-2.39911e-08
1.92491e-05
-3.31763e-08
1.92496e-05
-4.24469e-08
1.92501e-05
-5.18983e-08
1.92506e-05
-6.17973e-08
1.92509e-05
-7.28636e-08
1.92513e-05
-8.61046e-08
1.92515e-05
-1.02335e-07
1.92516e-05
-1.2185e-07
1.92515e-05
-1.44393e-07
1.92509e-05
-1.6944e-07
1.92497e-05
-1.96623e-07
1.92474e-05
-2.26027e-07
1.92435e-05
-2.58247e-07
1.92375e-05
-2.9423e-07
1.92288e-05
-3.35131e-07
1.92165e-05
-3.82274e-07
1.91996e-05
-4.37184e-07
1.91768e-05
-5.01643e-07
1.91462e-05
-5.77814e-07
1.91054e-05
-6.68435e-07
1.90514e-05
-7.77089e-07
1.89799e-05
-9.08623e-07
1.88856e-05
-1.06979e-06
1.87615e-05
-1.2699e-06
1.85986e-05
-1.52447e-06
1.83856e-05
-1.84584e-06
-2.3094e-06
1.81086e-05
1.92481e-05
-5.11845e-09
1.92482e-05
-1.47768e-08
1.92482e-05
-2.4049e-08
1.92483e-05
-3.32238e-08
1.92483e-05
-4.24503e-08
1.92482e-05
-5.18319e-08
1.9248e-05
-6.15987e-08
1.92476e-05
-7.24603e-08
1.9247e-05
-8.54874e-08
1.92462e-05
-1.01477e-07
1.92449e-05
-1.20629e-07
1.92432e-05
-1.4265e-07
1.92407e-05
-1.66989e-07
1.92373e-05
-1.93159e-07
1.92324e-05
-2.21121e-07
1.92255e-05
-2.51377e-07
1.92161e-05
-2.84784e-07
1.92033e-05
-3.22361e-07
1.91862e-05
-3.65236e-07
1.91637e-05
-4.14655e-07
1.91341e-05
-4.72004e-07
1.90952e-05
-5.38904e-07
1.90441e-05
-6.17363e-07
1.8977e-05
-7.09975e-07
1.88886e-05
-8.20241e-07
1.87719e-05
-9.53086e-07
1.86173e-05
-1.11534e-06
1.84117e-05
-1.31888e-06
1.81383e-05
-1.57244e-06
-1.93906e-06
1.7768e-05
1.92481e-05
-5.08054e-09
1.9248e-05
-1.46679e-08
1.92478e-05
-2.38584e-08
1.92475e-05
-3.29298e-08
1.92471e-05
-4.20279e-08
1.92465e-05
-5.12457e-08
1.92457e-05
-6.07718e-08
1.92445e-05
-7.13034e-08
1.9243e-05
-8.39659e-08
1.92411e-05
-9.95582e-08
1.92386e-05
-1.18184e-07
1.92355e-05
-1.39477e-07
1.92313e-05
-1.62841e-07
1.92258e-05
-1.87695e-07
1.92186e-05
-2.13885e-07
1.92091e-05
-2.41826e-07
1.91965e-05
-2.72265e-07
1.91802e-05
-3.06064e-07
1.91591e-05
-3.44132e-07
1.91319e-05
-3.87397e-07
1.90967e-05
-4.368e-07
1.90511e-05
-4.93348e-07
1.89919e-05
-5.582e-07
1.89148e-05
-6.32787e-07
1.88135e-05
-7.18988e-07
1.86799e-05
-8.1945e-07
1.85023e-05
-9.37814e-07
1.82644e-05
-1.0809e-06
1.79446e-05
-1.25268e-06
-1.49507e-06
1.75006e-05
1.9248e-05
-4.99435e-09
1.92478e-05
-1.44201e-08
1.92474e-05
-2.34376e-08
1.92468e-05
-3.23133e-08
1.92459e-05
-4.12059e-08
1.92449e-05
-5.01712e-08
1.92434e-05
-5.9345e-08
1.92416e-05
-6.94501e-08
1.92393e-05
-8.16387e-08
1.92364e-05
-9.66832e-08
1.92328e-05
-1.14615e-07
1.92283e-05
-1.35e-07
1.92227e-05
-1.57179e-07
1.92155e-05
-1.80473e-07
1.92062e-05
-2.0462e-07
1.91943e-05
-2.29953e-07
1.91792e-05
-2.57117e-07
1.91599e-05
-2.86813e-07
1.91355e-05
-3.19719e-07
1.91045e-05
-3.56429e-07
1.90651e-05
-3.97408e-07
1.90148e-05
-4.43006e-07
1.89501e-05
-4.93478e-07
1.88663e-05
-5.48991e-07
1.87569e-05
-6.09642e-07
1.8613e-05
-6.75532e-07
1.84219e-05
-7.46681e-07
1.8165e-05
-8.23981e-07
1.78181e-05
-9.05826e-07
-1.00698e-06
1.733e-05
1.9248e-05
-4.86332e-09
1.92476e-05
-1.40483e-08
1.9247e-05
-2.28008e-08
1.92461e-05
-3.13958e-08
1.92449e-05
-4.00178e-08
1.92434e-05
-4.86515e-08
1.92414e-05
-5.74025e-08
1.9239e-05
-6.69982e-08
1.92359e-05
-7.85693e-08
1.92321e-05
-9.29141e-08
1.92276e-05
-1.10035e-07
1.92219e-05
-1.29388e-07
1.9215e-05
-1.50215e-07
1.92062e-05
-1.71738e-07
1.91952e-05
-1.93618e-07
1.91814e-05
-2.16124e-07
1.91641e-05
-2.39807e-07
1.91425e-05
-2.65216e-07
1.91156e-05
-2.92804e-07
1.9082e-05
-3.22825e-07
1.90399e-05
-3.55274e-07
1.89867e-05
-3.89847e-07
1.89191e-05
-4.2589e-07
1.88324e-05
-4.62302e-07
1.87202e-05
-4.97384e-07
1.85733e-05
-5.28645e-07
1.8379e-05
-5.52407e-07
1.81184e-05
-5.63398e-07
1.7767e-05
-5.54373e-07
-5.11349e-07
1.72713e-05
1.9248e-05
-4.69378e-09
1.92475e-05
-1.35675e-08
1.92467e-05
-2.19919e-08
1.92455e-05
-3.0227e-08
1.9244e-05
-3.84928e-08
1.9242e-05
-4.6709e-08
1.92396e-05
-5.49451e-08
1.92366e-05
-6.39734e-08
1.92329e-05
-7.48857e-08
1.92284e-05
-8.84373e-08
1.9223e-05
-1.04609e-07
1.92164e-05
-1.22805e-07
1.92083e-05
-1.42152e-07
1.91983e-05
-1.61736e-07
1.91859e-05
-1.81167e-07
1.91704e-05
-2.00694e-07
1.91514e-05
-2.20791e-07
1.91281e-05
-2.41875e-07
1.90995e-05
-2.64181e-07
1.90643e-05
-2.8765e-07
1.90208e-05
-3.11833e-07
1.89668e-05
-3.3582e-07
1.8899e-05
-3.58112e-07
1.88132e-05
-3.76431e-07
1.87032e-05
-3.87409e-07
1.85607e-05
-3.86158e-07
1.83739e-05
-3.65628e-07
1.81253e-05
-3.14807e-07
1.7792e-05
-2.21001e-07
-4.61121e-08
1.73267e-05
1.92479e-05
-4.49414e-09
1.92474e-05
-1.29957e-08
1.92464e-05
-2.10359e-08
1.9245e-05
-2.88258e-08
1.92431e-05
-3.66116e-08
1.92408e-05
-4.43714e-08
1.9238e-05
-5.21185e-08
1.92345e-05
-6.05079e-08
1.92302e-05
-7.0626e-08
1.92251e-05
-8.32707e-08
1.92189e-05
-9.84352e-08
1.92116e-05
-1.15474e-07
1.92027e-05
-1.33289e-07
1.91918e-05
-1.50792e-07
1.91782e-05
-1.67613e-07
1.91615e-05
-1.84036e-07
1.91413e-05
-2.00502e-07
1.91167e-05
-2.17325e-07
1.90871e-05
-2.3456e-07
1.90513e-05
-2.51863e-07
1.90079e-05
-2.68399e-07
1.89548e-05
-2.82729e-07
1.88893e-05
-2.9263e-07
1.88077e-05
-2.94823e-07
1.87048e-05
-2.84544e-07
1.85736e-05
-2.54896e-07
1.8404e-05
-1.96032e-07
1.8182e-05
-9.28064e-08
1.78889e-05
7.20881e-08
3.57681e-07
1.74851e-05
1.92479e-05
-4.27352e-09
1.92473e-05
-1.23644e-08
1.92462e-05
-1.99597e-08
1.92446e-05
-2.72345e-08
1.92425e-05
-3.44912e-08
1.92399e-05
-4.17317e-08
1.92367e-05
-4.89288e-08
1.92328e-05
-5.66499e-08
1.9228e-05
-6.58525e-08
1.92222e-05
-7.74473e-08
1.92154e-05
-9.16724e-08
1.92076e-05
-1.07667e-07
1.91982e-05
-1.23868e-07
1.91865e-05
-1.39117e-07
1.91721e-05
-1.53201e-07
1.91546e-05
-1.66463e-07
1.91334e-05
-1.79332e-07
1.91081e-05
-1.92069e-07
1.90782e-05
-2.0459e-07
1.90426e-05
-2.16326e-07
1.90004e-05
-2.26131e-07
1.89498e-05
-2.32144e-07
1.88887e-05
-2.31583e-07
1.88143e-05
-2.20421e-07
1.87226e-05
-1.92865e-07
1.86084e-05
-1.40622e-07
1.84644e-05
-5.2089e-08
1.82797e-05
9.18732e-08
1.80423e-05
3.09568e-07
6.71828e-07
1.77281e-05
1.92479e-05
-4.04409e-09
1.92472e-05
-1.17085e-08
1.92461e-05
-1.88133e-08
1.92444e-05
-2.54904e-08
1.92419e-05
-3.20283e-08
1.92389e-05
-3.87776e-08
1.92356e-05
-4.55689e-08
1.92314e-05
-5.24815e-08
1.92263e-05
-6.07215e-08
1.92202e-05
-7.13928e-08
1.92132e-05
-8.46684e-08
1.9205e-05
-9.94639e-08
1.91951e-05
-1.13912e-07
1.91828e-05
-1.26803e-07
1.91676e-05
-1.38053e-07
1.91493e-05
-1.48128e-07
1.91275e-05
-1.57532e-07
1.91019e-05
-1.66502e-07
1.90721e-05
-1.74832e-07
1.90376e-05
-1.81786e-07
1.89975e-05
-1.86001e-07
1.89507e-05
-1.85337e-07
1.88957e-05
-1.76657e-07
1.88308e-05
-1.55482e-07
1.87534e-05
-1.15467e-07
1.86605e-05
-4.77124e-08
1.85471e-05
6.12814e-08
1.84085e-05
2.3047e-07
1.82379e-05
4.8021e-07
8.81986e-07
1.80277e-05
1.92479e-05
-3.827e-09
1.92473e-05
-1.10885e-08
1.92461e-05
-1.76349e-08
1.92443e-05
-2.37086e-08
1.92421e-05
-2.98283e-08
1.92392e-05
-3.58571e-08
1.92352e-05
-4.15835e-08
1.92304e-05
-4.76048e-08
1.92247e-05
-5.50527e-08
1.92182e-05
-6.48857e-08
1.92108e-05
-7.72956e-08
1.92024e-05
-9.10176e-08
1.91923e-05
-1.03812e-07
1.91798e-05
-1.1438e-07
1.91645e-05
-1.22738e-07
1.91459e-05
-1.2953e-07
1.91239e-05
-1.35479e-07
1.90983e-05
-1.40912e-07
1.9069e-05
-1.45577e-07
1.90359e-05
-1.48628e-07
1.89984e-05
-1.48559e-07
1.89562e-05
-1.43078e-07
1.89084e-05
-1.28896e-07
1.88543e-05
-1.01423e-07
1.87933e-05
-5.43853e-08
1.87235e-05
2.20382e-08
1.86446e-05
1.40234e-07
1.85557e-05
3.19283e-07
1.84563e-05
5.79612e-07
9.84775e-07
1.83536e-05
1.9248e-05
-3.65944e-09
1.92475e-05
-1.05827e-08
1.92463e-05
-1.6516e-08
1.92445e-05
-2.18199e-08
1.92416e-05
-2.69434e-08
1.92379e-05
-3.22393e-08
1.9234e-05
-3.76325e-08
1.92295e-05
-4.31047e-08
1.92243e-05
-4.98488e-08
1.92181e-05
-5.86579e-08
1.92106e-05
-6.97851e-08
1.92016e-05
-8.21043e-08
1.91909e-05
-9.30364e-08
1.91778e-05
-1.01306e-07
1.9162e-05
-1.06944e-07
1.91432e-05
-1.10684e-07
1.91211e-05
-1.13468e-07
1.9096e-05
-1.15746e-07
1.90677e-05
-1.17309e-07
1.90364e-05
-1.17319e-07
1.90021e-05
-1.14256e-07
1.89648e-05
-1.05819e-07
1.89247e-05
-8.87874e-08
1.8882e-05
-5.87265e-08
1.88376e-05
-9.96352e-09
1.8792e-05
6.76028e-08
1.87478e-05
1.8453e-07
1.87084e-05
3.58596e-07
1.86788e-05
6.09294e-07
9.8573e-07
1.86778e-05
1.92481e-05
-3.61062e-09
1.92478e-05
-1.03453e-08
1.92468e-05
-1.54495e-08
1.92451e-05
-2.01661e-08
1.92433e-05
-2.50786e-08
1.92403e-05
-2.92958e-08
1.92352e-05
-3.24876e-08
1.92282e-05
-3.60973e-08
1.92212e-05
-4.28566e-08
1.92147e-05
-5.21391e-08
1.92078e-05
-6.28953e-08
1.91997e-05
-7.40539e-08
1.91894e-05
-8.26794e-08
1.91765e-05
-8.84183e-08
1.91608e-05
-9.12981e-08
1.91421e-05
-9.19258e-08
1.91202e-05
-9.15811e-08
1.90954e-05
-9.09411e-08
1.9068e-05
-8.99191e-08
1.90384e-05
-8.7766e-08
1.90072e-05
-8.30188e-08
1.89749e-05
-7.34897e-08
1.89423e-05
-5.61938e-08
1.89108e-05
-2.72579e-08
1.8882e-05
1.88852e-08
1.88597e-05
8.99035e-08
1.88479e-05
1.96255e-07
1.88544e-05
3.52099e-07
1.88882e-05
5.75533e-07
8.96779e-07
1.89771e-05
1.92484e-05
-3.83351e-09
1.92486e-05
-1.05479e-08
1.92477e-05
-1.46267e-08
1.9246e-05
-1.84425e-08
1.9243e-05
-2.21139e-08
1.92386e-05
-2.48825e-08
1.92336e-05
-2.74145e-08
1.92283e-05
-3.08221e-08
1.92225e-05
-3.71134e-08
1.92151e-05
-4.47057e-08
1.9205e-05
-5.28305e-08
1.91937e-05
-6.27303e-08
1.91817e-05
-7.06935e-08
1.9169e-05
-7.56551e-08
1.91546e-05
-7.69331e-08
1.91376e-05
-7.4949e-08
1.91176e-05
-7.15213e-08
1.90945e-05
-6.78372e-08
1.90688e-05
-6.42469e-08
1.90414e-05
-6.03313e-08
1.90132e-05
-5.48109e-08
1.89854e-05
-4.57024e-08
1.89595e-05
-3.03287e-08
1.89378e-05
-5.54955e-09
1.89233e-05
3.33334e-08
1.89212e-05
9.2038e-08
1.89377e-05
1.79757e-07
1.89834e-05
3.06421e-07
1.90706e-05
4.88271e-07
7.34304e-07
1.92331e-05
1.92491e-05
-4.78545e-09
1.92498e-05
-1.12443e-08
1.92493e-05
-1.41506e-08
1.92481e-05
-1.72022e-08
1.92467e-05
-2.07953e-08
1.92447e-05
-2.28088e-08
1.92393e-05
-2.20078e-08
1.9228e-05
-1.95415e-08
1.92107e-05
-1.98157e-08
1.91934e-05
-2.74205e-08
1.91815e-05
-4.09696e-08
1.91753e-05
-5.65183e-08
1.91715e-05
-6.68575e-08
1.91662e-05
-7.03837e-08
1.91567e-05
-6.73725e-08
1.91414e-05
-5.96896e-08
1.91213e-05
-5.14009e-08
1.90975e-05
-4.40872e-08
1.90715e-05
-3.82397e-08
1.90447e-05
-3.34836e-08
1.90184e-05
-2.85108e-08
1.89941e-05
-2.14283e-08
1.89737e-05
-9.89431e-09
1.89597e-05
8.45949e-09
1.89573e-05
3.57292e-08
1.89718e-05
7.74977e-08
1.90108e-05
1.40807e-07
1.90868e-05
2.30337e-07
1.92157e-05
3.59454e-07
5.15663e-07
1.94343e-05
1.9252e-05
-8.60254e-09
1.92531e-05
-1.23809e-08
1.92521e-05
-1.31946e-08
1.92499e-05
-1.49231e-08
1.92459e-05
-1.68805e-08
1.92389e-05
-1.57398e-08
1.92275e-05
-1.06403e-08
1.92155e-05
-7.56946e-09
1.92069e-05
-1.11465e-08
1.92042e-05
-2.47793e-08
1.92037e-05
-4.04681e-08
1.92009e-05
-5.37438e-08
1.91943e-05
-6.0234e-08
1.91828e-05
-5.88515e-08
1.91661e-05
-5.0722e-08
1.91451e-05
-3.86422e-08
1.91211e-05
-2.74577e-08
1.90957e-05
-1.86789e-08
1.907e-05
-1.24529e-08
1.90448e-05
-8.35173e-09
1.90216e-05
-5.25084e-09
1.9002e-05
-1.87075e-09
1.89884e-05
3.67701e-09
1.89838e-05
1.31182e-08
1.89901e-05
2.94219e-08
1.90139e-05
5.36953e-08
1.90667e-05
8.79395e-08
1.91612e-05
1.35849e-07
1.93158e-05
2.04908e-07
2.58761e-07
1.95727e-05
1.92395e-05
1.92271e-05
1.9214e-05
1.9199e-05
1.91822e-05
1.91664e-05
1.91558e-05
1.91482e-05
1.91371e-05
1.91123e-05
1.90718e-05
1.90181e-05
1.89578e-05
1.8899e-05
1.88483e-05
1.88096e-05
1.87822e-05
1.87635e-05
1.8751e-05
1.87427e-05
1.87374e-05
1.87356e-05
1.87392e-05
1.87523e-05
1.87818e-05
1.88355e-05
1.89234e-05
1.90593e-05
1.92642e-05
1.95229e-05
2.07577e-05
-9.79012e-06
1.02505e-05
2.02922e-05
-9.87562e-06
1.03411e-05
1.98083e-05
-9.95687e-06
1.04407e-05
1.93041e-05
-1.00313e-05
1.05356e-05
1.87832e-05
-1.01045e-05
1.06254e-05
1.82494e-05
-1.0179e-05
1.07128e-05
1.7705e-05
-1.0255e-05
1.07994e-05
1.71517e-05
-1.03332e-05
1.08865e-05
1.65908e-05
-1.04144e-05
1.09754e-05
1.60227e-05
-1.04994e-05
1.10675e-05
1.54474e-05
-1.05884e-05
1.11636e-05
1.48646e-05
-1.06819e-05
1.12646e-05
1.42738e-05
-1.07804e-05
1.13712e-05
1.36742e-05
-1.08848e-05
1.14843e-05
1.30653e-05
-1.0996e-05
1.1605e-05
1.24459e-05
-1.11152e-05
1.17346e-05
1.18149e-05
-1.12439e-05
1.18749e-05
1.11707e-05
-1.13838e-05
1.20281e-05
1.0511e-05
-1.15369e-05
1.21966e-05
9.83318e-06
-1.17055e-05
1.23834e-05
9.13344e-06
-1.18926e-05
1.25924e-05
8.40697e-06
-1.21019e-05
1.28283e-05
7.6473e-06
-1.23375e-05
1.30972e-05
6.84551e-06
-1.26054e-05
1.34071e-05
5.98948e-06
-1.29103e-05
1.37664e-05
5.06174e-06
-1.32638e-05
1.41916e-05
4.04172e-06
-1.36625e-05
1.46825e-05
2.87787e-06
-1.4149e-05
1.53129e-05
1.5944e-06
-1.46149e-05
1.58984e-05
-1.55225e-05
1.71169e-05
2.08429e-05
-9.31256e-06
2.03413e-05
-9.374e-06
1.98225e-05
-9.43808e-06
1.92932e-05
-9.50197e-06
1.87561e-05
-9.56742e-06
1.82124e-05
-9.63528e-06
1.76629e-05
-9.70549e-06
1.71079e-05
-9.77813e-06
1.65469e-05
-9.85352e-06
1.59796e-05
-9.932e-06
1.54051e-05
-1.00139e-05
1.48228e-05
-1.00996e-05
1.42321e-05
-1.01897e-05
1.36324e-05
-1.02851e-05
1.30229e-05
-1.03865e-05
1.24026e-05
-1.04949e-05
1.17701e-05
-1.06114e-05
1.11237e-05
-1.07374e-05
1.04611e-05
-1.08743e-05
9.77935e-06
-1.10238e-05
9.07487e-06
-1.11882e-05
8.34276e-06
-1.13697e-05
7.57669e-06
-1.15714e-05
6.76807e-06
-1.17967e-05
5.90564e-06
-1.20479e-05
4.97376e-06
-1.2332e-05
3.95209e-06
-1.26408e-05
2.80992e-06
-1.30069e-05
1.53322e-06
-1.33382e-05
-1.39893e-05
2.07736e-05
-8.80834e-06
2.02591e-05
-8.85947e-06
1.97354e-05
-8.91445e-06
1.92061e-05
-8.97264e-06
1.86719e-05
-9.03324e-06
1.81323e-05
-9.09564e-06
1.75866e-05
-9.15981e-06
1.70344e-05
-9.22595e-06
1.64753e-05
-9.29442e-06
1.59089e-05
-9.36556e-06
1.53348e-05
-9.43975e-06
1.47526e-05
-9.51742e-06
1.41619e-05
-9.59908e-06
1.35622e-05
-9.6853e-06
1.29524e-05
-9.77671e-06
1.23315e-05
-9.874e-06
1.16981e-05
-9.97796e-06
1.10501e-05
-1.00895e-05
1.03854e-05
-1.02096e-05
9.70112e-06
-1.03395e-05
8.99347e-06
-1.04805e-05
8.25774e-06
-1.0634e-05
7.48781e-06
-1.08015e-05
6.67556e-06
-1.09845e-05
5.81056e-06
-1.11829e-05
4.87856e-06
-1.14e-05
3.86168e-06
-1.16239e-05
2.73568e-06
-1.18809e-05
1.47301e-06
-1.20756e-05
-1.25163e-05
2.06943e-05
-8.298e-06
2.01774e-05
-8.34258e-06
1.96535e-05
-8.39054e-06
1.91238e-05
-8.44291e-06
1.85884e-05
-8.49789e-06
1.8047e-05
-8.55417e-06
1.7499e-05
-8.61185e-06
1.69445e-05
-8.67139e-06
1.63832e-05
-8.73313e-06
1.58149e-05
-8.7973e-06
1.52393e-05
-8.86417e-06
1.46559e-05
-8.93404e-06
1.40641e-05
-9.00727e-06
1.34631e-05
-9.08423e-06
1.28517e-05
-9.16537e-06
1.22289e-05
-9.25115e-06
1.1593e-05
-9.34208e-06
1.09422e-05
-9.43873e-06
1.02743e-05
-9.54168e-06
9.58631e-06
-9.65154e-06
8.87471e-06
-9.7689e-06
8.13495e-06
-9.89426e-06
7.36125e-06
-1.00278e-05
6.5461e-06
-1.01694e-05
5.68017e-06
-1.0317e-05
4.75081e-06
-1.04706e-05
3.74324e-06
-1.06164e-05
2.63652e-06
-1.07741e-05
1.40358e-06
-1.08426e-05
-1.11127e-05
2.05837e-05
-7.7829e-06
2.00631e-05
-7.82189e-06
1.95362e-05
-7.86365e-06
1.90037e-05
-7.9104e-06
1.84657e-05
-7.95991e-06
1.79219e-05
-8.01043e-06
1.73721e-05
-8.06207e-06
1.68161e-05
-8.11538e-06
1.62536e-05
-8.17064e-06
1.56843e-05
-8.22793e-06
1.51075e-05
-8.2874e-06
1.45228e-05
-8.34928e-06
1.39293e-05
-8.4138e-06
1.33263e-05
-8.48121e-06
1.27127e-05
-8.55178e-06
1.20873e-05
-8.62575e-06
1.14486e-05
-8.70338e-06
1.07947e-05
-8.7849e-06
1.01235e-05
-8.87047e-06
9.43218e-06
-8.96019e-06
8.71729e-06
-9.05401e-06
7.9746e-06
-9.15157e-06
7.1988e-06
-9.25198e-06
6.38318e-06
-9.35374e-06
5.51956e-06
-9.45333e-06
4.5971e-06
-9.54814e-06
3.60387e-06
-9.62313e-06
2.52141e-06
-9.69168e-06
1.32896e-06
-9.65018e-06
-9.78373e-06
2.04408e-05
-7.2638e-06
1.99167e-05
-7.2978e-06
1.9387e-05
-7.33395e-06
1.8852e-05
-7.37538e-06
1.83117e-05
-7.41959e-06
1.77658e-05
-7.46451e-06
1.72139e-05
-7.51022e-06
1.66558e-05
-7.55731e-06
1.60912e-05
-7.606e-06
1.55196e-05
-7.65629e-06
1.49404e-05
-7.70826e-06
1.43532e-05
-7.76203e-06
1.37571e-05
-7.81773e-06
1.31513e-05
-7.87547e-06
1.25349e-05
-7.93533e-06
1.19065e-05
-7.99737e-06
1.12647e-05
-8.06159e-06
1.06077e-05
-8.12791e-06
9.93342e-06
-8.19615e-06
9.23917e-06
-8.26594e-06
8.52184e-06
-8.33668e-06
7.77757e-06
-8.4073e-06
7.00162e-06
-8.47604e-06
6.18818e-06
-8.54029e-06
5.33031e-06
-8.59547e-06
4.41905e-06
-8.63688e-06
3.44514e-06
-8.64922e-06
2.39301e-06
-8.63956e-06
1.25007e-06
-8.50724e-06
-8.53365e-06
2.02617e-05
-6.74072e-06
1.9734e-05
-6.77011e-06
1.92011e-05
-6.80105e-06
1.86631e-05
-6.83736e-06
1.81198e-05
-6.87635e-06
1.75711e-05
-6.91575e-06
1.70164e-05
-6.95559e-06
1.64556e-05
-6.99648e-06
1.58882e-05
-7.03862e-06
1.53139e-05
-7.08193e-06
1.4732e-05
-7.12638e-06
1.4142e-05
-7.172e-06
1.35431e-05
-7.21884e-06
1.29345e-05
-7.26685e-06
1.23151e-05
-7.31598e-06
1.16838e-05
-7.36608e-06
1.10392e-05
-7.41695e-06
1.03795e-05
-7.46825e-06
9.70285e-06
-7.51949e-06
9.00684e-06
-7.56993e-06
8.28864e-06
-7.61848e-06
7.54486e-06
-7.66352e-06
6.77143e-06
-7.70261e-06
5.96348e-06
-7.73235e-06
5.11541e-06
-7.74739e-06
4.22014e-06
-7.74161e-06
3.27095e-06
-7.70003e-06
2.25552e-06
-7.62413e-06
1.16941e-06
-7.42113e-06
-7.36424e-06
2.0043e-05
-6.21357e-06
1.95115e-05
-6.23866e-06
1.89752e-05
-6.26471e-06
1.84339e-05
-6.29604e-06
1.78874e-05
-6.32989e-06
1.73355e-05
-6.36384e-06
1.67778e-05
-6.39789e-06
1.6214e-05
-6.43265e-06
1.56436e-05
-6.46827e-06
1.50663e-05
-6.50461e-06
1.44815e-05
-6.54155e-06
1.38885e-05
-6.57906e-06
1.32868e-05
-6.61707e-06
1.26753e-05
-6.65543e-06
1.20533e-05
-6.69393e-06
1.14195e-05
-6.7323e-06
1.07727e-05
-6.77013e-06
1.01113e-05
-6.80688e-06
9.43362e-06
-6.84179e-06
8.73751e-06
-6.87383e-06
8.02055e-06
-6.90152e-06
7.27984e-06
-6.92281e-06
6.51207e-06
-6.93484e-06
5.71335e-06
-6.93363e-06
4.87939e-06
-6.91343e-06
4.00499e-06
-6.86721e-06
3.08578e-06
-6.78082e-06
2.11287e-06
-6.65122e-06
1.08899e-06
-6.39725e-06
-6.27526e-06
1.97821e-05
-5.68224e-06
1.92467e-05
-5.70331e-06
1.87068e-05
-5.7248e-06
1.81621e-05
-5.75129e-06
1.76122e-05
-5.78006e-06
1.70571e-05
-5.80865e-06
1.64962e-05
-5.83701e-06
1.59292e-05
-5.86572e-06
1.53559e-05
-5.89491e-06
1.47757e-05
-5.92438e-06
1.4188e-05
-5.95394e-06
1.35924e-05
-5.98347e-06
1.29882e-05
-6.01283e-06
1.23745e-05
-6.04177e-06
1.17506e-05
-6.06997e-06
1.11153e-05
-6.09703e-06
1.04676e-05
-6.12238e-06
9.80601e-06
-6.14533e-06
9.12912e-06
-6.1649e-06
8.43512e-06
-6.17983e-06
7.722e-06
-6.18839e-06
6.98744e-06
-6.18825e-06
6.22885e-06
-6.17624e-06
5.44335e-06
-6.14813e-06
4.62792e-06
-6.09801e-06
3.77913e-06
-6.01841e-06
2.89465e-06
-5.89634e-06
1.96881e-06
-5.72538e-06
1.00956e-06
-5.438e-06
-5.2657e-06
1.94783e-05
-5.14681e-06
1.89391e-05
-5.16413e-06
1.83957e-05
-5.18139e-06
1.78477e-05
-5.2032e-06
1.72946e-05
-5.22699e-06
1.67363e-05
-5.25034e-06
1.61724e-05
-5.27316e-06
1.56027e-05
-5.296e-06
1.50267e-05
-5.31893e-06
1.4444e-05
-5.34171e-06
1.38542e-05
-5.36411e-06
1.32567e-05
-5.38594e-06
1.26508e-05
-5.40698e-06
1.2036e-05
-5.42691e-06
1.14114e-05
-5.44533e-06
1.0776e-05
-5.46171e-06
1.01291e-05
-5.47541e-06
9.46931e-06
-5.48557e-06
8.79551e-06
-5.4911e-06
8.10624e-06
-5.49057e-06
7.39993e-06
-5.48208e-06
6.67484e-06