/*--------------------------------*- C++ -*----------------------------------*\
  =========                 |
  \\      /  F ield         | OpenFOAM: The Open Source CFD Toolbox
   \\    /   O peration     | Website:  https://openfoam.org
    \\  /    A nd           | Version:  11
     \\/     M anipulation  |
\*---------------------------------------------------------------------------*/
FoamFile
{
    format      ascii;
    class       surfaceScalarField;
    location    "0.5";
    object      phi;
}
// * * * * * * * * * * * * * * * * * * * * * * * * * * * * * * * * * * * * * //

dimensions      [0 3 -1 0 0 0 0];

internalField   nonuniform List<scalar> 
24840
(
1.57974e-05
1.35782e-08
1.57795e-05
1.78557e-08
1.57628e-05
1.67289e-08
1.57462e-05
1.65881e-08
1.5731e-05
1.525e-08
1.57224e-05
8.56466e-09
1.57219e-05
5.23389e-10
1.57219e-05
-3.86187e-11
1.5709e-05
1.29654e-08
1.56763e-05
3.26321e-08
1.56312e-05
4.50955e-08
1.55842e-05
4.70419e-08
1.55437e-05
4.05099e-08
1.55196e-05
2.40997e-08
1.55141e-05
5.45015e-09
1.55224e-05
-8.28899e-09
1.5539e-05
-1.65405e-08
1.55596e-05
-2.06662e-08
1.55817e-05
-2.21097e-08
1.56042e-05
-2.24231e-08
1.5627e-05
-2.28002e-08
1.5651e-05
-2.40442e-08
1.56776e-05
-2.65677e-08
1.5708e-05
-3.04185e-08
1.57442e-05
-3.61745e-08
1.57873e-05
-4.31203e-08
1.584e-05
-5.275e-08
1.59036e-05
-6.3609e-08
1.59846e-05
-8.0953e-08
-1.08193e-07
1.60928e-05
1.58169e-05
7.64438e-09
1.58204e-05
1.43685e-08
1.5823e-05
1.41379e-08
1.58241e-05
1.54914e-08
1.58232e-05
1.61416e-08
1.5819e-05
1.27449e-08
1.58118e-05
7.76209e-09
1.58065e-05
5.19312e-09
1.5812e-05
7.47948e-09
1.58292e-05
1.54438e-08
1.58478e-05
2.65508e-08
1.58591e-05
3.56994e-08
1.58636e-05
3.59843e-08
1.58648e-05
2.29428e-08
1.58648e-05
5.46226e-09
1.58662e-05
-9.69213e-09
1.58693e-05
-1.96895e-08
1.58747e-05
-2.60578e-08
1.58825e-05
-2.99336e-08
1.5893e-05
-3.29139e-08
1.59065e-05
-3.62907e-08
1.59235e-05
-4.10019e-08
1.59444e-05
-4.74987e-08
1.59703e-05
-5.62957e-08
1.60013e-05
-6.71466e-08
1.60397e-05
-8.15846e-08
1.60859e-05
-9.88951e-08
1.61441e-05
-1.21806e-07
1.62133e-05
-1.5021e-07
-1.73746e-07
1.62789e-05
1.58137e-05
4.93002e-09
1.5817e-05
1.10332e-08
1.58194e-05
1.18032e-08
1.58221e-05
1.27035e-08
1.58251e-05
1.3186e-08
1.58264e-05
1.14477e-08
1.58236e-05
1.05776e-08
1.5815e-05
1.37776e-08
1.58036e-05
1.88351e-08
1.5799e-05
2.00717e-08
1.58053e-05
2.03085e-08
1.58215e-05
1.94831e-08
1.58423e-05
1.51788e-08
1.58581e-05
7.07571e-09
1.58664e-05
-2.81316e-09
1.58696e-05
-1.29192e-08
1.58719e-05
-2.19911e-08
1.58755e-05
-2.95783e-08
1.58815e-05
-3.59818e-08
1.58907e-05
-4.20774e-08
1.59032e-05
-4.88521e-08
1.59195e-05
-5.7222e-08
1.59398e-05
-6.78492e-08
1.59649e-05
-8.13995e-08
1.5996e-05
-9.8255e-08
1.60339e-05
-1.19507e-07
1.60808e-05
-1.45737e-07
1.61369e-05
-1.77922e-07
1.62054e-05
-2.18715e-07
-2.51109e-07
1.62828e-05
1.58126e-05
3.32577e-09
1.58153e-05
8.28542e-09
1.58173e-05
9.81019e-09
1.58195e-05
1.0516e-08
1.58218e-05
1.08993e-08
1.58229e-05
1.03392e-08
1.58229e-05
1.05685e-08
1.58235e-05
1.31664e-08
1.58248e-05
1.75473e-08
1.58264e-05
1.84605e-08
1.58289e-05
1.7829e-08
1.58328e-05
1.56247e-08
1.58386e-05
9.33085e-09
1.58458e-05
-1.55666e-10
1.58534e-05
-1.03887e-08
1.58603e-05
-1.98122e-08
1.58664e-05
-2.81261e-08
1.58725e-05
-3.5692e-08
1.58798e-05
-4.3205e-08
1.58891e-05
-5.14091e-08
1.59013e-05
-6.10246e-08
1.59168e-05
-7.2781e-08
1.59364e-05
-8.73731e-08
1.59605e-05
-1.05578e-07
1.59904e-05
-1.28143e-07
1.60271e-05
-1.56156e-07
1.60721e-05
-1.90732e-07
1.61267e-05
-2.32506e-07
1.61934e-05
-2.85441e-07
-3.32791e-07
1.62751e-05
1.5812e-05
2.32574e-09
1.5814e-05
6.22982e-09
1.5816e-05
7.85025e-09
1.58182e-05
8.32143e-09
1.58203e-05
8.7829e-09
1.58214e-05
9.25882e-09
1.58215e-05
1.04828e-08
1.58224e-05
1.22232e-08
1.58262e-05
1.37627e-08
1.58314e-05
1.32231e-08
1.5837e-05
1.22676e-08
1.58421e-05
1.05056e-08
1.58463e-05
5.09639e-09
1.58501e-05
-3.89299e-09
1.5854e-05
-1.43371e-08
1.58585e-05
-2.43304e-08
1.58637e-05
-3.33072e-08
1.58698e-05
-4.17573e-08
1.58772e-05
-5.05938e-08
1.58865e-05
-6.06811e-08
1.58982e-05
-7.27757e-08
1.5913e-05
-8.76069e-08
1.59316e-05
-1.0592e-07
1.59546e-05
-1.28582e-07
1.5983e-05
-1.56575e-07
1.6018e-05
-1.91115e-07
1.60609e-05
-2.33656e-07
1.61135e-05
-2.85066e-07
1.61777e-05
-3.49731e-07
-4.1337e-07
1.62583e-05
1.58116e-05
1.64989e-09
1.58132e-05
4.6245e-09
1.58149e-05
6.17002e-09
1.58168e-05
6.44243e-09
1.5819e-05
6.58476e-09
1.5821e-05
7.25712e-09
1.5823e-05
8.4698e-09
1.58257e-05
9.58798e-09
1.5829e-05
1.04507e-08
1.58323e-05
9.87668e-09
1.58361e-05
8.49989e-09
1.58406e-05
6.00746e-09
1.5845e-05
6.57458e-10
1.58491e-05
-7.94627e-09
1.58529e-05
-1.81437e-08
1.58569e-05
-2.83866e-08
1.58616e-05
-3.79989e-08
1.58673e-05
-4.74278e-08
1.58743e-05
-5.76128e-08
1.58831e-05
-6.9492e-08
1.58942e-05
-8.38856e-08
1.59082e-05
-1.01563e-07
1.59256e-05
-1.23337e-07
1.59472e-05
-1.5018e-07
1.59739e-05
-1.83264e-07
1.60068e-05
-2.23994e-07
1.60472e-05
-2.74108e-07
1.6097e-05
-3.34886e-07
1.61582e-05
-4.10866e-07
-4.90915e-07
1.62357e-05
1.58115e-05
1.1643e-09
1.58127e-05
3.34327e-09
1.58143e-05
4.56428e-09
1.5816e-05
4.78526e-09
1.58177e-05
4.86469e-09
1.58196e-05
5.37011e-09
1.5822e-05
6.06819e-09
1.58249e-05
6.66593e-09
1.58283e-05
7.10731e-09
1.58317e-05
6.40891e-09
1.58355e-05
4.75298e-09
1.58396e-05
1.84424e-09
1.58439e-05
-3.56724e-09
1.58479e-05
-1.19395e-08
1.58516e-05
-2.18793e-08
1.58553e-05
-3.20839e-08
1.58594e-05
-4.2125e-08
1.58645e-05
-5.24909e-08
1.58709e-05
-6.40485e-08
1.58791e-05
-7.76822e-08
1.58895e-05
-9.42252e-08
1.59024e-05
-1.14509e-07
1.59185e-05
-1.39449e-07
1.59385e-05
-1.70142e-07
1.59631e-05
-2.07933e-07
1.59936e-05
-2.54428e-07
1.60311e-05
-3.11635e-07
1.60775e-05
-3.81315e-07
1.61347e-05
-4.68076e-07
-5.64131e-07
1.6208e-05
1.58113e-05
7.86485e-10
1.58124e-05
2.308e-09
1.58138e-05
3.1849e-09
1.58153e-05
3.23062e-09
1.5817e-05
3.1392e-09
1.58189e-05
3.46112e-09
1.58212e-05
3.84657e-09
1.58239e-05
3.8997e-09
1.58273e-05
3.73243e-09
1.58309e-05
2.86341e-09
1.58346e-05
9.95271e-10
1.58386e-05
-2.14634e-09
1.58424e-05
-7.40956e-09
1.58458e-05
-1.52936e-08
1.5849e-05
-2.50377e-08
1.58523e-05
-3.54354e-08
1.58562e-05
-4.60371e-08
1.5861e-05
-5.72942e-08
1.5867e-05
-7.00569e-08
1.58746e-05
-8.52235e-08
1.5884e-05
-1.03666e-07
1.58958e-05
-1.26279e-07
1.59104e-05
-1.54066e-07
1.59285e-05
-1.8824e-07
1.59509e-05
-2.30301e-07
1.59785e-05
-2.82059e-07
1.60126e-05
-3.4578e-07
1.60551e-05
-4.23727e-07
1.61075e-05
-5.20551e-07
-6.3189e-07
1.61753e-05
1.58113e-05
4.82227e-10
1.58121e-05
1.43317e-09
1.58134e-05
1.94465e-09
1.58148e-05
1.83078e-09
1.58163e-05
1.59121e-09
1.58181e-05
1.65117e-09
1.58203e-05
1.70306e-09
1.58229e-05
1.2879e-09
1.5826e-05
5.94816e-10
1.58294e-05
-5.04975e-10
1.58329e-05
-2.48048e-09
1.58365e-05
-5.75287e-09
1.58402e-05
-1.10953e-08
1.58437e-05
-1.87872e-08
1.58468e-05
-2.82133e-08
1.58499e-05
-3.85246e-08
1.58534e-05
-4.94829e-08
1.58576e-05
-6.15143e-08
1.58629e-05
-7.53747e-08
1.58696e-05
-9.19215e-08
1.5878e-05
-1.1205e-07
1.58884e-05
-1.36716e-07
1.59014e-05
-1.67012e-07
1.59174e-05
-2.04263e-07
1.59372e-05
-2.50108e-07
1.59617e-05
-3.06551e-07
1.5992e-05
-3.76101e-07
1.60298e-05
-4.61516e-07
1.60767e-05
-5.67484e-07
-6.93078e-07
1.61379e-05
1.58112e-05
2.2587e-10
1.5812e-05
6.84318e-10
1.58131e-05
8.4901e-10
1.58144e-05
5.47792e-10
1.58158e-05
1.31202e-10
1.58175e-05
-8.31519e-11
1.58196e-05
-3.91403e-10
1.58221e-05
-1.16233e-09
1.58249e-05
-2.18037e-09
1.58279e-05
-3.57097e-09
1.58312e-05
-5.77241e-09
1.58347e-05
-9.23188e-09
1.58381e-05
-1.45291e-08
1.58413e-05
-2.19347e-08
1.58441e-05
-3.10667e-08
1.58469e-05
-4.13349e-08
1.58501e-05
-5.25962e-08
1.58538e-05
-6.52525e-08
1.58584e-05
-8.00152e-08
1.58642e-05
-9.77211e-08
1.58715e-05
-1.19278e-07
1.58804e-05
-1.45692e-07
1.58916e-05
-1.7813e-07
1.59053e-05
-2.18015e-07
1.59223e-05
-2.67111e-07
1.59434e-05
-3.27589e-07
1.59694e-05
-4.02184e-07
1.6002e-05
-4.9411e-07
1.60426e-05
-6.08095e-07
-7.46556e-07
1.60961e-05
1.58112e-05
4.55632e-12
1.58118e-05
3.23758e-11
1.58128e-05
-1.28738e-10
1.5814e-05
-6.36329e-10
1.58154e-05
-1.23647e-09
1.5817e-05
-1.67406e-09
1.58187e-05
-2.15201e-09
1.58208e-05
-3.2835e-09
1.58236e-05
-4.9014e-09
1.58266e-05
-6.59001e-09
1.58297e-05
-8.88739e-09
1.58329e-05
-1.2426e-08
1.58361e-05
-1.76995e-08
1.5839e-05
-2.48894e-08
1.58417e-05
-3.37087e-08
1.58441e-05
-4.38207e-08
1.58468e-05
-5.52383e-08
1.58499e-05
-6.83611e-08
1.58537e-05
-8.38483e-08
1.58585e-05
-1.02504e-07
1.58645e-05
-1.25239e-07
1.58719e-05
-1.5309e-07
1.5881e-05
-1.8729e-07
1.58924e-05
-2.2934e-07
1.59064e-05
-2.81107e-07
1.59237e-05
-3.44907e-07
1.59451e-05
-4.23661e-07
1.5972e-05
-5.20991e-07
1.60056e-05
-6.41653e-07
-7.91196e-07
1.60502e-05
1.58112e-05
-1.92669e-10
1.58117e-05
-5.47197e-10
1.58126e-05
-1.01544e-09
1.58137e-05
-1.73107e-09
1.5815e-05
-2.51525e-09
1.58165e-05
-3.18159e-09
1.58184e-05
-4.01189e-09
1.58204e-05
-5.32376e-09
1.58226e-05
-7.08688e-09
1.58251e-05
-9.12722e-09
1.58279e-05
-1.16918e-08
1.58309e-05
-1.53934e-08
1.58339e-05
-2.06748e-08
1.58366e-05
-2.76314e-08
1.5839e-05
-3.60925e-08
1.58412e-05
-4.59675e-08
1.58433e-05
-5.741e-08
1.58458e-05
-7.08256e-08
1.58488e-05
-8.68359e-08
1.58525e-05
-1.06213e-07
1.58571e-05
-1.29856e-07
1.58628e-05
-1.58821e-07
1.58699e-05
-1.94384e-07
1.58787e-05
-2.38104e-07
1.58895e-05
-2.91926e-07
1.59029e-05
-3.58275e-07
1.59194e-05
-4.4022e-07
1.59402e-05
-5.41712e-07
1.5966e-05
-6.67512e-07
-8.25942e-07
1.60008e-05
1.58111e-05
-3.70453e-10
1.58117e-05
-1.06822e-09
1.58125e-05
-1.82509e-09
1.58135e-05
-2.74001e-09
1.58147e-05
-3.69352e-09
1.58161e-05
-4.57179e-09
1.58176e-05
-5.55142e-09
1.58194e-05
-7.16604e-09
1.58217e-05
-9.318e-09
1.58241e-05
-1.15614e-08
1.58267e-05
-1.42743e-08
1.58294e-05
-1.80665e-08
1.5832e-05
-2.3319e-08
1.58344e-05
-3.00395e-08
1.58364e-05
-3.81225e-08
1.58382e-05
-4.76935e-08
1.58398e-05
-5.90428e-08
1.58416e-05
-7.25901e-08
1.58437e-05
-8.89276e-08
1.58462e-05
-1.08795e-07
1.58494e-05
-1.33071e-07
1.58534e-05
-1.62816e-07
1.58584e-05
-1.99328e-07
1.58645e-05
-2.44205e-07
1.5872e-05
-2.99437e-07
1.58812e-05
-3.67522e-07
1.58926e-05
-4.5162e-07
1.59069e-05
-5.55919e-07
1.59245e-05
-6.85139e-07
-8.49877e-07
1.59484e-05
1.58111e-05
-5.3305e-10
1.58116e-05
-1.54734e-09
1.58124e-05
-2.56825e-09
1.58133e-05
-3.6835e-09
1.58144e-05
-4.81053e-09
1.58157e-05
-5.87789e-09
1.58173e-05
-7.09453e-09
1.5819e-05
-8.8615e-09
1.58208e-05
-1.11755e-08
1.58229e-05
-1.36859e-08
1.58253e-05
-1.6605e-08
1.58277e-05
-2.05202e-08
1.58301e-05
-2.57402e-08
1.58323e-05
-3.21661e-08
1.58339e-05
-3.97865e-08
1.58352e-05
-4.89545e-08
1.58362e-05
-6.0084e-08
1.58373e-05
-7.3606e-08
1.58384e-05
-9.00817e-08
1.58398e-05
-1.10211e-07
1.58416e-05
-1.34843e-07
1.58438e-05
-1.65028e-07
1.58465e-05
-2.02068e-07
1.58499e-05
-2.47574e-07
1.5854e-05
-3.03555e-07
1.5859e-05
-3.72533e-07
1.58651e-05
-4.57703e-07
1.58726e-05
-5.63371e-07
1.58816e-05
-6.94164e-07
-8.62304e-07
1.5894e-05
1.58111e-05
-6.84609e-10
1.58116e-05
-1.99507e-09
1.58123e-05
-3.26584e-09
1.58131e-05
-4.56285e-09
1.58142e-05
-5.84514e-09
1.58154e-05
-7.09243e-09
1.58168e-05
-8.47223e-09
1.58184e-05
-1.04616e-08
1.58202e-05
-1.29726e-08
1.58221e-05
-1.56264e-08
1.58242e-05
-1.87007e-08
1.58264e-05
-2.26865e-08
1.58285e-05
-2.78389e-08
1.58302e-05
-3.39305e-08
1.58315e-05
-4.10302e-08
1.58322e-05
-4.97143e-08
1.58327e-05
-6.05086e-08
1.58329e-05
-7.38533e-08
1.58331e-05
-9.02781e-08
1.58333e-05
-1.10439e-07
1.58336e-05
-1.35148e-07
1.5834e-05
-1.65429e-07
1.58345e-05
-2.02573e-07
1.58351e-05
-2.48179e-07
1.58358e-05
-3.04242e-07
1.58366e-05
-3.73261e-07
1.58373e-05
-4.58401e-07
1.58379e-05
-5.63961e-07
1.58381e-05
-6.94401e-07
-8.62821e-07
1.58386e-05
1.58111e-05
-8.29014e-10
1.58115e-05
-2.42176e-09
1.58122e-05
-3.92793e-09
1.5813e-05
-5.37971e-09
1.5814e-05
-6.79722e-09
1.58151e-05
-8.2359e-09
1.58165e-05
-9.84843e-09
1.5818e-05
-1.19663e-08
1.58195e-05
-1.45226e-08
1.58212e-05
-1.7329e-08
1.58232e-05
-2.06201e-08
1.58252e-05
-2.47129e-08
1.5827e-05
-2.96853e-08
1.58284e-05
-3.52909e-08
1.58292e-05
-4.17899e-08
1.58294e-05
-4.99233e-08
1.58291e-05
-6.02777e-08
1.58286e-05
-7.3302e-08
1.58278e-05
-8.94959e-08
1.58268e-05
-1.09466e-07
1.58257e-05
-1.33976e-07
1.58242e-05
-1.64016e-07
1.58225e-05
-2.00843e-07
1.58204e-05
-2.46026e-07
1.58176e-05
-3.01508e-07
1.58141e-05
-3.69725e-07
1.58094e-05
-4.53741e-07
1.58032e-05
-5.57723e-07
1.57947e-05
-6.8588e-07
-8.51379e-07
1.57832e-05
1.58111e-05
-9.70096e-10
1.58115e-05
-2.84072e-09
1.58122e-05
-4.57119e-09
1.58129e-05
-6.14737e-09
1.58138e-05
-7.67773e-09
1.58149e-05
-9.33269e-09
1.58163e-05
-1.11858e-08
1.58176e-05
-1.33433e-08
1.5819e-05
-1.58932e-08
1.58206e-05
-1.88895e-08
1.58223e-05
-2.24023e-08
1.58242e-05
-2.6566e-08
1.58258e-05
-3.12731e-08
1.58268e-05
-3.62677e-08
1.5827e-05
-4.20516e-08
1.58266e-05
-4.95312e-08
1.58257e-05
-5.934e-08
1.58243e-05
-7.19227e-08
1.58225e-05
-8.77287e-08
1.58204e-05
-1.07299e-07
1.58177e-05
-1.31344e-07
1.58145e-05
-1.60809e-07
1.58106e-05
-1.96908e-07
1.58057e-05
-2.41154e-07
1.57996e-05
-2.95414e-07
1.57919e-05
-3.62012e-07
1.5782e-05
-4.43848e-07
1.57691e-05
-5.44838e-07
1.57521e-05
-6.68856e-07
-8.28322e-07
1.57291e-05
1.58111e-05
-1.112e-09
1.58115e-05
-3.26123e-09
1.58122e-05
-5.2087e-09
1.58129e-05
-6.88545e-09
1.58137e-05
-8.5099e-09
1.58148e-05
-1.03788e-08
1.5816e-05
-1.24433e-08
1.58174e-05
-1.46686e-08
1.58187e-05
-1.72346e-08
1.58202e-05
-2.03634e-08
1.58218e-05
-2.40638e-08
1.58235e-05
-2.82089e-08
1.58247e-05
-3.24768e-08
1.58252e-05
-3.67373e-08
1.58249e-05
-4.17708e-08
1.58239e-05
-4.85634e-08
1.58223e-05
-5.77476e-08
1.58202e-05
-6.97578e-08
1.58174e-05
-8.49997e-08
1.58141e-05
-1.03953e-07
1.581e-05
-1.27269e-07
1.5805e-05
-1.5584e-07
1.57989e-05
-1.90818e-07
1.57914e-05
-2.33639e-07
1.57821e-05
-2.86065e-07
1.57703e-05
-3.50272e-07
1.57554e-05
-4.28942e-07
1.57362e-05
-5.25629e-07
1.57112e-05
-6.43805e-07
-7.94395e-07
1.56772e-05
1.58111e-05
-1.25949e-09
1.58116e-05
-3.69814e-09
1.58122e-05
-5.85547e-09
1.58129e-05
-7.62126e-09
1.58138e-05
-9.33469e-09
1.58148e-05
-1.13867e-08
1.58161e-05
-1.37344e-08
1.58173e-05
-1.58986e-08
1.58184e-05
-1.83704e-08
1.58198e-05
-2.17539e-08
1.58214e-05
-2.56142e-08
1.58228e-05
-2.96643e-08
1.58237e-05
-3.33847e-08
1.58238e-05
-3.68009e-08
1.5823e-05
-4.09975e-08
1.58215e-05
-4.70121e-08
1.58192e-05
-5.54638e-08
1.58162e-05
-6.6773e-08
1.58125e-05
-8.1296e-08
1.5808e-05
-9.94406e-08
1.58025e-05
-1.21789e-07
1.57958e-05
-1.49166e-07
1.57877e-05
-1.82652e-07
1.57776e-05
-2.23589e-07
1.57652e-05
-2.73612e-07
1.57496e-05
-3.34715e-07
1.573e-05
-4.09321e-07
1.57049e-05
-5.00545e-07
1.56725e-05
-6.114e-07
-7.50711e-07
1.56288e-05
1.58111e-05
-1.41935e-09
1.58116e-05
-4.16654e-09
1.58123e-05
-6.52669e-09
1.5813e-05
-8.36385e-09
1.58138e-05
-1.01509e-08
1.58148e-05
-1.23393e-08
1.58157e-05
-1.4651e-08
1.5817e-05
-1.71615e-08
1.58186e-05
-2.00159e-08
1.58201e-05
-2.32309e-08
1.58214e-05
-2.69031e-08
1.58224e-05
-3.07261e-08
1.58229e-05
-3.39035e-08
1.58226e-05
-3.64532e-08
1.58213e-05
-3.97311e-08
1.58192e-05
-4.48617e-08
1.58162e-05
-5.24911e-08
1.58124e-05
-6.29967e-08
1.58078e-05
-7.66574e-08
1.58022e-05
-9.38064e-08
1.57953e-05
-1.14957e-07
1.5787e-05
-1.4086e-07
1.57769e-05
-1.7251e-07
1.57644e-05
-2.1114e-07
1.57491e-05
-2.58239e-07
1.57299e-05
-3.15597e-07
1.5706e-05
-3.85354e-07
1.56756e-05
-4.70134e-07
1.56366e-05
-5.72474e-07
-6.9869e-07
1.55846e-05
1.58111e-05
-1.60104e-09
1.58117e-05
-4.69366e-09
1.58124e-05
-7.25197e-09
1.58132e-05
-9.13531e-09
1.5814e-05
-1.09721e-08
1.58149e-05
-1.32904e-08
1.58162e-05
-1.58921e-08
1.58174e-05
-1.83467e-08
1.58185e-05
-2.11536e-08
1.58199e-05
-2.45873e-08
1.58213e-05
-2.83225e-08
1.58223e-05
-3.1731e-08
1.58224e-05
-3.40083e-08
1.58216e-05
-3.56339e-08
1.58198e-05
-3.79225e-08
1.5817e-05
-4.21339e-08
1.58134e-05
-4.88961e-08
1.58089e-05
-5.8489e-08
1.58034e-05
-7.11263e-08
1.57967e-05
-8.70919e-08
1.57886e-05
-1.06831e-07
1.57787e-05
-1.31008e-07
1.57667e-05
-1.60513e-07
1.5752e-05
-1.96455e-07
1.5734e-05
-2.40164e-07
1.57116e-05
-2.93217e-07
1.56837e-05
-3.57458e-07
1.56486e-05
-4.35011e-07
1.5604e-05
-5.27961e-07
-6.39931e-07
1.55453e-05
1.58112e-05
-1.81788e-09
1.58118e-05
-5.31407e-09
1.58126e-05
-8.0713e-09
1.58134e-05
-9.95521e-09
1.58143e-05
-1.17938e-08
1.58151e-05
-1.41721e-08
1.58161e-05
-1.68028e-08
1.58174e-05
-1.9682e-08
1.5819e-05
-2.27386e-08
1.58203e-05
-2.58751e-08
1.58211e-05
-2.91978e-08
1.58218e-05
-3.23566e-08
1.5822e-05
-3.42135e-08
1.58211e-05
-3.4748e-08
1.58189e-05
-3.57229e-08
1.58155e-05
-3.87112e-08
1.5811e-05
-4.44802e-08
1.58057e-05
-5.31375e-08
1.57993e-05
-6.47056e-08
1.57916e-05
-7.9371e-08
1.57822e-05
-9.75169e-08
1.5771e-05
-1.19733e-07
1.57573e-05
-1.46808e-07
1.57405e-05
-1.7972e-07
1.572e-05
-2.19629e-07
1.56947e-05
-2.67897e-07
1.56633e-05
-3.26078e-07
1.56241e-05
-3.95822e-07
1.5575e-05
-4.7883e-07
-5.76067e-07
1.55111e-05
1.58112e-05
-2.09727e-09
1.5812e-05
-6.05816e-09
1.58129e-05
-8.97212e-09
1.58138e-05
-1.08745e-08
1.58147e-05
-1.26712e-08
1.58156e-05
-1.50356e-08
1.58166e-05
-1.78397e-08
1.58178e-05
-2.0878e-08
1.58191e-05
-2.40737e-08
1.58204e-05
-2.71956e-08
1.58216e-05
-3.03622e-08
1.58222e-05
-3.29474e-08
1.58219e-05
-3.38807e-08
1.58204e-05
-3.32614e-08
1.58175e-05
-3.28901e-08
1.58136e-05
-3.4751e-08
1.58087e-05
-3.9554e-08
1.58027e-05
-4.71887e-08
1.57955e-05
-5.7533e-08
1.57869e-05
-7.07229e-08
1.57765e-05
-8.7091e-08
1.57639e-05
-1.07141e-07
1.57486e-05
-1.31546e-07
1.573e-05
-1.61135e-07
1.57073e-05
-1.96896e-07
1.56794e-05
-2.39976e-07
1.5645e-05
-2.91667e-07
1.56023e-05
-3.53201e-07
1.55495e-05
-4.26013e-07
-5.08699e-07
1.54822e-05
1.58113e-05
-2.47445e-09
1.58123e-05
-7.019e-09
1.58134e-05
-1.0069e-08
1.58143e-05
-1.17742e-08
1.5815e-05
-1.34182e-08
1.58158e-05
-1.58372e-08
1.58169e-05
-1.88488e-08
1.58181e-05
-2.20789e-08
1.58193e-05
-2.53182e-08
1.58205e-05
-2.83454e-08
1.58212e-05
-3.1098e-08
1.58216e-05
-3.33725e-08
1.58215e-05
-3.37426e-08
1.582e-05
-3.17952e-08
1.58171e-05
-2.99731e-08
1.58128e-05
-3.04079e-08
1.58072e-05
-3.39559e-08
1.58004e-05
-4.03992e-08
1.57923e-05
-4.94492e-08
1.57827e-05
-6.11216e-08
1.57712e-05
-7.56319e-08
1.57575e-05
-9.33758e-08
1.57408e-05
-1.1491e-07
1.57206e-05
-1.40926e-07
1.5696e-05
-1.72242e-07
1.56658e-05
-2.09801e-07
1.56288e-05
-2.54668e-07
1.55833e-05
-3.07732e-07
1.55276e-05
-3.70337e-07
-4.3922e-07
1.54582e-05
1.58115e-05
-3.0298e-09
1.58128e-05
-8.28195e-09
1.58139e-05
-1.11966e-08
1.5815e-05
-1.28986e-08
1.58163e-05
-1.46429e-08
1.5817e-05
-1.6585e-08
1.58173e-05
-1.91473e-08
1.5818e-05
-2.27601e-08
1.58191e-05
-2.64752e-08
1.58201e-05
-2.93168e-08
1.58208e-05
-3.17367e-08
1.58212e-05
-3.38496e-08
1.58207e-05
-3.32313e-08
1.5819e-05
-3.00272e-08
1.58158e-05
-2.68479e-08
1.58113e-05
-2.58427e-08
1.58053e-05
-2.80412e-08
1.57981e-05
-3.31278e-08
1.57893e-05
-4.07138e-08
1.5779e-05
-5.07344e-08
1.57666e-05
-6.32716e-08
1.57518e-05
-7.85829e-08
1.5734e-05
-9.70854e-08
1.57124e-05
-1.19322e-07
1.56861e-05
-1.45948e-07
1.5654e-05
-1.77717e-07
1.56148e-05
-2.155e-07
1.5567e-05
-2.59917e-07
1.55091e-05
-3.12448e-07
-3.68628e-07
1.54385e-05
1.58118e-05
-3.90199e-09
1.58135e-05
-9.98082e-09
1.58149e-05
-1.25414e-08
1.58163e-05
-1.43193e-08
1.58173e-05
-1.56078e-08
1.58169e-05
-1.62485e-08
1.58155e-05
-1.76763e-08
1.58146e-05
-2.18934e-08
1.58161e-05
-2.79629e-08
1.58186e-05
-3.18545e-08
1.58205e-05
-3.3643e-08
1.58212e-05
-3.45007e-08
1.58201e-05
-3.21987e-08
1.5818e-05
-2.79177e-08
1.58146e-05
-2.34573e-08
1.581e-05
-2.11686e-08
1.58039e-05
-2.201e-08
1.57963e-05
-2.54914e-08
1.5787e-05
-3.13643e-08
1.57758e-05
-3.959e-08
1.57626e-05
-5.00822e-08
1.57469e-05
-6.2896e-08
1.57281e-05
-7.8262e-08
1.57054e-05
-9.65671e-08
1.56777e-05
-1.18312e-07
1.56441e-05
-1.44071e-07
1.56031e-05
-1.7456e-07
1.55534e-05
-2.10166e-07
1.54937e-05
-2.52793e-07
-2.97245e-07
1.54223e-05
1.58124e-05
-5.36013e-09
1.58148e-05
-1.23642e-08
1.58162e-05
-1.39424e-08
1.58176e-05
-1.56638e-08
1.58187e-05
-1.67553e-08
1.58182e-05
-1.57963e-08
1.58164e-05
-1.57994e-08
1.58148e-05
-2.0319e-08
1.58139e-05
-2.70553e-08
1.58127e-05
-3.06632e-08
1.58116e-05
-3.25147e-08
1.58114e-05
-3.43678e-08
1.5812e-05
-3.27633e-08
1.58126e-05
-2.85258e-08
1.5812e-05
-2.28954e-08
1.58092e-05
-1.83167e-08
1.58036e-05
-1.64407e-08
1.57954e-05
-1.73068e-08
1.57852e-05
-2.10925e-08
1.57731e-05
-2.75642e-08
1.57592e-05
-3.61542e-08
1.57429e-05
-4.65308e-08
1.57233e-05
-5.86982e-08
1.56997e-05
-7.29359e-08
1.5671e-05
-8.96304e-08
1.56361e-05
-1.09208e-07
1.55938e-05
-1.32224e-07
1.55424e-05
-1.58764e-07
1.54812e-05
-1.91618e-07
-2.24436e-07
1.54084e-05
1.58135e-05
-7.90479e-09
1.58165e-05
-1.53474e-08
1.58182e-05
-1.56818e-08
1.582e-05
-1.74753e-08
1.58218e-05
-1.85046e-08
1.58218e-05
-1.58182e-08
1.58175e-05
-1.14685e-08
1.58065e-05
-9.37138e-09
1.57921e-05
-1.25945e-08
1.57843e-05
-2.29186e-08
1.57877e-05
-3.58716e-08
1.57994e-05
-4.61179e-08
1.58142e-05
-4.74837e-08
1.58228e-05
-3.71774e-08
1.58232e-05
-2.32969e-08
1.58173e-05
-1.23585e-08
1.58074e-05
-6.61436e-09
1.57959e-05
-5.78826e-09
1.57837e-05
-8.89487e-09
1.57707e-05
-1.45734e-08
1.57563e-05
-2.16915e-08
1.57395e-05
-2.97431e-08
1.57194e-05
-3.86633e-08
1.56952e-05
-4.87361e-08
1.56659e-05
-6.02627e-08
1.56302e-05
-7.35627e-08
1.5587e-05
-8.90211e-08
1.55345e-05
-1.06216e-07
1.54717e-05
-1.28858e-07
-1.46729e-07
1.5394e-05
1.58169e-05
-1.38199e-08
1.58199e-05
-1.83762e-08
1.58216e-05
-1.73464e-08
1.58217e-05
-1.762e-08
1.58198e-05
-1.65453e-08
1.58141e-05
-1.01945e-08
1.58051e-05
-2.38438e-09
1.57981e-05
-2.43756e-09
1.58014e-05
-1.58327e-08
1.58144e-05
-3.60107e-08
1.58276e-05
-4.9058e-08
1.58338e-05
-5.23279e-08
1.58329e-05
-4.65367e-08
1.58272e-05
-3.14801e-08
1.58187e-05
-1.48067e-08
1.58089e-05
-2.556e-09
1.57991e-05
3.22298e-09
1.57888e-05
4.5277e-09
1.57775e-05
2.37377e-09
1.57648e-05
-1.84909e-09
1.575e-05
-6.90887e-09
1.57325e-05
-1.23027e-08
1.57117e-05
-1.782e-08
1.56867e-05
-2.371e-08
1.56566e-05
-3.01463e-08
1.56203e-05
-3.73377e-08
1.55769e-05
-4.55784e-08
1.55252e-05
-5.44815e-08
1.54623e-05
-6.60508e-08
-5.37518e-08
1.53694e-05
1.57971e-05
1.57788e-05
1.57614e-05
1.57438e-05
1.57273e-05
1.57171e-05
1.57147e-05
1.57122e-05
1.56964e-05
1.56604e-05
1.56113e-05
1.5559e-05
1.55125e-05
1.5481e-05
1.54662e-05
1.54636e-05
1.54669e-05
1.54714e-05
1.54738e-05
1.54719e-05
1.5465e-05
1.54527e-05
1.54349e-05
1.54112e-05
1.5381e-05
1.53437e-05
1.52981e-05
1.52436e-05
1.51776e-05
1.51238e-05
1.57151e-05
-9.14549e-06
9.52315e-06
1.53152e-05
-9.20889e-06
9.60876e-06
1.48871e-05
-9.25986e-06
9.68798e-06
1.44359e-05
-9.29906e-06
9.7503e-06
1.39704e-05
-9.33599e-06
9.80146e-06
1.34974e-05
-9.37504e-06
9.84801e-06
1.30205e-05
-9.41717e-06
9.89413e-06
1.25411e-05
-9.46253e-06
9.94192e-06
1.20598e-05
-9.5112e-06
9.9925e-06
1.15766e-05
-9.5632e-06
1.00464e-05
1.10912e-05
-9.61867e-06
1.0104e-05
1.06037e-05
-9.67796e-06
1.01655e-05
1.01137e-05
-9.74168e-06
1.02316e-05
9.62141e-06
-9.81067e-06
1.0303e-05
9.12665e-06
-9.88598e-06
1.03807e-05
8.62931e-06
-9.9689e-06
1.04662e-05
8.12917e-06
-1.00611e-05
1.05612e-05
7.6259e-06
-1.01646e-05
1.06679e-05
7.119e-06
-1.02823e-05
1.07892e-05
6.60777e-06
-1.04179e-05
1.09292e-05
6.0913e-06
-1.05764e-05
1.10928e-05
5.56775e-06
-1.07649e-05
1.12884e-05
5.03638e-06
-1.09926e-05
1.1524e-05
4.48947e-06
-1.12785e-05
1.18254e-05
3.93483e-06
-1.16306e-05
1.21853e-05
3.33038e-06
-1.21405e-05
1.2745e-05
2.73453e-06
-1.27024e-05
1.32982e-05
1.97664e-06
-1.39221e-05
1.468e-05
1.20507e-06
-1.48325e-05
1.56041e-05
-1.89186e-05
2.01236e-05
1.58492e-05
-8.7158e-06
1.53924e-05
-8.75206e-06
1.49216e-05
-8.7891e-06
1.44459e-05
-8.82341e-06
1.39691e-05
-8.85917e-06
1.34924e-05
-8.89833e-06
1.30156e-05
-8.9404e-06
1.2538e-05
-8.98492e-06
1.20588e-05
-9.03198e-06
1.15775e-05
-9.0819e-06
1.10939e-05
-9.13509e-06
1.0608e-05
-9.19205e-06
1.01198e-05
-9.25346e-06
9.62924e-06
-9.3201e-06
9.13622e-06
-9.39296e-06
8.64057e-06
-9.47326e-06
8.14203e-06
-9.56254e-06
7.64021e-06
-9.66282e-06
7.1346e-06
-9.77673e-06
6.62443e-06
-9.90775e-06
6.10869e-06
-1.00606e-05
5.58572e-06
-1.02419e-05
5.05383e-06
-1.04607e-05
4.50773e-06
-1.07324e-05
3.94857e-06
-1.10715e-05
3.3483e-06
-1.15402e-05
2.73968e-06
-1.20938e-05
1.99022e-06
-1.31727e-05
1.2125e-06
-1.40548e-05
-1.77061e-05
1.58249e-05
-8.25796e-06
1.53603e-05
-8.28748e-06
1.48918e-05
-8.32052e-06
1.44227e-05
-8.35434e-06
1.39531e-05
-8.3896e-06
1.3482e-05
-8.42722e-06
1.30087e-05
-8.46712e-06
1.25331e-05
-8.50925e-06
1.2055e-05
-8.55392e-06
1.15746e-05
-8.60155e-06
1.10921e-05
-8.65256e-06
1.06075e-05
-8.7074e-06
1.01206e-05
-8.76663e-06
9.63155e-06
-8.83101e-06
9.14002e-06
-8.90143e-06
8.64584e-06
-8.97907e-06
8.14871e-06
-9.06541e-06
7.64822e-06
-9.16233e-06
7.14382e-06
-9.27233e-06
6.63472e-06
-9.39865e-06
6.11982e-06
-9.54571e-06
5.59753e-06
-9.71962e-06
5.0657e-06
-9.92889e-06
4.52018e-06
-1.01869e-05
3.95843e-06
-1.05097e-05
3.36108e-06
-1.09429e-05
2.74313e-06
-1.14758e-05
2.00015e-06
-1.24297e-05
1.21353e-06
-1.32682e-05
-1.64925e-05
1.5814e-05
-7.79693e-06
1.53505e-05
-7.82394e-06
1.48839e-05
-7.85389e-06
1.44154e-05
-7.88585e-06
1.39453e-05
-7.91952e-06
1.34733e-05
-7.95522e-06
1.29993e-05
-7.99316e-06
1.25235e-05
-8.03346e-06
1.2046e-05
-8.07635e-06
1.15666e-05
-8.12216e-06
1.10853e-05
-8.17126e-06
1.0602e-05
-8.22407e-06
1.01165e-05
-8.28115e-06
9.62871e-06
-8.34323e-06
9.13847e-06
-8.41119e-06
8.64552e-06
-8.48613e-06
8.14955e-06
-8.56944e-06
7.65013e-06
-8.66291e-06
7.14665e-06
-8.76885e-06
6.63829e-06
-8.89029e-06
6.12391e-06
-9.03133e-06
5.60188e-06
-9.19759e-06
5.06987e-06
-9.39688e-06
4.52412e-06
-9.64112e-06
3.9603e-06
-9.94592e-06
3.36402e-06
-1.03466e-05
2.73839e-06
-1.08502e-05
2.00106e-06
-1.16924e-05
1.20859e-06
-1.24757e-05
-1.52839e-05
1.57957e-05
-7.33427e-06
1.53312e-05
-7.35948e-06
1.48645e-05
-7.38717e-06
1.43961e-05
-7.41748e-06
1.39264e-05
-7.44981e-06
1.34552e-05
-7.48402e-06
1.29824e-05
-7.5203e-06
1.25078e-05
-7.55888e-06
1.20314e-05
-7.59998e-06
1.15531e-05
-7.64391e-06
1.10729e-05
-7.69103e-06
1.05906e-05
-7.74179e-06
1.01062e-05
-7.79673e-06
9.61949e-06
-7.85652e-06
9.1303e-06
-7.922e-06
8.63836e-06
-7.99419e-06
8.14333e-06
-8.07441e-06
7.64474e-06
-8.16432e-06
7.14197e-06
-8.26607e-06
6.63414e-06
-8.38247e-06
6.12007e-06
-8.51726e-06
5.5981e-06
-8.67561e-06
5.06581e-06
-8.8646e-06
4.51953e-06
-9.09484e-06
3.95416e-06
-9.38056e-06
3.35793e-06
-9.75037e-06
2.72668e-06
-1.02189e-05
1.99388e-06
-1.09596e-05
1.19637e-06
-1.16782e-05
-1.40876e-05
1.57725e-05
-6.87106e-06
1.53079e-05
-6.89486e-06
1.48416e-05
-6.92086e-06
1.43738e-05
-6.9497e-06
1.39047e-05
-6.98066e-06
1.3434e-05
-7.01336e-06
1.29617e-05
-7.04798e-06
1.24877e-05
-7.08485e-06
1.20119e-05
-7.12421e-06
1.15343e-05
-7.16634e-06
1.10549e-05
-7.21158e-06
1.05735e-05
-7.26036e-06
1.00899e-05
-7.31319e-06
9.60409e-06
-7.37069e-06
9.11575e-06
-7.43366e-06
8.62462e-06
-7.50306e-06
8.13031e-06
-7.58011e-06
7.63234e-06
-7.66635e-06
7.13004e-06
-7.76377e-06
6.62252e-06
-7.87495e-06
6.10856e-06
-8.0033e-06
5.58644e-06
-8.15349e-06
5.05372e-06
-8.33187e-06
4.50669e-06
-8.54781e-06
3.94001e-06
-8.81388e-06
3.34321e-06
-9.15357e-06
2.70793e-06
-9.58365e-06
1.97902e-06
-1.02307e-05
1.17885e-06
-1.0878e-05
-1.29087e-05
1.57445e-05
-6.40757e-06
1.52798e-05
-6.43017e-06
1.48137e-05
-6.45475e-06
1.43462e-05
-6.4822e-06
1.38773e-05
-6.51179e-06
1.3407e-05
-6.54303e-06
1.29351e-05
-6.57611e-06
1.24616e-05
-6.61138e-06
1.19865e-05
-6.64908e-06
1.15096e-05
-6.68947e-06
1.10309e-05
-6.73286e-06
1.05502e-05
-6.77966e-06
1.00674e-05
-6.83036e-06
9.58225e-06
-6.88556e-06
9.09456e-06
-6.94598e-06
8.60403e-06
-7.01252e-06
8.11024e-06
-7.08632e-06
7.61267e-06
-7.16879e-06
7.11066e-06
-7.26175e-06
6.60326e-06
-7.36755e-06
6.08923e-06
-7.48927e-06
5.56682e-06
-7.63108e-06
5.03355e-06
-7.79861e-06
4.48572e-06
-7.99998e-06
3.9179e-06
-8.24606e-06
3.32034e-06
-8.556e-06
2.6824e-06
-8.94572e-06
1.95764e-06
-9.5059e-06
1.1565e-06
-1.00769e-05
-1.17522e-05
1.57116e-05
-5.94388e-06
1.52469e-05
-5.96542e-06
1.47809e-05
-5.98875e-06
1.43136e-05
-6.01491e-06
1.38449e-05
-6.04317e-06
1.33749e-05
-6.07302e-06
1.29034e-05
-6.10462e-06
1.24304e-05
-6.13834e-06
1.19557e-05
-6.17441e-06
1.14793e-05
-6.21308e-06
1.10011e-05
-6.25465e-06
1.05209e-05
-6.29949e-06
1.00386e-05
-6.34806e-06
9.55401e-06
-6.40093e-06
9.0668e-06
-6.45876e-06
8.57667e-06
-6.5224e-06
8.08322e-06
-6.59286e-06
7.58589e-06
-6.67146e-06
7.08398e-06
-6.75984e-06
6.57655e-06
-6.86012e-06
6.06231e-06
-6.97503e-06
5.5395e-06
-7.10826e-06
5.00562e-06
-7.26473e-06
4.45699e-06
-7.45135e-06
3.88822e-06
-7.67729e-06
3.28997e-06
-7.95775e-06
2.65061e-06
-8.30635e-06
1.93029e-06
-8.78559e-06
1.13019e-06
-9.27678e-06
-1.0622e-05
1.5674e-05
-5.47998e-06
1.52092e-05
-5.50058e-06
1.47432e-05
-5.52279e-06
1.4276e-05
-5.54771e-06
1.38075e-05
-5.57469e-06
1.33377e-05
-5.60319e-06
1.28665e-05
-5.63337e-06
1.23937e-05
-5.66558e-06
1.19194e-05
-5.70008e-06
1.14433e-05
-5.73706e-06
1.09655e-05
-5.77681e-06
1.04857e-05
-5.8197e-06
1.00038e-05
-5.86614e-06
9.51951e-06
-5.91665e-06
9.0326e-06
-5.97185e-06
8.54272e-06
-6.03252e-06
8.04944e-06
-6.09958e-06
7.5522e-06
-6.17422e-06
7.05026e-06
-6.25791e-06
6.54266e-06
-6.35252e-06
6.02812e-06
-6.46049e-06
5.50486e-06
-6.585e-06
4.97038e-06
-6.73025e-06
4.42104e-06
-6.90201e-06
3.85153e-06
-7.10778e-06
3.25289e-06
-7.35912e-06
2.6132e-06
-7.66665e-06
1.8978e-06
-8.0702e-06
1.10096e-06
-8.47993e-06
-9.52108e-06
1.5632e-05
-5.01583e-06
1.5167e-05
-5.03557e-06
1.4701e-05
-5.05677e-06
1.42338e-05
-5.08053e-06
1.37653e-05
-5.10625e-06
1.32956e-05
-5.13345e-06
1.28245e-05
-5.16226e-06
1.23519e-05
-5.19301e-06
1.18778e-05
-5.22595e-06
1.1402e-05
-5.26126e-06
1.09244e-05
-5.29921e-06
1.04448e-05
-5.34014e-06
9.96314e-06
-5.38443e-06
9.47906e-06
-5.43257e-06
8.99231e-06
-5.48511e-06
8.50254e-06
-5.54275e-06
8.0093e-06
-5.60634e-06
7.51202e-06
-5.67693e-06
7.00995e-06
-5.75583e-06
6.50211e-06
-5.84469e-06
5.98722e-06
-5.9456e-06
5.4635e-06
-6.06127e-06
4.92848e-06
-6.19523e-06
4.37858e-06
-6.35211e-06
3.80861e-06
-6.53782e-06
3.21002e-06
-6.76053e-06