/*--------------------------------*- C++ -*----------------------------------*\
  =========                 |
  \\      /  F ield         | OpenFOAM: The Open Source CFD Toolbox
   \\    /   O peration     | Website:  https://openfoam.org
    \\  /    A nd           | Version:  11
     \\/     M anipulation  |
\*---------------------------------------------------------------------------*/
FoamFile
{
    format      ascii;
    class       volVectorField;
    location    "0.5";
    object      U;
}
// * * * * * * * * * * * * * * * * * * * * * * * * * * * * * * * * * * * * * //

dimensions      [0 1 -1 0 0 0 0];

internalField   nonuniform List<vector> 
12600
(
(0.399661 0.000107548 0)
(0.399431 0.000153931 0)
(0.399083 0.000166894 0)
(0.398668 0.000173983 0)
(0.398287 0.000137221 0)
(0.398123 -2.96666e-05 0)
(0.398278 -0.000122891 0)
(0.398537 -5.41895e-05 0)
(0.398491 0.000257195 0)
(0.39793 0.000532952 0)
(0.397031 0.000562026 0)
(0.396124 0.000481217 0)
(0.395489 0.000233643 0)
(0.39536 -9.46668e-05 0)
(0.39584 -0.000319821 0)
(0.396854 -0.000442966 0)
(0.398283 -0.000533689 0)
(0.400054 -0.000610388 0)
(0.402134 -0.000676978 0)
(0.404538 -0.00074802 0)
(0.407349 -0.000848534 0)
(0.410701 -0.000990797 0)
(0.414746 -0.0011808 0)
(0.419646 -0.00142644 0)
(0.425622 -0.00173822 0)
(0.432924 -0.00212388 0)
(0.441857 -0.00260809 0)
(0.452755 -0.00312122 0)
(0.465932 -0.00407424 0)
(0.484541 -0.0034328 0)
(0.400039 0.000140275 0)
(0.400176 0.000242407 0)
(0.400379 0.000219179 0)
(0.400468 0.000207616 0)
(0.4005 0.000168416 0)
(0.400479 2.00617e-05 0)
(0.40041 -0.000114667 0)
(0.400416 -9.87957e-05 0)
(0.400672 3.02745e-05 0)
(0.401319 0.00022223 0)
(0.402303 0.00038266 0)
(0.403074 0.000387446 0)
(0.403627 0.000228344 0)
(0.404131 -0.000107042 0)
(0.404705 -0.000480084 0)
(0.40542 -0.000814721 0)
(0.406369 -0.00108834 0)
(0.407472 -0.00133106 0)
(0.408878 -0.00158851 0)
(0.410795 -0.00189622 0)
(0.413178 -0.00227683 0)
(0.416121 -0.0027512 0)
(0.419747 -0.00334088 0)
(0.424204 -0.00407145 0)
(0.429666 -0.00497384 0)
(0.436361 -0.00608178 0)
(0.444547 -0.00744355 0)
(0.454621 -0.00902143 0)
(0.466801 -0.0112684 0)
(0.482367 -0.0118573 0)
(0.400024 7.38275e-05 0)
(0.400112 0.000109583 0)
(0.400242 8.40276e-05 0)
(0.400381 8.25577e-05 0)
(0.400521 7.78845e-05 0)
(0.400668 3.41173e-05 0)
(0.400741 -2.17382e-05 0)
(0.400678 -8.63239e-05 0)
(0.400563 -0.00017559 0)
(0.400607 -0.000293869 0)
(0.400934 -0.000327141 0)
(0.401738 -0.000314116 0)
(0.402724 -0.000390264 0)
(0.40364 -0.000614353 0)
(0.404445 -0.000919256 0)
(0.405259 -0.00125284 0)
(0.40621 -0.00159756 0)
(0.407405 -0.0019607 0)
(0.408915 -0.00239393 0)
(0.410786 -0.00293177 0)
(0.413087 -0.0035822 0)
(0.415926 -0.00437281 0)
(0.419425 -0.0053425 0)
(0.423732 -0.00653424 0)
(0.429024 -0.00799856 0)
(0.435538 -0.00979279 0)
(0.44351 -0.0119959 0)
(0.453418 -0.0146038 0)
(0.465231 -0.0180608 0)
(0.481069 -0.0205332 0)
(0.400016 3.89361e-05 0)
(0.400082 7.29514e-05 0)
(0.400186 6.34026e-05 0)
(0.400305 5.45058e-05 0)
(0.400429 6.03406e-06 0)
(0.400546 -9.83815e-05 0)
(0.400671 -0.000126936 0)
(0.400853 -5.72442e-05 0)
(0.401048 -1.75104e-05 0)
(0.40127 -5.12115e-05 0)
(0.40159 -0.000208343 0)
(0.402021 -0.000443843 0)
(0.402565 -0.000709151 0)
(0.403232 -0.00101564 0)
(0.404016 -0.00135639 0)
(0.404912 -0.00173752 0)
(0.405934 -0.00217107 0)
(0.407142 -0.00267311 0)
(0.408615 -0.0032773 0)
(0.410426 -0.00401031 0)
(0.412653 -0.0048954 0)
(0.415394 -0.00597576 0)
(0.41877 -0.00730596 0)
(0.422924 -0.00894574 0)
(0.42803 -0.0109646 0)
(0.434322 -0.0134412 0)
(0.442025 -0.0164849 0)
(0.451635 -0.0201217 0)
(0.463058 -0.024846 0)
(0.478597 -0.0289858 0)
(0.400012 1.81357e-05 0)
(0.400059 3.3711e-05 0)
(0.400149 1.2027e-05 0)
(0.400276 -3.00177e-05 0)
(0.400388 -6.96521e-05 0)
(0.400482 -9.89973e-05 0)
(0.400602 -0.00013721 0)
(0.400796 -0.000221136 0)
(0.401045 -0.000346944 0)
(0.401349 -0.000489987 0)
(0.401734 -0.000639716 0)
(0.40218 -0.000809015 0)
(0.402667 -0.00103506 0)
(0.403226 -0.00135422 0)
(0.403899 -0.0017504 0)
(0.404706 -0.00220568 0)
(0.405663 -0.00272824 0)
(0.406816 -0.00334354 0)
(0.408226 -0.00408885 0)
(0.409958 -0.0050019 0)
(0.412082 -0.00612004 0)
(0.414692 -0.00749191 0)
(0.417906 -0.00917877 0)
(0.421862 -0.0112536 0)
(0.426725 -0.0138048 0)
(0.432724 -0.0169361 0)
(0.44007 -0.0207855 0)
(0.449272 -0.0254268 0)
(0.460175 -0.0313505 0)
(0.475258 -0.0371614 0)
(0.400009 3.42335e-06 0)
(0.400047 -1.61689e-06 0)
(0.400126 -3.44255e-05 0)
(0.400231 -8.01988e-05 0)
(0.400337 -0.000129718 0)
(0.40045 -0.000192967 0)
(0.400628 -0.000256686 0)
(0.400862 -0.000314417 0)
(0.401078 -0.000392998 0)
(0.401311 -0.000511168 0)
(0.401643 -0.000684046 0)
(0.402065 -0.000927899 0)
(0.402535 -0.00124981 0)
(0.403066 -0.00165043 0)
(0.403697 -0.00211462 0)
(0.404451 -0.00264061 0)
(0.405346 -0.00325126 0)
(0.406427 -0.00398088 0)
(0.407753 -0.00486981 0)
(0.409382 -0.00596085 0)
(0.411379 -0.00729885 0)
(0.413832 -0.00893986 0)
(0.416849 -0.0109564 0)
(0.420561 -0.0134377 0)
(0.425125 -0.0164918 0)
(0.43076 -0.020246 0)
(0.437663 -0.0248658 0)
(0.446346 -0.0304739 0)
(0.456601 -0.0375523 0)
(0.47106 -0.0450074 0)
(0.400008 -7.79621e-06 0)
(0.400038 -3.04784e-05 0)
(0.400111 -7.2448e-05 0)
(0.400207 -0.000133522 0)
(0.400291 -0.000201444 0)
(0.400381 -0.000264247 0)
(0.400559 -0.00032555 0)
(0.400805 -0.000411772 0)
(0.401022 -0.000546899 0)
(0.401241 -0.000726912 0)
(0.401556 -0.000944265 0)
(0.401962 -0.00120905 0)
(0.402402 -0.0015415 0)
(0.402886 -0.00195711 0)
(0.403461 -0.00245545 0)
(0.404152 -0.00304041 0)
(0.404977 -0.00373452 0)
(0.405976 -0.00457236 0)
(0.407203 -0.00559538 0)
(0.40871 -0.00685035 0)
(0.410557 -0.00839042 0)
(0.412823 -0.0102814 0)
(0.415608 -0.0126067 0)
(0.419034 -0.0154689 0)
(0.423246 -0.0189934 0)
(0.42845 -0.0233305 0)
(0.434825 -0.0286732 0)
(0.44288 -0.0351949 0)
(0.452363 -0.0433689 0)
(0.466011 -0.0524267 0)
(0.400006 -1.70469e-05 0)
(0.400032 -5.49239e-05 0)
(0.400096 -0.000109677 0)
(0.400183 -0.000179191 0)
(0.40026 -0.000251246 0)
(0.400345 -0.000326848 0)
(0.400505 -0.000419293 0)
(0.400728 -0.000535135 0)
(0.400935 -0.00067732 0)
(0.401149 -0.000853656 0)
(0.401449 -0.00107846 0)
(0.401824 -0.00137019 0)
(0.402223 -0.00174354 0)
(0.402659 -0.00220541 0)
(0.40318 -0.0027566 0)
(0.403808 -0.00340623 0)
(0.404558 -0.00418054 0)
(0.405466 -0.00511759 0)
(0.40658 -0.00626248 0)
(0.407949 -0.00766708 0)
(0.409624 -0.00939193 0)
(0.411677 -0.0115111 0)
(0.414198 -0.0141176 0)
(0.417298 -0.0173266 0)
(0.421108 -0.0212804 0)
(0.425817 -0.0261515 0)
(0.431586 -0.0321597 0)
(0.438905 -0.0395291 0)
(0.447492 -0.0487265 0)
(0.460127 -0.0593264 0)
(0.400005 -2.43217e-05 0)
(0.400028 -7.62503e-05 0)
(0.400084 -0.000141736 0)
(0.400162 -0.000220471 0)
(0.400228 -0.000304931 0)
(0.400302 -0.000394667 0)
(0.400459 -0.000498216 0)
(0.400676 -0.000624068 0)
(0.400856 -0.0007826 0)
(0.401032 -0.000986025 0)
(0.401299 -0.00124352 0)
(0.401645 -0.00156513 0)
(0.40201 -0.00196389 0)
(0.402403 -0.00245169 0)
(0.40287 -0.00303773 0)
(0.403433 -0.00373769 0)
(0.404102 -0.00458053 0)
(0.404908 -0.00560574 0)
(0.405896 -0.00686019 0)
(0.407109 -0.00839918 0)
(0.408592 -0.010289 0)
(0.410408 -0.0126115 0)
(0.412636 -0.0154686 0)
(0.415373 -0.0189871 0)
(0.418735 -0.0233244 0)
(0.422892 -0.0286735 0)
(0.42798 -0.0352797 0)
(0.434461 -0.0434164 0)
(0.442031 -0.0535469 0)
(0.453436 -0.0655984 0)
(0.400005 -3.05899e-05 0)
(0.400024 -9.45815e-05 0)
(0.400074 -0.000170378 0)
(0.400144 -0.000258282 0)
(0.4002 -0.000351061 0)
(0.400267 -0.0004498 0)
(0.400404 -0.000567453 0)
(0.400592 -0.000712301 0)
(0.400752 -0.000889315 0)
(0.400913 -0.00110919 0)
(0.401157 -0.00138336 0)
(0.401469 -0.00172352 0)
(0.401791 -0.00214412 0)
(0.402131 -0.00265896 0)
(0.402537 -0.00328058 0)
(0.403027 -0.00402795 0)
(0.403606 -0.00493207 0)
(0.404302 -0.0060341 0)
(0.405154 -0.00738335 0)
(0.406197 -0.00903872 0)
(0.407472 -0.0110717 0)
(0.40903 -0.0135704 0)
(0.41094 -0.0166448 0)
(0.413283 -0.0204314 0)
(0.416157 -0.0251008 0)
(0.419708 -0.0308642 0)
(0.424049 -0.0379904 0)
(0.429595 -0.0467991 0)
(0.436034 -0.0577525 0)
(0.445987 -0.0711281 0)
(0.400004 -3.59084e-05 0)
(0.400021 -0.000110382 0)
(0.400065 -0.000195449 0)
(0.400127 -0.00029126 0)
(0.400173 -0.000392414 0)
(0.400229 -0.000501416 0)
(0.400353 -0.000629939 0)
(0.400526 -0.000786354 0)
(0.40066 -0.000977526 0)
(0.400786 -0.0012142 0)
(0.400996 -0.00150688 0)
(0.401273 -0.00186626 0)
(0.401552 -0.00230621 0)
(0.401841 -0.00284217 0)
(0.402184 -0.00349108 0)
(0.402596 -0.00427628 0)
(0.403081 -0.00523082 0)
(0.403658 -0.00639693 0)
(0.404363 -0.00782557 0)
(0.405226 -0.00957848 0)
(0.406277 -0.0117312 0)
(0.40756 -0.0143772 0)
(0.40913 -0.0176326 0)
(0.411052 -0.0216422 0)
(0.413404 -0.0265875 0)
(0.416304 -0.0326949 0)
(0.419839 -0.0402534 0)
(0.424364 -0.049624 0)
(0.429569 -0.0612689 0)
(0.437853 -0.0757992 0)
(0.400004 -4.04148e-05 0)
(0.400018 -0.000123884 0)
(0.400057 -0.000217097 0)
(0.400111 -0.000320031 0)
(0.400147 -0.000428593 0)
(0.400193 -0.000545492 0)
(0.400299 -0.000682547 0)
(0.400448 -0.000849641 0)
(0.40056 -0.00105346 0)
(0.400662 -0.00130443 0)
(0.40084 -0.00161289 0)
(0.401076 -0.0019877 0)
(0.401307 -0.00244196 0)
(0.401539 -0.00299363 0)
(0.401815 -0.00366379 0)
(0.402146 -0.00447887 0)
(0.402529 -0.00547332 0)
(0.402981 -0.00669018 0)
(0.403532 -0.00818186 0)
(0.404204 -0.0100123 0)
(0.405021 -0.0122602 0)
(0.406015 -0.0150227 0)
(0.407227 -0.0184209 0)
(0.408706 -0.0226055 0)
(0.410509 -0.0277664 0)
(0.412722 -0.0341416 0)
(0.415403 -0.0420358 0)
(0.418835 -0.0518443 0)
(0.42272 -0.0640282 0)
(0.429135 -0.0795 0)
(0.400003 -4.42027e-05 0)
(0.400015 -0.000135267 0)
(0.400049 -0.000235435 0)
(0.400095 -0.000344422 0)
(0.400122 -0.000459374 0)
(0.400155 -0.000582882 0)
(0.400247 -0.000725982 0)
(0.400378 -0.000900979 0)
(0.400465 -0.00111587 0)
(0.400536 -0.00137938 0)
(0.400678 -0.00170007 0)
(0.400874 -0.00208587 0)
(0.401056 -0.0025502 0)
(0.40123 -0.00311285 0)
(0.401435 -0.00379773 0)
(0.40168 -0.00463378 0)
(0.401957 -0.0056568 0)
(0.402279 -0.00691055 0)
(0.402669 -0.00844835 0)
(0.403144 -0.0103356 0)
(0.403718 -0.0126529 0)
(0.404412 -0.0155001 0)
(0.405254 -0.0190011 0)
(0.406275 -0.0233107 0)
(0.407508 -0.0286237 0)
(0.409008 -0.0351858 0)
(0.410802 -0.0433121 0)
(0.413085 -0.0534226 0)
(0.415584 -0.0659738 0)
(0.419961 -0.0821315 0)
(0.400003 -4.7334e-05 0)
(0.400013 -0.000144704 0)
(0.400042 -0.000250612 0)
(0.40008 -0.000364506 0)
(0.400098 -0.00048438 0)
(0.400118 -0.000612945 0)
(0.400194 -0.000760816 0)
(0.400305 -0.000941702 0)
(0.400368 -0.00116457 0)
(0.400412 -0.00143731 0)
(0.400519 -0.00176728 0)
(0.400672 -0.0021609 0)
(0.400804 -0.00263094 0)
(0.400917 -0.00319866 0)
(0.401048 -0.00389087 0)
(0.401204 -0.00473876 0)
(0.401372 -0.005779 0)
(0.40156 -0.00705558 0)
(0.401785 -0.00862219 0)
(0.402057 -0.010545 0)
(0.402382 -0.0129054 0)
(0.402771 -0.0158045 0)
(0.403235 -0.0193675 0)
(0.403787 -0.0237504 0)
(0.40444 -0.0291503 0)
(0.405211 -0.0358154 0)
(0.406097 -0.0440649 0)
(0.407198 -0.0543324 0)
(0.408269 -0.0670638 0)
(0.410488 -0.0836155 0)
(0.400002 -4.98585e-05 0)
(0.40001 -0.000152298 0)
(0.400035 -0.000262713 0)
(0.400066 -0.000380364 0)
(0.400075 -0.000503788 0)
(0.400081 -0.000635718 0)
(0.400143 -0.000786569 0)
(0.400235 -0.000971352 0)
(0.400275 -0.00120013 0)
(0.40029 -0.00147956 0)
(0.400362 -0.00181503 0)
(0.400471 -0.00221178 0)
(0.400551 -0.00268245 0)
(0.400602 -0.00324955 0)
(0.400659 -0.00394196 0)
(0.400724 -0.00479254 0)
(0.40078 -0.00583848 0)
(0.400832 -0.00712365 0)
(0.40089 -0.00870161 0)
(0.400957 -0.0106384 0)
(0.401031 -0.0130155 0)
(0.40111 -0.0159334 0)
(0.401193 -0.019517 0)
(0.401274 -0.0239213 0)
(0.401342 -0.0293417 0)
(0.401381 -0.0360248 0)
(0.401354 -0.0442861 0)
(0.401264 -0.054561 0)
(0.400895 -0.0672759 0)
(0.400898 -0.0839037 0)
(0.400002 -5.18219e-05 0)
(0.400008 -0.000158146 0)
(0.400028 -0.000271798 0)
(0.400052 -0.000392025 0)
(0.400052 -0.000517699 0)
(0.400046 -0.000651399 0)
(0.400093 -0.000803766 0)
(0.400166 -0.000990692 0)
(0.400184 -0.00122264 0)
(0.400171 -0.00150529 0)
(0.400208 -0.00184242 0)
(0.400274 -0.0022382 0)
(0.400302 -0.00270489 0)
(0.40029 -0.00326559 0)
(0.400271 -0.00395069 0)
(0.400244 -0.00479444 0)
(0.400189 -0.00583436 0)
(0.400103 -0.00711386 0)
(0.399993 -0.00868576 0)
(0.399855 -0.0106152 0)
(0.399677 -0.0129824 0)
(0.399448 -0.0158864 0)
(0.399152 -0.0194495 0)
(0.398765 -0.0238236 0)
(0.398254 -0.029199 0)
(0.397568 -0.0358155 0)
(0.39664 -0.0439781 0)
(0.395375 -0.0541106 0)
(0.393586 -0.0666099 0)
(0.391385 -0.0829845 0)
(0.400001 -5.32698e-05 0)
(0.400006 -0.000162391 0)
(0.400022 -0.000278087 0)
(0.400039 -0.000399532 0)
(0.400029 -0.000526087 0)
(0.400012 -0.000660325 0)
(0.400045 -0.000812709 0)
(0.400101 -0.000999669 0)
(0.400097 -0.00123222 0)
(0.400057 -0.00151513 0)
(0.400059 -0.00185024 0)
(0.400083 -0.00224059 0)
(0.400058 -0.00269808 0)
(0.399984 -0.00324616 0)
(0.399889 -0.00391641 0)
(0.39977 -0.00474409 0)
(0.399602 -0.00576662 0)
(0.39938 -0.00702646 0)
(0.399104 -0.00857513 0)
(0.398763 -0.0104761 0)
(0.398337 -0.0128074 0)
(0.397804 -0.0156651 0)
(0.397136 -0.0191677 0)
(0.39629 -0.0234612 0)
(0.395213 -0.028728 0)
(0.393823 -0.0351963 0)
(0.39202 -0.0431534 0)
(0.389622 -0.0529988 0)
(0.386466 -0.0650898 0)
(0.38215 -0.0808877 0)
(0.400001 -5.42544e-05 0)
(0.400005 -0.000165181 0)
(0.400017 -0.000281768 0)
(0.400027 -0.000403011 0)
(0.400008 -0.000529005 0)
(0.39998 -0.000662753 0)
(0.4 -0.000814308 0)
(0.40004 -0.000999607 0)
(0.400014 -0.00122966 0)
(0.399948 -0.00150896 0)
(0.399916 -0.00183804 0)
(0.399897 -0.00221872 0)
(0.399823 -0.00266217 0)
(0.399687 -0.00319168 0)
(0.399518 -0.00383963 0)
(0.399308 -0.00464201 0)
(0.39903 -0.00563586 0)
(0.398673 -0.00686235 0)
(0.398233 -0.00837108 0)
(0.397694 -0.0102231 0)
(0.397026 -0.0124932 0)
(0.396197 -0.0152736 0)
(0.395167 -0.0186769 0)
(0.393878 -0.0228419 0)
(0.392256 -0.0279395 0)
(0.390191 -0.0341827 0)
(0.387557 -0.0418345 0)
(0.384092 -0.051259 0)
(0.379652 -0.0627637 0)
(0.373386 -0.0776865 0)
(0.400001 -5.48431e-05 0)
(0.400003 -0.000166681 0)
(0.400012 -0.000283018 0)
(0.400017 -0.000402745 0)
(0.39999 -0.000527151 0)
(0.399951 -0.000659018 0)
(0.399957 -0.000807509 0)
(0.399979 -0.000989623 0)
(0.399935 -0.00121593 0)
(0.399845 -0.00148852 0)
(0.399781 -0.00180699 0)
(0.399723 -0.00217363 0)
(0.3996 -0.00259838 0)
(0.399405 -0.00310315 0)
(0.399163 -0.00372098 0)
(0.398863 -0.00448882 0)
(0.398476 -0.00544313 0)
(0.397989 -0.00662316 0)
(0.39739 -0.00807593 0)
(0.396658 -0.00985927 0)
(0.395757 -0.0120442 0)
(0.394644 -0.0147174 0)
(0.393267 -0.0179851 0)
(0.391555 -0.0219763 0)
(0.389416 -0.0268488 0)
(0.386717 -0.0327962 0)
(0.383306 -0.040053 0)
(0.378861 -0.0489378 0)
(0.373251 -0.059702 0)
(0.365263 -0.0734939 0)
(0.400001 -5.51328e-05 0)
(0.400002 -0.00016715 0)
(0.400009 -0.000282068 0)
(0.400007 -0.000398827 0)
(0.399972 -0.000520389 0)
(0.399922 -0.000649928 0)
(0.399922 -0.000794593 0)
(0.399931 -0.000970413 0)
(0.399866 -0.0011895 0)
(0.39975 -0.00145353 0)
(0.399656 -0.00175903 0)
(0.399559 -0.00210734 0)
(0.399389 -0.00250778 0)
(0.399137 -0.00298128 0)
(0.398824 -0.00356144 0)
(0.398438 -0.00428595 0)
(0.397947 -0.00519033 0)
(0.397334 -0.00631141 0)
(0.396584 -0.00769302 0)
(0.395668 -0.00938912 0)
(0.394544 -0.011466 0)
(0.39316 -0.0140044 0)
(0.391456 -0.0171025 0)
(0.389347 -0.0208784 0)
(0.386725 -0.0254748 0)
(0.383439 -0.0310639 0)
(0.379317 -0.0378479 0)
(0.373996 -0.0460938 0)
(0.36735 -0.055993 0)
(0.357918 -0.0684562 0)
(0.4 -5.52633e-05 0)
(0.400002 -0.000166995 0)
(0.400007 -0.000279139 0)
(0.399999 -0.000391403 0)
(0.399961 -0.000509185 0)
(0.399902 -0.000635686 0)
(0.399887 -0.00077679 0)
(0.399882 -0.000945758 0)
(0.3998 -0.00115305 0)
(0.39966 -0.00140248 0)
(0.399539 -0.00169147 0)
(0.39941 -0.00201911 0)
(0.399199 -0.0023913 0)
(0.398892 -0.00282771 0)
(0.39851 -0.00336317 0)
(0.39804 -0.00403605 0)
(0.397449 -0.00488053 0)
(0.396716 -0.00593066 0)
(0.395822 -0.00722663 0)
(0.394733 -0.00881802 0)
(0.393399 -0.0107657 0)
(0.391763 -0.0131437 0)
(0.389753 -0.0160411 0)
(0.387275 -0.0195643 0)
(0.38421 -0.0238396 0)
(0.38039 -0.0290163 0)
(0.375631 -0.0352635 0)
(0.369547 -0.0427932 0)
(0.362014 -0.0517376 0)
(0.351445 -0.0627423 0)
(0.400001 -5.54295e-05 0)
(0.400002 -0.000166564 0)
(0.400007 -0.000274955 0)
(0.399996 -0.000381915 0)
(0.39995 -0.000493692 0)
(0.399873 -0.000614731 0)
(0.399863 -0.00074982 0)
(0.399844 -0.000910704 0)
(0.399747 -0.00110909 0)
(0.39959 -0.00134576 0)
(0.399439 -0.00161454 0)
(0.399273 -0.00191349 0)
(0.399019 -0.00224856 0)
(0.398662 -0.00264023 0)
(0.398217 -0.00312448 0)
(0.39767 -0.00373926 0)
(0.396986 -0.00451608 0)
(0.396142 -0.0054851 0)
(0.395113 -0.00668236 0)
(0.393862 -0.00815285 0)
(0.392334 -0.00995184 0)
(0.390464 -0.0121461 0)
(0.388174 -0.014815 0)
(0.38536 -0.0180523 0)
(0.381893 -0.0219676 0)
(0.377597 -0.0266873 0)
(0.372279 -0.0323474 0)
(0.365549 -0.0391062 0)
(0.357286 -0.0470421 0)
(0.345889 -0.0565307 0)
(0.400001 -5.597e-05 0)
(0.400003 -0.000166649 0)
(0.400009 -0.000269864 0)
(0.399997 -0.000369136 0)
(0.399954 -0.00047652 0)
(0.399881 -0.000596158 0)
(0.399836 -0.00072328 0)
(0.399797 -0.000866329 0)
(0.399685 -0.0010437 0)
(0.399512 -0.00126309 0)
(0.399343 -0.00151794 0)
(0.399154 -0.00179563 0)
(0.398865 -0.00209331 0)
(0.398459 -0.00243333 0)
(0.397953 -0.00285674 0)
(0.397333 -0.00340273 0)
(0.396563 -0.00410079 0)
(0.395616 -0.00497749 0)
(0.394464 -0.00606405 0)
(0.393065 -0.00739968 0)
(0.391359 -0.00903309 0)
(0.389277 -0.0110231 0)
(0.386733 -0.013439 0)
(0.383618 -0.0163619 0)
(0.379795 -0.0198847 0)
(0.375083 -0.0241114 0)
(0.369284 -0.029148 0)
(0.362022 -0.0351029 0)
(0.353181 -0.0420112 0)
(0.341244 -0.0499955 0)
(0.400001 -5.72698e-05 0)
(0.400006 -0.000167614 0)
(0.400014 -0.000265994 0)
(0.400005 -0.000357057 0)
(0.399947 -0.000449031 0)
(0.399845 -0.000556209 0)
(0.399819 -0.000685385 0)
(0.399771 -0.000835251 0)
(0.39965 -0.00100133 0)
(0.399466 -0.00118471 0)
(0.399268 -0.0013963 0)
(0.399038 -0.00163367 0)
(0.39871 -0.00188929 0)
(0.398266 -0.00218125 0)
(0.397714 -0.00254902 0)
(0.397034 -0.0030283 0)
(0.396188 -0.00364403 0)
(0.395147 -0.00441945 0)
(0.393882 -0.00538285 0)
(0.392349 -0.00656911 0)
(0.390484 -0.00802078 0)
(0.388212 -0.00978832 0)
(0.385444 -0.0119301 0)
(0.382064 -0.014514 0)
(0.377931 -0.0176174 0)
(0.372862 -0.0213236 0)
(0.366658 -0.0257119 0)
(0.358972 -0.0308489 0)
(0.34969 -0.03674 0)
(0.337463 -0.0432932 0)
(0.400003 -6.02838e-05 0)
(0.400012 -0.000170738 0)
(0.400024 -0.00026089 0)
(0.40002 -0.000345686 0)
(0.399979 -0.000434531 0)
(0.399901 -0.000528254 0)
(0.399819 -0.000622974 0)
(0.399731 -0.000749488 0)
(0.39958 -0.000925536 0)
(0.399368 -0.00112235 0)
(0.399153 -0.00132488 0)
(0.398912 -0.00152677 0)
(0.398569 -0.00172447 0)
(0.398097 -0.00194104 0)
(0.397502 -0.00222332 0)
(0.396769 -0.00261317 0)
(0.395858 -0.0031342 0)
(0.394737 -0.00380208 0)
(0.393375 -0.00463647 0)
(0.391722 -0.00566487 0)
(0.389716 -0.0069232 0)
(0.387279 -0.00845381 0)
(0.384317 -0.0103043 0)
(0.38071 -0.01253 0)
(0.376312 -0.0151932 0)
(0.370944 -0.0183584 0)
(0.364409 -0.0220835 0)
(0.35639 -0.0264022 0)
(0.346786 -0.0313086 0)
(0.334456 -0.03655 0)
(0.400005 -6.5951e-05 0)
(0.400023 -0.00017893 0)
(0.400041 -0.000259197 0)
(0.400045 -0.000326025 0)
(0.399998 -0.000401664 0)
(0.39987 -0.000492888 0)
(0.399741 -0.000598393 0)
(0.399622 -0.000701508 0)
(0.399483 -0.00079587 0)
(0.399324 -0.000911253 0)
(0.399131 -0.00108249 0)
(0.398852 -0.00127787 0)
(0.398443 -0.00146201 0)
(0.397914 -0.00164903 0)
(0.397281 -0.00188007 0)
(0.396516 -0.00219303 0)
(0.395565 -0.00261286 0)
(0.394383 -0.00315803 0)
(0.39294 -0.00384756 0)
(0.391187 -0.00470409 0)
(0.389061 -0.00575635 0)
(0.386484 -0.00703613 0)
(0.383359 -0.00857879 0)
(0.379562 -0.0104288 0)
(0.374947 -0.0126355 0)
(0.369336 -0.0152463 0)
(0.362538 -0.0183013 0)
(0.354267 -0.0218107 0)
(0.344436 -0.0257781 0)
(0.33212 -0.0298524 0)
(0.400009 -7.76918e-05 0)
(0.400042 -0.000186832 0)
(0.400073 -0.000264519 0)
(0.400077 -0.00034578 0)
(0.400036 -0.000372331 0)
(0.399905 -0.000384425 0)
(0.399746 -0.000439144 0)
(0.39958 -0.000643978 0)
(0.399367 -0.00090269 0)
(0.399112 -0.00106988 0)
(0.398831 -0.00114522 0)
(0.39853 -0.00119592 0)
(0.398168 -0.00125967 0)
(0.397703 -0.0013549 0)
(0.397111 -0.00150715 0)
(0.39635 -0.00173234 0)
(0.395365 -0.00204514 0)
(0.394124 -0.00246329 0)
(0.392601 -0.00300369 0)
(0.390757 -0.00368321 0)
(0.388529 -0.00452549 0)
(0.385839 -0.0055506 0)
(0.382585 -0.00677743 0)
(0.378641 -0.00823918 0)
(0.373859 -0.00997489 0)
(0.368067 -0.0120191 0)
(0.361079 -0.0144003 0)
(0.352633 -0.0171115 0)
(0.342659 -0.0201856 0)
(0.3304 -0.0232344 0)
(0.400017 -0.000101672 0)
(0.400072 -0.000199323 0)
(0.400128 -0.000236518 0)
(0.400135 -0.000293235 0)
(0.4001 -0.000346246 0)
(0.400031 -0.000364574 0)
(0.399848 -0.000385888 0)
(0.39943 -0.000412669 0)
(0.398792 -0.000452057 0)
(0.398294 -0.000538494 0)
(0.398198 -0.000719194 0)
(0.398214 -0.000917114 0)
(0.398176 -0.00104643 0)
(0.397877 -0.00110755 0)
(0.39727 -0.0011722 0)
(0.396397 -0.0012882 0)
(0.395288 -0.00147545 0)
(0.393945 -0.00175231 0)
(0.392346 -0.00213281 0)
(0.390439 -0.0026234 0)
(0.388153 -0.00324287 0)
(0.385403 -0.00400379 0)
(0.382083 -0.0049099 0)
(0.378058 -0.00598291 0)
(0.373178 -0.0072486 0)
(0.36727 -0.00872625 0)
(0.36016 -0.010434 0)
(0.351591 -0.0123561 0)
(0.341538 -0.0145561 0)
(0.32921 -0.0166319 0)
(0.400024 -0.000165235 0)
(0.400173 -0.000285046 0)
(0.400227 -0.000322835 0)
(0.40018 -0.00034218 0)
(0.400054 -0.000332678 0)
(0.399813 -0.000250978 0)
(0.399459 -0.000148865 0)
(0.399119 -0.000212803 0)
(0.399042 -0.000467392 0)
(0.399087 -0.00081261 0)
(0.399089 -0.00107821 0)
(0.398945 -0.00113743 0)
(0.398565 -0.00109535 0)
(0.397921 -0.000961474 0)
(0.397061 -0.000808745 0)
(0.396041 -0.000744248 0)
(0.394869 -0.000806874 0)
(0.393522 -0.000977204 0)
(0.391957 -0.00123336 0)
(0.390116 -0.00156422 0)
(0.387914 -0.00196724 0)
(0.3851 -0.00244653 0)
(0.381675 -0.00301102 0)
(0.37751 -0.00367462 0)
(0.372449 -0.00445155 0)
(0.366327 -0.00535307 0)
(0.358988 -0.00638623 0)
(0.350173 -0.00753647 0)
(0.339964 -0.00890266 0)
(0.326953 -0.00972679 0)
(0.399646 -0.000112568 0)
(0.399367 -0.0001819 0)
(0.39893 -0.000194084 0)
(0.398369 -0.000227699 0)
(0.39778 -0.000205685 0)
(0.397351 -4.28988e-05 0)
(0.397187 1.59463e-05 0)
(0.397057 -5.87152e-05 0)
(0.396522 -0.000394878 0)
(0.39537 -0.000651474 0)
(0.393749 -0.0007426 0)
(0.391948 -0.000712623 0)
(0.390236 -0.000508352 0)
(0.388813 -0.000262976 0)
(0.387731 -0.000144506 0)
(0.386854 -0.000119845 0)
(0.385979 -0.000150832 0)
(0.384924 -0.00022937 0)
(0.383552 -0.000348717 0)
(0.381755 -0.000498206 0)
(0.379447 -0.000664097 0)
(0.376556 -0.000841182 0)
(0.372983 -0.00103879 0)
(0.3686 -0.0012643 0)
(0.363271 -0.00152484 0)
(0.356845 -0.0018273 0)
(0.349154 -0.00217955 0)
(0.340029 -0.00254589 0)
(0.329328 -0.00313162 0)
(0.313774 -0.00271073 0)
(0.49023 -0.00803245 1.18374e-20)
(0.495918 -0.0125686 -6.63102e-18)
(0.501254 -0.0177601 6.64034e-18)
(0.505883 -0.0234368 3.32119e-18)
(0.510155 -0.0295099 2.49801e-18)
(0.514246 -0.035971 5.02591e-18)
(0.518191 -0.0428655 2.50302e-18)
(0.52202 -0.0502559 6.72666e-18)
(0.525779 -0.058194 3.3851e-18)
(0.529503 -0.0667187 1.68251e-18)
(0.533201 -0.0758663 -1.70122e-18)
(0.53687 -0.0856788 3.38023e-18)
(0.540506 -0.0962092 1.73091e-18)
(0.544108 -0.107524 1.71865e-18)
(0.547685 -0.119704 3.4374e-18)
(0.55125 -0.132853 1.74577e-18)
(0.55482 -0.147095 5.1584e-18)
(0.558417 -0.162581 0)
(0.562063 -0.179499 0)
(0.565787 -0.198081 1.66645e-18)
(0.569618 -0.218617 -3.73557e-20)
(0.573592 -0.241466 1.66942e-18)
(0.577743 -0.267081 0)
(0.582102 -0.296062 3.08323e-18)
(0.586789 -0.329038 1.46356e-18)
(0.591351 -0.367518 -1.48173e-18)
(0.598098 -0.41031 1.31403e-18)
(0.598053 -0.470346 1.24926e-18)
(0.619876 -0.507915 2.98232e-18)
(0.582427 -0.650922 -7.88977e-19)
(0.493375 -0.0176304 -3.35819e-18)
(0.497572 -0.0222278 3.78438e-18)
(0.501209 -0.0277054 -3.79948e-18)
(0.50446 -0.0336132 0)
(0.507628 -0.0398615 -3.42182e-18)
(0.510817 -0.0465009 -3.4172e-18)
(0.514011 -0.0536026 -8.57594e-19)
(0.517196 -0.0612115 -6.04625e-18)
(0.520367 -0.0693519 -3.45695e-18)
(0.52351 -0.0780475 -3.50217e-18)
(0.5266 -0.087334 1.74332e-18)
(0.529619 -0.0972599 -1.7645e-18)
(0.532555 -0.107885 -3.50695e-18)
(0.535408 -0.119283 -3.51767e-18)
(0.53818 -0.131539 -3.52683e-18)
(0.540876 -0.144756 -3.53376e-18)
(0.543496 -0.159061 -7.1375e-18)
(0.546043 -0.174604 1.77256e-18)
(0.548515 -0.191571 -1.79775e-18)
(0.550909 -0.210188 -5.3644e-18)
(0.553217 -0.230738 3.80205e-20)
(0.555428 -0.253565 -5.6726e-20)
(0.557508 -0.279104 -5.4032e-20)
(0.559431 -0.307908 -5.19636e-18)
(0.561133 -0.340606 -3.38359e-18)
(0.562318 -0.378455 -1.5291e-18)
(0.564152 -0.420946 1.3634e-19)
(0.560138 -0.477352 -1.32879e-19)
(0.573635 -0.518739 -3.61411e-18)
(0.530951 -0.649925 0)
(0.490989 -0.0268212 0)
(0.494149 -0.0313938 0)
(0.497002 -0.0368574 0)
(0.499822 -0.0427949 -4.33776e-19)
(0.50269 -0.0491084 3.92847e-18)
(0.505564 -0.0558261 -8.76888e-19)
(0.508391 -0.062988 8.86895e-19)
(0.511144 -0.0706192 3.54432e-18)
(0.513812 -0.0787462 -8.91594e-19)
(0.516382 -0.087408 4.48488e-18)
(0.518843 -0.0966547 1.80341e-18)
(0.52119 -0.106543 -1.82673e-18)
(0.52342 -0.117135 1.82346e-18)
(0.525528 -0.128502 -1.84827e-18)
(0.527507 -0.140729 -3.73096e-18)
(0.529346 -0.153918 3.7518e-18)
(0.531029 -0.168191 3.70376e-18)
(0.532537 -0.183699 0)
(0.533847 -0.20062 0)
(0.534925 -0.219174 3.71846e-18)
(0.535729 -0.239632 0)
(0.536201 -0.262321 5.6438e-18)
(0.536248 -0.287654 1.88149e-18)
(0.535782 -0.316136 3.60426e-18)
(0.534598 -0.348393 5.28893e-18)
(0.53245 -0.385443 1.81375e-18)
(0.52972 -0.42731 0)
(0.521836 -0.480461 6.29696e-18)
(0.526289 -0.524854 0)
(0.480439 -0.643565 2.48024e-18)
(0.488087 -0.0360603 0)
(0.490698 -0.0407712 0)
(0.493042 -0.0463113 0)
(0.495465 -0.0522991 -3.5805e-18)
(0.497915 -0.0586483 0)
(0.500282 -0.0653859 0)
(0.502534 -0.0725541 0)
(0.504678 -0.0801854 3.68602e-18)
(0.506717 -0.0883131 0)
(0.508643 -0.0969778 0)
(0.510444 -0.106226 0)
(0.512108 -0.116108 -3.8045e-18)
(0.51362 -0.126683 -3.83555e-18)
(0.514964 -0.13802 -1.91142e-18)
(0.516117 -0.150205 -4.7982e-20)
(0.517055 -0.163337 -3.84441e-18)
(0.517749 -0.177537 1.79737e-20)
(0.518162 -0.192948 5.97038e-18)
(0.518248 -0.209742 1.97181e-18)
(0.51795 -0.228129 -2.00552e-18)
(0.517189 -0.248361 -1.98343e-18)
(0.515868 -0.270743 -1.92593e-18)
(0.51384 -0.295657 -1.97729e-18)
(0.51096 -0.323556 6.08226e-18)
(0.506908 -0.355036 0)
(0.501483 -0.390896 -5.87862e-18)
(0.494405 -0.431513 -1.94091e-18)
(0.482755 -0.48136 3.04968e-19)
(0.478572 -0.526578 -5.20395e-18)
(0.43078 -0.632761 6.5251e-19)
(0.484225 -0.0449412 0)
(0.486285 -0.0497199 3.61715e-18)
(0.488059 -0.0552677 -4.53595e-19)
(0.489983 -0.0612537 7.79174e-18)
(0.491938 -0.0676099 0)
(0.493773 -0.0743604 0)
(0.495467 -0.0815397 3.77566e-18)
(0.497044 -0.089175 -3.77121e-18)
(0.498501 -0.0972953 0)
(0.49982 -0.105938 0)
(0.500978 -0.115147 0)
(0.501956 -0.124975 3.90486e-18)
(0.502733 -0.135481 3.94019e-18)
(0.503286 -0.146735 -1.99716e-18)
(0.503585 -0.158821 6.04101e-18)
(0.503595 -0.171833 0)
(0.503272 -0.185888 4.16658e-18)
(0.502566 -0.201119 -6.25585e-18)
(0.501408 -0.217689 -2.10903e-18)
(0.499715 -0.235792 0)
(0.49738 -0.255659 0)
(0.494268 -0.277568 0)
(0.490187 -0.301865 0)
(0.484943 -0.328949 -2.10507e-18)
(0.478123 -0.359365 -2.18915e-18)
(0.469554 -0.393731 2.08083e-18)
(0.458429 -0.432652 2.17088e-18)
(0.443217 -0.479037 -4.00619e-18)
(0.430994 -0.523754 3.86663e-18)
(0.382391 -0.617746 -3.3831e-18)
(0.479435 -0.0534549 -3.67831e-18)
(0.480972 -0.0583002 -3.4568e-18)
(0.482202 -0.0638716 -7.00215e-19)
(0.483641 -0.0698707 -2.81414e-18)
(0.485116 -0.0762354 -1.73447e-21)
(0.486436 -0.0829838 -1.44061e-18)
(0.487584 -0.0901453 4.45756e-20)
(0.488589 -0.0977464 -3.94226e-18)
(0.489447 -0.105817 -2.99622e-18)
(0.490133 -0.114397 4.03375e-18)
(0.490621 -0.12353 0)
(0.490888 -0.133267 5.15024e-18)
(0.490908 -0.143665 -5.21642e-18)
(0.490651 -0.154791 -4.22977e-18)
(0.490076 -0.166723 6.39902e-18)
(0.489139 -0.179551 -6.49095e-18)
(0.487782 -0.193381 -2.13649e-18)
(0.485937 -0.20834 -2.30699e-18)
(0.483519 -0.224575 -2.21893e-18)
(0.480422 -0.242262 6.83537e-18)
(0.476512 -0.26161 0)
(0.471624 -0.282867 2.29408e-18)
(0.465528 -0.306335 -4.66344e-18)
(0.457988 -0.332358 4.84552e-18)
(0.448523 -0.361417 2.39626e-18)
(0.436972 -0.393977 4.90198e-18)
(0.42212 -0.430756 0)
(0.403595 -0.473453 4.9384e-18)
(0.384115 -0.516482 0)
(0.335452 -0.59871 -4.73169e-18)
(0.473712 -0.0615051 3.75055e-18)
(0.474735 -0.0663997 1.91067e-18)
(0.475428 -0.0719733 -1.93328e-18)
(0.476374 -0.0779555 1.46916e-18)
(0.477357 -0.084292 1.47367e-21)
(0.478151 -0.0910004 1.43347e-21)
(0.47874 -0.0981088 -3.49499e-18)
(0.479162 -0.105644 9.81512e-19)
(0.479413 -0.113635 6.15051e-18)
(0.479461 -0.122119 -5.18505e-18)
(0.479274 -0.131138 1.05395e-18)
(0.478825 -0.140741 -5.31737e-18)
(0.478082 -0.15098 4.30156e-18)
(0.477006 -0.161918 4.35918e-18)
(0.47555 -0.173627 -2.16701e-18)
(0.473656 -0.186191 4.48091e-18)
(0.471257 -0.199707 0)
(0.468271 -0.214289 2.28518e-18)
(0.464596 -0.23007 2.37466e-18)
(0.460109 -0.247206 -4.74944e-18)
(0.454652 -0.26588 0)
(0.448036 -0.286304 -2.47479e-18)
(0.44 -0.308737 2.45559e-20)
(0.430274 -0.333465 -5.00753e-18)
(0.418332 -0.360896 5.21517e-18)
(0.404013 -0.391365 -7.84093e-18)
(0.385806 -0.425611 0)
(0.364289 -0.464415 -5.11818e-18)
(0.338429 -0.504821 1.32656e-19)
(0.290578 -0.575851 5.18652e-18)
(0.467056 -0.0689879 1.94489e-18)
(0.467575 -0.0739093 -1.70627e-18)
(0.46774 -0.0794601 1.72734e-18)
(0.468194 -0.0853986 -4.01892e-18)
(0.468682 -0.0916794 -2.04498e-18)
(0.468951 -0.098319 -5.14089e-19)
(0.468983 -0.105343 2.10031e-18)
(0.468824 -0.112777 4.7573e-18)
(0.468467 -0.120649 2.15844e-18)
(0.467875 -0.128993 -1.0854e-18)
(0.46701 -0.137849 1.1038e-18)