/*--------------------------------*- C++ -*----------------------------------*\
  =========                 |
  \\      /  F ield         | OpenFOAM: The Open Source CFD Toolbox
   \\    /   O peration     | Website:  https://openfoam.org
    \\  /    A nd           | Version:  11
     \\/     M anipulation  |
\*---------------------------------------------------------------------------*/
FoamFile
{
    format      ascii;
    class       volScalarField;
    location    "2.4";
    object      p;
}
// * * * * * * * * * * * * * * * * * * * * * * * * * * * * * * * * * * * * * //

dimensions      [0 2 -2 0 0 0 0];

internalField   nonuniform List<scalar> 
12600
(
0.288117
0.288015
0.287926
0.287845
0.287747
0.287624
0.287471
0.287288
0.287071
0.286817
0.286519
0.286172
0.285767
0.285297
0.284751
0.284117
0.28338
0.282525
0.281536
0.280389
0.279055
0.277504
0.275699
0.2736
0.271157
0.268316
0.265015
0.261184
0.256773
0.251629
0.288061
0.288008
0.287934
0.287853
0.287757
0.287637
0.287487
0.287306
0.287093
0.286842
0.286548
0.286205
0.285806
0.285342
0.284804
0.284179
0.283451
0.282607
0.281632
0.2805
0.279184
0.277652
0.275871
0.273797
0.271382
0.268571
0.2653
0.261497
0.257101
0.252012
0.288056
0.288026
0.287963
0.287882
0.287786
0.287668
0.287521
0.287345
0.287137
0.286892
0.286605
0.28627
0.285881
0.285428
0.284903
0.284293
0.283584
0.282763
0.281812
0.280708
0.279425
0.277933
0.276195
0.27417
0.271809
0.269055
0.265842
0.262099
0.257735
0.252688
0.288071
0.288048
0.287993
0.287917
0.287824
0.28771
0.287569
0.2874
0.287199
0.286963
0.286686
0.286364
0.285989
0.285553
0.285047
0.284461
0.28378
0.282992
0.282077
0.281016
0.279783
0.278347
0.276674
0.274721
0.272441
0.269775
0.266654
0.263003
0.258712
0.253724
0.288103
0.288084
0.288036
0.287966
0.287878
0.287769
0.287636
0.287475
0.287284
0.287059
0.286796
0.286489
0.286133
0.285719
0.285239
0.284682
0.284037
0.28329
0.282423
0.281417
0.280248
0.278887
0.2773
0.275445
0.273275
0.270728
0.267734
0.264212
0.260038
0.255155
0.288148
0.288132
0.28809
0.288026
0.287943
0.287841
0.287716
0.287565
0.287385
0.287174
0.286928
0.286641
0.286307
0.285919
0.285471
0.284951
0.284349
0.283652
0.282844
0.281907
0.280818
0.279549
0.278068
0.276336
0.274303
0.27191
0.269081
0.265734
0.261727
0.256998
0.288206
0.288192
0.288154
0.288096
0.28802
0.287926
0.28781
0.287671
0.287506
0.287311
0.287084
0.286819
0.286512
0.286156
0.285743
0.285267
0.284715
0.284077
0.283337
0.28248
0.281484
0.280325
0.278971
0.277384
0.275518
0.273313
0.270693
0.267569
0.263787
0.259277
0.288275
0.288262
0.288229
0.288177
0.288108
0.288023
0.287918
0.287792
0.287642
0.287465
0.28726
0.28702
0.286743
0.286422
0.286051
0.285623
0.285128
0.284556
0.283894
0.283128
0.282239
0.281204
0.279995
0.278578
0.276907
0.274927
0.272559
0.269714
0.266226
0.262015
0.288354
0.288342
0.288313
0.288267
0.288207
0.288131
0.288037
0.287925
0.287793
0.287637
0.287455
0.287243
0.286999
0.286717
0.286391
0.286016
0.285583
0.285084
0.284508
0.283842
0.283071
0.282175
0.28113
0.279904
0.278457
0.276736
0.274666
0.27216
0.269043
0.265228
0.28844
0.28843
0.288406
0.288366
0.288314
0.288248
0.288168
0.288071
0.287956
0.287822
0.287666
0.287485
0.287276
0.287035
0.286758
0.28644
0.286074
0.285654
0.28517
0.284613
0.28397
0.283225
0.282358
0.281343
0.280145
0.278717
0.276992
0.274885
0.272225
0.268918
0.288534
0.288526
0.288505
0.288472
0.288429
0.288374
0.288307
0.288226
0.288131
0.28802
0.287891
0.287742
0.28757
0.287374
0.287148
0.28689
0.286595
0.286258
0.285872
0.28543
0.284923
0.284338
0.283662
0.282874
0.281947
0.280843
0.279504
0.277857
0.275743
0.273064
0.288634
0.288628
0.288611
0.288585
0.28855
0.288506
0.288453
0.28839
0.288315
0.288228
0.288127
0.288011
0.287879
0.287728
0.287556
0.28736
0.287139
0.286888
0.286603
0.286281
0.285915
0.285498
0.285022
0.284473
0.283834
0.283078
0.282162
0.281028
0.279543
0.277615
0.288739
0.288734
0.288722
0.288702
0.288677
0.288645
0.288606
0.288559
0.288505
0.288443
0.288371
0.28829
0.288197
0.288093
0.287976
0.287845
0.287698
0.287535
0.287354
0.287153
0.286931
0.286686
0.286414
0.286112
0.285771
0.285379
0.284912
0.284332
0.283547
0.282479
0.288847
0.288844
0.288836
0.288823
0.288807
0.288786
0.288762
0.288733
0.288701
0.288663
0.288621
0.288574
0.288523
0.288466
0.288404
0.288337
0.288266
0.288191
0.288114
0.288035
0.287957
0.287883
0.287817
0.287762
0.287722
0.287699
0.287693
0.28769
0.287651
0.287522
0.288957
0.288956
0.288952
0.288946
0.288939
0.288931
0.288921
0.28891
0.288898
0.288886
0.288874
0.288862
0.28885
0.288841
0.288834
0.288832
0.288835
0.288848
0.288872
0.288913
0.288977
0.289071
0.289206
0.289392
0.289647
0.289988
0.290436
0.29101
0.291728
0.292572
0.289069
0.289069
0.289069
0.289071
0.289072
0.289075
0.28908
0.289087
0.289096
0.289109
0.289126
0.289148
0.289177
0.289214
0.289261
0.289322
0.289398
0.289496
0.28962
0.289777
0.289977
0.290232
0.290558
0.290974
0.291508
0.292193
0.293072
0.294194
0.295636
0.297425
0.28918
0.289182
0.289186
0.289194
0.289205
0.289219
0.289238
0.289262
0.289292
0.289329
0.289375
0.289431
0.289499
0.289581
0.289681
0.289802
0.289949
0.290128
0.290346
0.290614
0.290942
0.291348
0.291852
0.29248
0.293269
0.294266
0.295532
0.297145
0.299235
0.301873
0.28929
0.289293
0.289302
0.289316
0.289335
0.289361
0.289393
0.289434
0.289484
0.289545
0.289618
0.289707
0.289812
0.289938
0.290088
0.290267
0.290481
0.290737
0.291044
0.291414
0.291861
0.292404
0.293068
0.293886
0.294899
0.296164
0.29776
0.299783
0.3024
0.305727
0.289397
0.289402
0.289415
0.289435
0.289462
0.289498
0.289544
0.289601
0.28967
0.289753
0.289853
0.289972
0.290114
0.290281
0.290478
0.290712
0.290988
0.291316
0.291705
0.292168
0.292722
0.293388
0.294193
0.295172
0.296373
0.297857
0.299711
0.302043
0.30504
0.308844
0.289501
0.289508
0.289524
0.289549
0.289584
0.28963
0.289688
0.28976
0.289848
0.289953
0.290078
0.290226
0.290401
0.290606
0.290848
0.291132
0.291466
0.291859
0.292322
0.292869
0.293517
0.294289
0.295213
0.296325
0.297674
0.299322
0.301358
0.303892
0.307106
0.311154
0.289601
0.289608
0.289627
0.289658
0.2897
0.289755
0.289825
0.289911
0.290016
0.29014
0.290289
0.290464
0.29067
0.290912
0.291194
0.291525
0.291911
0.292362
0.292891
0.293511
0.294241
0.295102
0.296122
0.297337
0.298794
0.300553
0.302696
0.305324
0.308599
0.312667
0.289695
0.289703
0.289725
0.28976
0.289809
0.289872
0.289953
0.290052
0.290172
0.290315
0.290485
0.290685
0.290919
0.291193
0.291513
0.291885
0.292318
0.292821
0.293408
0.294091
0.294888
0.295822
0.296917
0.298208
0.299736
0.301555
0.303734
0.306362
0.309562
0.313461
0.289783
0.289792
0.289816
0.289855
0.289909
0.28998
0.29007
0.290181
0.290315
0.290475
0.290664
0.290886
0.291146
0.291449
0.291802
0.29221
0.292684
0.293233
0.293868
0.294604
0.295457
0.296447
0.297598
0.298939
0.300505
0.302341
0.304501
0.30705
0.310068
0.313629
0.289864
0.289874
0.289899
0.289941
0.289999
0.290077
0.290176
0.290297
0.290443
0.290618
0.290824
0.291067
0.291349
0.291678
0.292059
0.2925
0.293009
0.293596
0.294272
0.295051
0.295948
0.296981
0.29817
0.299539
0.301118
0.302937
0.305035
0.307453
0.310219
0.313392
0.289938
0.289948
0.289973
0.290017
0.290079
0.290162
0.290268
0.290398
0.290556
0.290743
0.290964
0.291224
0.291526
0.291876
0.292282
0.29275
0.293288
0.293907
0.294617
0.29543
0.296361
0.297424
0.298637
0.300019
0.301589
0.30337
0.30538
0.307638
0.310128
0.312874
0.290005
0.290014
0.290038
0.290082
0.290147
0.290236
0.290348
0.290485
0.290652
0.29085
0.291084
0.291358
0.291676
0.292045
0.29247
0.29296
0.293523
0.294168
0.294904
0.295744
0.296699
0.297783
0.299009
0.300391
0.301941
0.303671
0.305582
0.307673
0.309891
0.31223
0.290066
0.290073
0.290092
0.290134
0.290202
0.290294
0.290411
0.290555
0.290729
0.290936
0.29118
0.291465
0.291796
0.29218
0.292622
0.293129
0.293711
0.294375
0.295132
0.295991
0.296964
0.29806
0.299292
0.300666
0.30219
0.303865
0.305682
0.30762
0.309598
0.311584
0.290123
0.290122
0.290136
0.290177
0.290247
0.290342
0.290462
0.29061
0.290789
0.291003
0.291254
0.291548
0.291889
0.292283
0.292737
0.293258
0.293853
0.294532
0.295303
0.296175
0.297159
0.298263
0.299495
0.300859
0.302357
0.303983
0.305718
0.307532
0.309319
0.311032
0.29018
0.290155
0.290157
0.2902
0.290273
0.290371
0.290493
0.290644
0.290827
0.291046
0.291303
0.291602
0.29195
0.292352
0.292814
0.293343
0.293947
0.294635
0.295415
0.296295
0.297285
0.298392
0.299621
0.300974
0.302448
0.304033
0.305717
0.307455
0.309128
0.310662
0.290264
0.290188
0.290172
0.290214
0.290289
0.290388
0.290511
0.290664
0.290849
0.291069
0.291329
0.291631
0.291983
0.292388
0.292854
0.293387
0.293996
0.294688
0.295472
0.296356
0.297348
0.298455
0.29968
0.301026
0.302485
0.304047
0.305685
0.30736
0.308979
0.31044
0.247671
0.245926
0.244678
0.243685
0.242651
0.241535
0.240392
0.239249
0.238104
0.236947
0.235773
0.234575
0.233343
0.232064
0.23072
0.229288
0.227743
0.226051
0.224171
0.222049
0.219611
0.216761
0.213363
0.209235
0.204075
0.197575
0.188896
0.177203
0.163727
0.128921
0.248531
0.247209
0.246072
0.24507
0.244049
0.242991
0.241942
0.240919
0.239911
0.238902
0.237885
0.236852
0.235795
0.2347
0.233555
0.23234
0.231038
0.22962
0.228055
0.226299
0.224295
0.221965
0.2192
0.215859
0.211697
0.206484
0.199465
0.190456
0.178265
0.152374
0.248985
0.24797
0.247081
0.2462
0.245305
0.244414
0.243546
0.242697
0.241854
0.241009
0.240159
0.2393
0.238426
0.23753
0.2366
0.235625
0.23459
0.233477
0.23226
0.230909
0.229379
0.227615
0.225533
0.223029
0.219912
0.21602
0.210715
0.204077
0.193971
0.175743
0.25
0.24927
0.248633
0.247897
0.247123
0.246375
0.245657
0.244956
0.244264
0.243579
0.242902
0.24223
0.241558
0.24088
0.24019
0.239481
0.238743
0.237964
0.237129
0.236216
0.235199
0.234036
0.232673
0.231034
0.228979
0.2264
0.222765
0.218303
0.210574
0.198772
0.251448
0.250932
0.250495
0.249893
0.249247
0.248649
0.248097
0.247566
0.24705
0.246551
0.24607
0.245606
0.245157
0.24472
0.244294
0.243877
0.243464
0.24305
0.242628
0.242187
0.241714
0.241185
0.240566
0.23981
0.238821
0.237529
0.235506
0.233068
0.227775
0.221266
0.253334
0.253016
0.25278
0.252334
0.251836
0.251403
0.251026
0.250675
0.250344
0.25004
0.249768
0.249527
0.249319
0.249144
0.249005
0.248904
0.248841
0.248819
0.248837
0.248894
0.248988
0.249111
0.249247
0.249372
0.249424
0.249366
0.248864
0.24827
0.245293
0.243014
0.255693
0.255573
0.255538
0.255255
0.254912
0.254649
0.254455
0.254294
0.254162
0.25407
0.254023
0.254025
0.254079
0.254188
0.254358
0.254594
0.254904
0.255294
0.255771
0.256343
0.257016
0.257795
0.258679
0.259661
0.260708
0.261804
0.262698
0.263731
0.262841
0.263821
0.25857
0.258646
0.258815
0.258704
0.258526
0.258443
0.258443
0.258486
0.258567
0.2587
0.258894
0.259155
0.259485
0.259894
0.260388
0.260979
0.261676
0.26249
0.263436
0.264526
0.265775
0.267196
0.2688
0.270593
0.272561
0.274701
0.276829
0.279236
0.280136
0.283503
0.262002
0.262275
0.262647
0.262714
0.262712
0.262818
0.263022
0.263279
0.263584
0.263953
0.2644
0.26493
0.26555
0.266269
0.267098
0.268051
0.26914
0.270381
0.271791
0.273389
0.275194
0.277225
0.2795
0.282033
0.284821
0.287865
0.291034
0.294537
0.296899
0.301879
0.266014
0.266481
0.267053
0.267304
0.267486
0.267789
0.268204
0.268681
0.269218
0.269832
0.270538
0.271343
0.272257
0.273289
0.274453
0.275765
0.277239
0.278895
0.280751
0.282829
0.28515
0.287738
0.290613
0.293791
0.297274
0.301063
0.305053
0.309372
0.312849
0.318745
0.270607
0.271261
0.272022
0.272459
0.27283
0.273334
0.273962
0.274662
0.275432
0.276291
0.277256
0.278335
0.279537
0.280875
0.282364
0.28402
0.28586
0.287903
0.29017
0.292682
0.295464
0.298536
0.301919
0.305627
0.309662
0.314015
0.318598
0.323461
0.327716
0.333912
0.275738
0.276565
0.277499
0.27812
0.278683
0.279386
0.280222
0.28114
0.282137
0.283234
0.284448
0.285788
0.287265
0.28889
0.290681
0.292653
0.294824
0.297212
0.299839
0.302726
0.305892
0.30936
0.313144
0.317253
0.321685
0.326416
0.331365
0.336513
0.341199
0.347211
0.281314
0.282295
0.283376
0.284172
0.284922
0.285816
0.286848
0.287971
0.289181
0.2905
0.291943
0.293522
0.295246
0.297129
0.299186
0.301433
0.303887
0.306566
0.309489
0.312674
0.31614
0.319902
0.323971
0.328347
0.333019
0.337949
0.34305
0.348247
0.353036
0.35848
0.287178
0.288284
0.289483
0.290437
0.291363
0.292432
0.29364
0.294946
0.296345
0.297858
0.299502
0.301287
0.303222
0.305321
0.307599
0.310069
0.312748
0.315652
0.318797
0.322199
0.325872
0.329824
0.334061
0.338575
0.343343
0.348312
0.353388
0.358444
0.36307
0.367738
0.293108
0.294309
0.29559
0.296679
0.297761
0.298981
0.300337
0.301794
0.303351
0.305025
0.306831
0.308781
0.310883
0.313149
0.315592
0.318227
0.321067
0.324125
0.327416
0.330951
0.334738
0.338783
0.343081
0.347617
0.352358
0.35724
0.362157
0.366951
0.371283
0.375263
0.298832
0.300095
0.301423
0.302618
0.303829
0.30517
0.306639
0.308212
0.309887
0.31168
0.313606
0.315673
0.317891
0.32027
0.322823
0.325561
0.328496
0.331639
0.335
0.338588
0.342406
0.346454
0.350722
0.355186
0.359803
0.3645
0.369164
0.373615
0.377563
0.3808
0.304061
0.305354
0.306698
0.307965
0.309271
0.310697
0.312242
0.31389
0.315642
0.317511
0.319509
0.321645
0.323928
0.326367
0.328971
0.331753
0.33472
0.337882
0.341246
0.344816
0.348592
0.352569
0.356729
0.361044
0.365461
0.369898
0.374232
0.37826
0.3817
0.384127
0.308528
0.309826
0.311158
0.312464
0.313828
0.3153
0.316882
0.318565
0.320351
0.322251
0.324276
0.326433
0.32873
0.331176
0.33378
0.33655
0.339493
0.342616
0.345923
0.349415
0.353089
0.356932
0.360924
0.365027
0.369183
0.373299
0.377241
0.380796
0.383685
0.38544
0.312034
0.313314
0.314618
0.31593
0.317311
0.318792
0.320374
0.322052
0.323831
0.32572
0.327727
0.329861
0.332127
0.334534
0.337088
0.339797
0.342666
0.345699
0.348899
0.352263
0.355785
0.359449
0.363229
0.367081
0.37094
0.374704
0.37823
0.381287
0.383631
0.384638
0.314484
0.315729
0.316992
0.31828
0.319641
0.321095
0.322642
0.324281
0.326016
0.327856
0.329809
0.33188
0.334076
0.336403
0.338867
0.341475
0.344229
0.347134
0.350187
0.353385
0.356717
0.360164
0.363697
0.367266
0.370799
0.374185
0.377279
0.379801
0.381593
0.381493
0.315906
0.317104
0.318316
0.319555
0.320861
0.322256
0.323739
0.325308
0.326968
0.328726
0.33059
0.332564
0.334655
0.336867
0.339207
0.341678
0.344282
0.347022
0.349894
0.352892
0.356002
0.359202
0.362457
0.365712
0.368892
0.371871
0.374509
0.376473
0.377773
0.376496
0.316419
0.317556
0.31871
0.319877
0.321102
0.322411
0.323804
0.325277
0.326835
0.328483
0.330229
0.332078
0.334033
0.336101
0.338284
0.340586
0.343009
0.345551
0.348209
0.350974
0.353829
0.35675
0.359697
0.362612
0.365411
0.367959
0.370124
0.371491
0.3723
0.369864
0.316202
0.317266
0.318352
0.319431
0.320555
0.321757
0.32304
0.324398
0.325832
0.327348
0.328953
0.330652
0.332449
0.334346
0.336347
0.338454
0.340668
0.342986
0.345402
0.347905
0.350476
0.353087
0.355695
0.358233
0.360614
0.362684
0.364316
0.364981
0.365132
0.361286
0.315498
0.316471
0.317475
0.318452
0.319459
0.32054
0.321698
0.322923
0.324216
0.325582
0.327028
0.328558
0.330175
0.331882
0.33368
0.33557
0.337552
0.339622
0.34177
0.343984
0.346243
0.348511
0.350743
0.352863
0.354775
0.356299
0.357316
0.357156
0.356499
0.351001
0.31452
0.315388
0.316296
0.317162
0.318046
0.318997
0.32002
0.321102
0.322243
0.323448
0.324724
0.326072
0.327496
0.328996
0.330575
0.332231
0.333963
0.335763
0.337622
0.339522
0.341439
0.343333
0.34515
0.346806
0.348193
0.349102
0.349418
0.348319
0.346746
0.339308
0.313465
0.314213
0.315008
0.315756
0.316511
0.317325
0.318202
0.319131
0.320109
0.321142
0.322236
0.323393
0.324614
0.325899
0.327249
0.328661
0.33013
0.331648
0.333202
0.334771
0.336325
0.337819
0.339191
0.340342
0.341155
0.341382
0.340916
0.338756
0.336156
0.326384
0.312485
0.313099
0.31377
0.314404
0.315042
0.315727
0.316463
0.31724
0.318057
0.318919
0.319829
0.320789
0.321801
0.322864
0.323976
0.325135
0.326332
0.327557
0.328793
0.330015
0.331187
0.332258
0.333154
0.333762
0.33395
0.333427
0.332092
0.328729
0.324985
0.312398
0.311701
0.312132
0.31263
0.313133
0.31365
0.314192
0.314762
0.315363
0.316006
0.316694
0.317422
0.318189
0.318996
0.319843
0.320724
0.321636
0.322567
0.323505
0.324427
0.325306
0.326097
0.32674
0.327151
0.3272
0.326734
0.325414
0.323142
0.318448
0.313505
0.297557
0.311357
0.311584
0.31189
0.312302
0.312768
0.313237
0.313679
0.314104
0.314559
0.315058
0.315589
0.31615
0.31674
0.317359
0.318
0.318656
0.319314
0.319956
0.320556
0.32108
0.321476
0.321673
0.321573
0.321026
0.319858
0.317673
0.314376
0.308154
0.302081
0.282043
0.310945
0.310766
0.310829
0.311127
0.311445
0.311687
0.311905
0.312185
0.312524
0.312886
0.31326
0.31365
0.314058
0.31448
0.314911
0.31534
0.315753
0.316131
0.316445
0.316652
0.316695
0.31649
0.315925
0.314825
0.312992
0.309967
0.305693
0.297695
0.291119
0.265969
0.250138
0.233958
0.216846
0.199858
0.183774
0.168834
0.155534
0.144248
0.135816
0.130691
0.129473
0.13301
0.141601
0.155777
0.175796
0.199984
0.221886
0.235184
0.2384
0.235534
0.234692
0.235495
0.235763
0.234936
0.233833
0.233158
0.231407
0.224708
0.212406
0.198669
0.280932
0.267323
0.25238
0.237891
0.22393
0.210709
0.198677
0.188111
0.179358
0.172787
0.169084
0.169606
0.174318
0.182764
0.195643
0.212242
0.228475
0.23829
0.239593
0.235896
0.237458
0.23768
0.236445
0.23636
0.234641
0.23171
0.226256
0.216177
0.201451
0.186651
0.287444
0.27484
0.261347
0.247516
0.233787
0.220904
0.208923
0.198062
0.188632
0.181431
0.17727
0.176736
0.17997
0.186781
0.197337
0.210326
0.223221
0.230864
0.233126
0.233391
0.235978
0.237357
0.238742
0.237884
0.232266
0.224645
0.216574
0.208443
0.19935
0.188489
0.29811
0.287578
0.275349
0.262955
0.250837
0.238987
0.227287
0.21624
0.206496
0.198726
0.193541
0.191429
0.19264
0.197105
0.204533
0.21379
0.222785
0.228926
0.231835
0.232608
0.233622
0.234879
0.235756
0.234123
0.227656
0.217211
0.207082
0.204535
0.210006
0.213068
0.30347
0.29404
0.283176
0.272152
0.261112
0.249901
0.238699
0.228028
0.218461
0.210527
0.204762
0.201672
0.201577
0.204447
0.209868
0.216847
0.223685
0.22861
0.231257
0.232215
0.232507
0.232122
0.230713
0.227033
0.219789
0.210446
0.205152
0.213794
0.230323
0.247532
0.307574
0.299461
0.289853
0.279927
0.269777
0.259253
0.24856
0.238173
0.228616
0.220402
0.214065
0.210104
0.208847
0.210288
0.214028
0.219188
0.22443
0.228364
0.230581
0.231271
0.231208
0.230431
0.228093
0.223486
0.217866
0.213536
0.215623
0.229328
0.250003
0.269528
0.310241
0.303185
0.294686
0.285773
0.276531
0.266796
0.256721
0.246734
0.237334
0.229024
0.222318
0.217697
0.21549
0.215727
0.218057
0.221709
0.225576
0.228559
0.230161
0.230518
0.230089
0.228944
0.226884
0.223941
0.221406
0.221152
0.227437
0.241718
0.258276
0.271697
0.312025
0.305906
0.298401
0.290401
0.281968
0.272939
0.263433
0.253845
0.244648
0.236322
0.229355
0.224215
0.221235
0.220478
0.221649
0.224074
0.226808
0.228935
0.229987
0.230021
0.229312
0.227989
0.226167
0.22424
0.2234
0.225096
0.231519
0.242271
0.251758
0.256966
0.313162
0.307849
0.301218
0.294035
0.28634
0.277972
0.269025
0.25985
0.250888
0.242594
0.235439
0.229879
0.226252
0.224654
0.224841
0.22623
0.228004
0.229381
0.229929
0.229635
0.228695
0.227293
0.225671
0.22431
0.224142
0.226083
0.230707
0.236427
0.238908
0.236903
0.31385
0.309229
0.303364
0.296909
0.289886
0.282134
0.273721
0.26496
0.256255
0.248037
0.240758
0.234866
0.230703
0.22839
0.227736
0.228235
0.229178
0.229883
0.229949
0.229326
0.228165
0.226678
0.22515
0.224035
0.223943
0.225187
0.227306
0.228498
0.225599
0.218394
0.314221
0.310196
0.304997
0.299192
0.292778
0.285594
0.277685
0.269325
0.260887
0.252775
0.245423
0.239269
0.234657
0.231734
0.230354
0.230082
0.230297
0.230397
0.230011
0.229064
0.22768
0.226066
0.224492
0.223301
0.222784
0.222802
0.222405
0.220005
0.213387
0.202033
0.314372
0.31086
0.306243
0.301012
0.295151
0.288488
0.28105
0.273077
0.264908
0.256922
0.249535
0.243171
0.238181
0.234731
0.232717
0.231769
0.23134
0.230891
0.230078
0.228814
0.227193
0.225396
0.223641
0.222127
0.220876
0.21946
0.216845
0.211666
0.202421
0.188757
0.314373
0.311304
0.307192
0.302471
0.297108
0.290925
0.283925
0.276319
0.268417
0.260571
0.253175
0.246646
0.241334
0.237425
0.234856
0.233308
0.2323
0.231349
0.230132
0.228551
0.226672
0.224637
0.22259
0.220593
0.218473
0.215662
0.211182
0.203985
0.193124
0.178958
0.314273
0.311588
0.307916
0.303647
0.298734
0.292989
0.286396
0.279138
0.271495
0.263794
0.256412
0.24975
0.244164
0.239853
0.23679
0.234707
0.233176
0.231761
0.230159
0.22826
0.226102
0.22378
0.221361
0.218792
0.215778
0.211716
0.205767
0.197239
0.185653
0.171904
0.314108
0.311757
0.308471
0.304602
0.300093
0.294749
0.288532
0.2816
0.274208
0.266656
0.2593
0.252533
0.246709
0.242043
0.238539
0.235972
0.233964
0.232118
0.230147
0.227932
0.225478
0.222832
0.219991
0.216818
0.212955
0.207835
0.200813
0.191516
0.179846
0.166914
0.313904
0.311846
0.308897
0.305383
0.30124
0.296262
0.290392
0.283765
0.276611
0.269206
0.261887
0.255035
0.249003
0.24402
0.240118
0.237112
0.234666
0.232417
0.230092
0.22756
0.224798
0.221805
0.21852
0.21475
0.210127
0.204164
0.196427
0.186813
0.175533
0.16377
0.313681
0.311881
0.309227
0.306029
0.302216
0.297572
0.292022
0.28568
0.27875
0.271489
0.264212
0.25729
0.251074
0.245806
0.241543
0.238135
0.235284
0.232656
0.22999
0.227145
0.224068
0.220716
0.216986
0.212656
0.207384
0.200791
0.192647
0.183068
0.172503
0.16208
0.313453
0.311881
0.309486
0.30657
0.303057
0.298717
0.293462
0.287383
0.280665
0.273541
0.266309
0.259328
0.252947
0.24742
0.242826
0.239048
0.23582
0.232836
0.229842
0.226689
0.223294
0.219584
0.215423
0.210587
0.204785
0.197758
0.189464
0.180183
0.170531
0.161492
0.31323
0.311861
0.309695
0.307032
0.303789
0.299728
0.294744
0.28891
0.282389
0.275395
0.268208
0.261174
0.254643
0.248878
0.24398
0.239858
0.236279
0.232957
0.229649
0.226193
0.222486
0.218424
0.213859
0.208581
0.202366
0.195079
0.186838
0.178039
0.169406
0.161727
0.313017
0.311831
0.30987
0.307433
0.304435
0.300629
0.295895
0.290287
0.28395
0.277076
0.269931
0.26285
0.25618
0.250195
0.245013
0.240571
0.236663
0.233023
0.229412
0.225663
0.221651
0.217253
0.212317
0.206664
0.200148
0.192749
0.184724
0.17653
0.168965
0.162579
0.312817
0.311799
0.310022
0.307789
0.305015
0.301442
0.296938
0.29154
0.285372
0.27861
0.271502
0.264374
0.257573
0.251381
0.245934
0.241194
0.236976
0.233033
0.229133
0.225102
0.220795
0.216077
0.210808
0.204847
0.198128
0.190738
0.183044
0.175521
0.169024
0.163822
0.312629
0.311769
0.31016
0.308115
0.305544
0.302185
0.297892
0.292688
0.286676
0.280014
0.272938
0.265763
0.258836
0.252448
0.246753
0.241734
0.237225
0.232996
0.228821
0.224521
0.219935
0.21492
0.209357
0.203154
0.196322
0.189045
0.181774
0.174963
0.169518
0.165324
0.312451
0.31174
0.310292
0.30842
0.306036
0.302871
0.298774
0.293749
0.287881
0.281309
0.274256
0.267031
0.259978
0.253401
0.247469
0.242185
0.237402
0.2329
0.228462
0.223904
0.219051
0.213757
0.207935
0.201543
0.194669
0.187577
0.180774
0.174661
0.170217
0.166795
0.312288
0.311712
0.310419
0.308712
0.306499
0.303514
0.299598
0.294739
0.289
0.282507
0.275471
0.268193
0.26102
0.254266
0.248112
0.242579
0.237538
0.232784
0.228103
0.223308
0.218208
0.212663
0.206625
0.2001
0.193252
0.186422
0.180135
0.174717
0.171268
0.16819
0.312144
0.311692
0.310548
0.308996
0.306943
0.304123
0.300377
0.295672
0.29005
0.283621
0.276584
0.269234
0.261927
0.254993
0.248625
0.242859
0.237569
0.232565
0.227648
0.222623
0.21728
0.211494
0.205267
0.198649
0.191868
0.185327
0.179536
0.174764
0.171977
0.169289
0.312012
0.311684
0.310682
0.309277
0.307372
0.304703
0.301119
0.296561
0.291053
0.284693
0.27767
0.270262
0.262826
0.255719
0.249138
0.243149
0.23765
0.232426
0.2273
0.222075
0.21652
0.210529
0.20413
0.197457
0.1908
0.184614
0.179332
0.175183
0.17263
0.169749
0.311879
0.311684
0.310822
0.309562
0.307797
0.305263
0.301812
0.297377
0.291937
0.285584
0.278523
0.271037
0.263474
0.256175
0.249367
0.243154
0.237446
0.232011
0.22669
0.221278
0.215518
0.209345
0.202806
0.196107
0.189593
0.183776
0.179034
0.175499
0.173111
0.169318
0.311752
0.311675
0.310959
0.30986
0.308234
0.305869
0.302605
0.298328
0.292991
0.286678
0.279594
0.272041
0.26437
0.256908
0.249921
0.243523
0.237607
0.231949
0.226432
0.220836
0.214854
0.208457
0.20177
0.195053
0.188702
0.183279
0.179019
0.176019
0.172995
0.167274
0.31166
0.31165
0.311093
0.310078
0.308526
0.306277
0.303116
0.298884
0.293555
0.287202
0.280025
0.272335
0.264509
0.256889
0.249755
0.243224
0.237186
0.231369
0.225725
0.220039
0.213928
0.207402
0.20065
0.193979
0.187839
0.182827
0.179035
0.176422
0.172231
0.162133
0.311659
0.311651
0.311305
0.310547
0.309184
0.307125
0.304194
0.300202
0.295037
0.288743
0.281509
0.273662
0.265607
0.257712
0.250293
0.243483
0.237214
0.231166
0.225282
0.219297
0.212865
0.206053
0.199083
0.192364
0.186632
0.182192
0.179256
0.176427
0.169136
0.155992
0.0267927
0.0337538
0.0420917
0.0528751
0.0697672
0.0871519
0.103875
0.118531
0.131188
0.141787
0.150499
0.157593
0.163269
0.1677
0.17105
0.173467
0.17508
0.175999
0.176319
0.176125
0.175491
0.174486
0.17318
0.17162
0.170019
0.168224
0.166602
0.16488
0.163811
0.160626
0.0281744
0.0352737
0.0406933
0.0468234
0.0609922
0.0802065
0.0972882
0.112893
0.126788
0.138468
0.148118
0.156057
0.162493
0.167606
0.171575
0.174556
0.176685
0.178077
0.178827
0.179016
0.178719
0.177996
0.176915
0.17549
0.173807
0.17185
0.169769
0.167407
0.165281
0.162703
0.0290869
0.0359171
0.041412
0.041469
0.0501057
0.0690341
0.0879421
0.104774
0.120215
0.133341
0.144296
0.153406
0.160891
0.166945
0.171752
0.175478
0.178276
0.180271
0.181568
0.182249
0.182387
0.18204
0.181268
0.180108
0.1786
0.176767
0.174678
0.172305
0.169826
0.167225
0.0273355
0.0336504
0.0382395
0.0357878
0.0396819
0.0567256
0.0775932
0.0967659
0.114237
0.128919
0.141221
0.151518
0.16004
0.167012
0.172622
0.177035
0.180417
0.182916
0.184653
0.185723
0.186208
0.186173
0.185673
0.184759
0.183472
0.181844
0.179911
0.177692
0.175209
0.172588
0.0200267
0.0240868
0.0254947
0.0258861
0.028884
0.0424306
0.0639936
0.086704
0.106444
0.12354
0.137596
0.149279
0.158914
0.166867
0.173373
0.178584
0.182658
0.185754
0.188007
0.189532
0.190425
0.190761
0.1906
0.189992
0.188977
0.187589
0.185855
0.183808
0.181448
0.178956
0.00660779
0.00544463
0.00482918
0.0089216
0.0151285
0.0263556
0.0464417
0.0714731
0.0951662
0.115272
0.131788
0.145708
0.156909
0.166072
0.173628
0.179779
0.184708
0.188577
0.191514
0.193639
0.195065
0.195879
0.196153
0.195942
0.195289
0.19423
0.19279
0.191007
0.188875
0.186589
-0.0100645
-0.0163332
-0.0174856
-0.0127919
-0.00315426
0.00933297
0.0273279
0.0517749
0.078941
0.102573
0.122685
0.139851
0.153551
0.164513
0.173434
0.180667
0.186533
0.191259
0.19498
0.19782
0.199892
0.201291
0.202099
0.20238
0.202186
0.201558
0.200523
0.199116
0.197333
0.195358
-0.0236749
-0.0327498
-0.0355092
-0.0335707
-0.0236452
-0.00885428
0.00880017
0.0311022
0.0577536
0.0855323
0.110769
0.131474
0.148299
0.161767
0.172688
0.181352
0.188314
0.193936
0.198449
0.202024
0.204783
0.206827
0.208242
0.209097
0.209448
0.209343
0.208813
0.207894
0.206582
0.205053
-0.0281736
-0.0394359
-0.0452815
-0.0473605
-0.0404812
-0.0261093
-0.00848679
0.012353
0.0373734
0.0654039
0.0936496
0.119217
0.140083
0.157092
0.170764
0.181521
0.190048
0.196786
0.202183
0.206496
0.209904
0.212557
0.214559
0.215989
0.216909
0.21737
0.217407
0.217061
0.216324
0.215373
-0.0224564
-0.0368045
-0.0463208
-0.0523841
-0.0498262
-0.0389589
-0.0231025
-0.00377201
0.0192468
0.0458143
0.0744361
0.10244
0.127845
0.149505
0.166952
0.180732
0.191359
0.199727
0.206375
0.211568
0.21563
0.218817
0.221298
0.223189
0.224575
0.225519
0.226067
0.226266
0.22611
0.225764
-0.00737813
-0.0256837
-0.0394508
-0.0489722
-0.0511227
-0.0447866
-0.0326202
-0.0158469
0.0048307
0.0292088
0.0565745
0.0852123
0.113056
0.138273
0.159861
0.17756
0.191678
0.202671
0.211093
0.217527
0.222451
0.226227
0.22912
0.231325
0.232984
0.234201
0.235047
0.235586
0.235843
0.235947
0.0151772
-0.00610969
-0.0236094
-0.0373369
-0.0443097
-0.0434113
-0.0355801
-0.0223619
-0.00473278
0.0169296
0.0421344
0.0697305
0.0980565
0.125352
0.150162
0.171629
0.189466
0.203775
0.214935
0.223476
0.22992
0.234723
0.238269
0.240864
0.24274
0.244073
0.244986
0.245574
0.245909
0.246089
0.0432009
0.020313
-4.86334e-05
-0.017494
-0.0290887
-0.0335861
-0.0310856
-0.0225144
-0.00872567
0.00970218
0.0321645
0.0577201
0.0849557
0.112446
0.138748
0.162734
0.183692
0.201333
0.215717
0.227129
0.235957
0.242624
0.24754
0.251074
0.253548
0.25523
0.256324
0.256977
0.257287
0.257377
0.0727549
0.050514
0.0286257
0.00871788
-0.00660962
-0.015811
-0.0185186
-0.0150824
-0.00604854
0.00807025
0.0266953
0.0489989
0.0738199
0.099824
0.125684
0.15027
0.172779
0.192721
0.209845
0.224145
0.235787
0.245041
0.252201
0.257564
0.261477
0.264245
0.266147
0.267404
0.268156
0.268615
0.0993244
0.080246
0.059184
0.0380953
0.0203532
0.00748367
0.00022709
-0.00130813
0.00264693
0.0117224
0.0254062
0.0429905
0.0636022
0.0862041
0.109671
0.132957
0.155177
0.175669
0.194023
0.210046
0.223724
0.235189
0.244641
0.25194
0.258028
0.262719
0.266226
0.268778
0.270553
0.271773
0.120798
0.105425
0.0865398
0.0664688
0.0479404
0.0326021
0.0214358
0.0149936
0.0134198
0.0165796
0.0242389
0.0359021
0.0508166
0.0681522
0.0871231
0.106906
0.126783
0.146119
0.164421
0.181325
0.196588
0.21009
0.221818
0.23176
0.240025
0.24683
0.25238
0.256879
0.260453
0.262989
0.135141
0.123583
0.107898
0.0898508
0.0716117
0.0547583
0.0404299
0.0295289
0.0221991
0.0184721
0.0187441
0.0227113
0.0297465
0.0399669
0.0526988
0.0671099
0.0828216
0.0992476
0.115928
0.132444
0.148463
0.163695
0.177942
0.191083
0.202582
0.212678
0.221595
0.229343
0.235362
0.240127
0.1428
0.134925
0.122184
0.106157
0.0884124
0.0703543
0.0529461
0.0369879
0.0229068
0.0113299
0.00416395
0.00179974
0.00269214
0.00579935
0.0108827
0.0180668
0.0271031
0.0377584
0.0498974
0.0633826
0.0779873
0.093349
0.108384
0.1231
0.137842
0.152107
0.165815
0.178584
0.189382
0.1991
0.14677
0.14157
0.130979
0.116575
0.0992485
0.0802321
0.0604564
0.0408296
0.0221047
0.00505909
-0.00978905
-0.0221118
-0.0317344
-0.038624
-0.0425298
-0.0434858
-0.0416937
-0.0372173
-0.0301581
-0.0207194
-0.00905971
0.00450555
0.0203762
0.0380909
0.0569784
0.0763556