/*--------------------------------*- C++ -*----------------------------------*\
  =========                 |
  \\      /  F ield         | OpenFOAM: The Open Source CFD Toolbox
   \\    /   O peration     | Website:  https://openfoam.org
    \\  /    A nd           | Version:  11
     \\/     M anipulation  |
\*---------------------------------------------------------------------------*/
FoamFile
{
    format      ascii;
    class       surfaceScalarField;
    location    "2.9";
    object      phi;
}
// * * * * * * * * * * * * * * * * * * * * * * * * * * * * * * * * * * * * * //

dimensions      [0 3 -1 0 0 0 0];

internalField   nonuniform List<scalar> 
24840
(
1.53198e-05
1.34874e-08
1.53018e-05
1.80243e-08
1.52852e-05
1.66149e-08
1.52691e-05
1.61478e-08
1.52531e-05
1.5988e-08
1.52375e-05
1.55637e-08
1.52227e-05
1.48435e-08
1.52088e-05
1.38429e-08
1.51963e-05
1.25308e-08
1.51853e-05
1.0982e-08
1.51762e-05
9.08786e-09
1.51695e-05
6.67039e-09
1.51657e-05
3.80217e-09
1.51654e-05
3.53712e-10
1.51694e-05
-3.96093e-09
1.51786e-05
-9.27242e-09
1.51945e-05
-1.5873e-08
1.52185e-05
-2.39664e-08
1.52521e-05
-3.3683e-08
1.52984e-05
-4.62513e-08
1.53605e-05
-6.2109e-08
1.54405e-05
-7.99472e-08
1.55424e-05
-1.01948e-07
1.56732e-05
-1.3082e-07
1.58401e-05
-1.66892e-07
1.60514e-05
-2.11298e-07
1.63177e-05
-2.66289e-07
1.66475e-05
-3.29814e-07
1.7073e-05
-4.25513e-07
-4.48475e-07
1.75215e-05
1.53395e-05
7.34368e-09
1.53435e-05
1.39584e-08
1.53469e-05
1.32395e-08
1.53501e-05
1.29235e-08
1.53536e-05
1.25706e-08
1.53574e-05
1.17112e-08
1.53619e-05
1.03506e-08
1.53673e-05
8.46598e-09
1.53738e-05
5.99133e-09
1.53817e-05
3.0924e-09
1.53913e-05
-4.6276e-10
1.54029e-05
-4.95091e-09
1.5417e-05
-1.0268e-08
1.5434e-05
-1.67155e-08
1.54547e-05
-2.45936e-08
1.54796e-05
-3.42211e-08
1.55096e-05
-4.58577e-08
1.55455e-05
-5.98832e-08
1.55895e-05
-7.76332e-08
1.5642e-05
-9.87896e-08
1.57037e-05
-1.23804e-07
1.57815e-05
-1.57762e-07
1.58821e-05
-2.02507e-07
1.60083e-05
-2.57033e-07
1.61648e-05
-3.2339e-07
1.63585e-05
-4.0504e-07
1.65988e-05
-5.06594e-07
1.68974e-05
-6.28439e-07
1.72683e-05
-7.96413e-07
-9.07416e-07
1.77273e-05
1.53362e-05
4.49439e-09
1.53399e-05
1.02161e-08
1.53426e-05
1.05826e-08
1.53456e-05
9.90359e-09
1.53489e-05
9.29322e-09
1.53524e-05
8.1598e-09
1.53565e-05
6.28821e-09
1.53613e-05
3.63807e-09
1.53672e-05
7.42539e-11
1.53744e-05
-4.04809e-09
1.53832e-05
-9.26921e-09
1.53939e-05
-1.56659e-08
1.5407e-05
-2.33755e-08
1.5423e-05
-3.27155e-08
1.54425e-05
-4.40762e-08
1.54662e-05
-5.79362e-08
1.54952e-05
-7.48156e-08
1.55306e-05
-9.53591e-08
1.55739e-05
-1.20854e-07
1.56271e-05
-1.52072e-07
1.56934e-05
-1.90034e-07
1.57742e-05
-2.38609e-07
1.58726e-05
-3.00924e-07
1.59938e-05
-3.78163e-07
1.61437e-05
-4.73305e-07
1.63297e-05
-5.91103e-07
1.65616e-05
-7.38407e-07
1.68501e-05
-9.16991e-07
1.72109e-05
-1.15725e-06
-1.36391e-06
1.76674e-05
1.5335e-05
2.79394e-09
1.53382e-05
7.04653e-09
1.53408e-05
7.95085e-09
1.53435e-05
7.21523e-09
1.53466e-05
6.24306e-09
1.535e-05
4.72928e-09
1.5354e-05
2.32625e-09
1.53587e-05
-1.07464e-09
1.53643e-05
-5.56489e-09
1.53713e-05
-1.10158e-08
1.53798e-05
-1.77812e-08
1.53902e-05
-2.60436e-08
1.54028e-05
-3.6044e-08
1.54183e-05
-4.81576e-08
1.54371e-05
-6.28863e-08
1.546e-05
-8.08515e-08
1.5488e-05
-1.02778e-07
1.55222e-05
-1.2957e-07
1.55639e-05
-1.62605e-07
1.56151e-05
-2.03245e-07
1.56783e-05
-2.53202e-07
1.57557e-05
-3.16071e-07
1.58504e-05
-3.95581e-07
1.59668e-05
-4.94521e-07
1.61106e-05
-6.17151e-07
1.62891e-05
-7.69605e-07
1.65114e-05
-9.60729e-07
1.67893e-05
-1.19485e-06
1.71358e-05
-1.50378e-06
-1.80852e-06
1.75804e-05
1.53344e-05
1.69499e-09
1.53369e-05
4.61769e-09
1.53393e-05
5.47882e-09
1.53418e-05
4.74455e-09
1.53446e-05
3.42473e-09
1.53479e-05
1.45085e-09
1.53517e-05
-1.50224e-09
1.53563e-05
-5.62632e-09
1.53617e-05
-1.10288e-08
1.53684e-05
-1.77136e-08
1.53766e-05
-2.59431e-08
1.53866e-05
-3.599e-08
1.53987e-05
-4.81682e-08
1.54134e-05
-6.29237e-08
1.54314e-05
-8.08584e-08
1.54533e-05
-1.02724e-07
1.54799e-05
-1.29431e-07
1.55125e-05
-1.6211e-07
1.55522e-05
-2.02307e-07
1.56008e-05
-2.51836e-07
1.56605e-05
-3.12969e-07
1.57338e-05
-3.89308e-07
1.58233e-05
-4.85079e-07
1.59332e-05
-6.04448e-07
1.6069e-05
-7.52982e-07
1.62376e-05
-9.38171e-07
1.64475e-05
-1.17065e-06
1.67105e-05
-1.45781e-06
1.70383e-05
-1.83164e-06
-2.23196e-06
1.74618e-05
1.53341e-05
9.28333e-10
1.5336e-05
2.70354e-09
1.53383e-05
3.23214e-09
1.53406e-05
2.39864e-09
1.53433e-05
7.51769e-10
1.53464e-05
-1.66388e-09
1.535e-05
-5.15322e-09
1.53544e-05
-9.96082e-09
1.53596e-05
-1.62347e-08
1.53659e-05
-2.40634e-08
1.53737e-05
-3.36828e-08
1.53831e-05
-4.54103e-08
1.53946e-05
-5.96275e-08
1.54085e-05
-7.68549e-08
1.54254e-05
-9.77881e-08
1.5446e-05
-1.23302e-07
1.5471e-05
-1.5447e-07
1.55015e-05
-1.92624e-07
1.55387e-05
-2.39507e-07
1.55842e-05
-2.97273e-07
1.56398e-05
-3.68633e-07
1.57079e-05
-4.57404e-07
1.57912e-05
-5.68303e-07
1.58933e-05
-7.06594e-07
1.60194e-05
-8.79035e-07
1.61757e-05
-1.09446e-06
1.63702e-05
-1.36517e-06
1.66142e-05
-1.70183e-06
1.69187e-05
-2.13614e-06
-2.6282e-06
1.73149e-05
1.53339e-05
3.49463e-10
1.53355e-05
1.15872e-09
1.53375e-05
1.23295e-09
1.53396e-05
2.07451e-10
1.53421e-05
-1.73518e-09
1.5345e-05
-4.57708e-09
1.53485e-05
-8.59122e-09
1.53526e-05
-1.40504e-08
1.53575e-05
-2.11446e-08
1.53634e-05
-3.0023e-08
1.53707e-05
-4.09285e-08
1.53795e-05
-5.4209e-08
1.53902e-05
-7.03068e-08
1.54031e-05
-8.98126e-08
1.54188e-05
-1.13507e-07
1.54379e-05
-1.42376e-07
1.54611e-05
-1.77634e-07
1.54893e-05
-2.20792e-07
1.55235e-05
-2.7378e-07
1.55653e-05
-3.39027e-07
1.56163e-05
-4.19612e-07
1.56785e-05
-5.19636e-07
1.57545e-05
-6.44268e-07
1.58475e-05
-7.99647e-07
1.59621e-05
-9.93607e-07
1.61039e-05
-1.23626e-06
1.62802e-05
-1.54148e-06
1.65015e-05
-1.92313e-06
1.67779e-05
-2.41258e-06
-2.99106e-06
1.71408e-05
1.53338e-05
-1.12429e-10
1.53351e-05
-1.14547e-10
1.53368e-05
-5.30703e-10
1.53389e-05
-1.81748e-09
1.53412e-05
-4.05176e-09
1.53439e-05
-7.29532e-09
1.53471e-05
-1.1803e-08
1.53509e-05
-1.78647e-08
1.53555e-05
-2.57119e-08
1.5361e-05
-3.55422e-08
1.53677e-05
-4.76171e-08
1.53758e-05
-6.23088e-08
1.53856e-05
-8.01095e-08
1.53975e-05
-1.01673e-07
1.54118e-05
-1.27858e-07
1.54292e-05
-1.59747e-07
1.54502e-05
-1.98678e-07
1.54757e-05
-2.46311e-07
1.55067e-05
-3.04747e-07
1.55443e-05
-3.76642e-07
1.55901e-05
-4.65368e-07
1.56458e-05
-5.75314e-07
1.57135e-05
-7.12048e-07
1.57963e-05
-8.82417e-07
1.58979e-05
-1.09518e-06
1.60232e-05
-1.36159e-06
1.61787e-05
-1.69694e-06
1.63737e-05
-2.11814e-06
1.66173e-05
-2.65625e-06
-3.31394e-06
1.69402e-05
1.53337e-05
-4.97874e-10
1.53348e-05
-1.1865e-09
1.53363e-05
-2.08114e-09
1.53382e-05
-3.67271e-09
1.53403e-05
-6.1946e-09
1.53428e-05
-9.80269e-09
1.53458e-05
-1.47595e-08
1.53493e-05
-2.13696e-08
1.53535e-05
-2.98973e-08
1.53585e-05
-4.0577e-08
1.53646e-05
-5.36918e-08
1.53719e-05
-6.96356e-08
1.53808e-05
-8.89422e-08
1.53914e-05
-1.12322e-07
1.54043e-05
-1.40699e-07
1.54197e-05
-1.7524e-07
1.54385e-05
-2.17386e-07
1.54611e-05
-2.68919e-07
1.54884e-05
-3.32084e-07
1.55215e-05
-4.09717e-07
1.55615e-05
-5.05423e-07
1.561e-05
-6.23837e-07
1.56689e-05
-7.70865e-07
1.57403e-05
-9.539e-07
1.58276e-05
-1.18244e-06
1.59347e-05
-1.46871e-06
1.6067e-05
-1.8292e-06
1.62324e-05
-2.28359e-06
1.64388e-05
-2.86262e-06
-3.59005e-06
1.67149e-05
1.53337e-05
-8.25284e-10
1.53346e-05
-2.10368e-09
1.53359e-05
-3.44976e-09
1.53376e-05
-5.35476e-09
1.53396e-05
-8.15311e-09
1.53419e-05
-1.20897e-08
1.53446e-05
-1.74509e-08
1.53477e-05
-2.45512e-08
1.53515e-05
-3.36773e-08
1.5356e-05
-4.50931e-08
1.53615e-05
-5.91045e-08
1.53679e-05
-7.61266e-08
1.53757e-05
-9.67264e-08
1.53851e-05
-1.2166e-07
1.53963e-05
-1.51909e-07
1.54097e-05
-1.88706e-07
1.54259e-05
-2.33574e-07
1.54454e-05
-2.88392e-07
1.54688e-05
-3.55516e-07
1.5497e-05
-4.37918e-07
1.5531e-05
-5.39373e-07
1.55719e-05
-6.64707e-07
1.56211e-05
-8.20076e-07
1.56804e-05
-1.01326e-06
1.57523e-05
-1.2543e-06
1.58397e-05
-1.55615e-06
1.59468e-05
-1.93625e-06
1.60798e-05
-2.4166e-06
1.62447e-05
-3.02753e-06
-3.81266e-06
1.64673e-05
1.53336e-05
-1.10532e-09
1.53344e-05
-2.89567e-09
1.53356e-05
-4.65435e-09
1.53371e-05
-6.86588e-09
1.53389e-05
-9.92861e-09
1.5341e-05
-1.41592e-08
1.53434e-05
-1.98724e-08
1.53462e-05
-2.73929e-08
1.53496e-05
-3.70244e-08
1.53535e-05
-4.90552e-08
1.53582e-05
-6.38116e-08
1.53638e-05
-8.17268e-08
1.53705e-05
-1.03394e-07
1.53785e-05
-1.29605e-07
1.53879e-05
-1.61385e-07
1.53992e-05
-2.00019e-07
1.54128e-05
-2.47089e-07
1.54289e-05
-3.04546e-07
1.54482e-05
-3.74822e-07
1.54713e-05
-4.6098e-07
1.54988e-05
-5.66904e-07
1.55316e-05
-6.9754e-07
1.55708e-05
-8.59193e-07
1.56174e-05
-1.05987e-06
1.5673e-05
-1.30994e-06
1.57397e-05
-1.62281e-06
1.58199e-05
-2.0165e-06
1.59181e-05
-2.5148e-06
1.6038e-05
-3.14741e-06
-3.97555e-06
1.62009e-05
1.53336e-05
-1.34617e-09
1.53343e-05
-3.58265e-09
1.53353e-05
-5.71373e-09
1.53367e-05
-8.21536e-09
1.53383e-05
-1.1524e-08
1.53401e-05
-1.60094e-08
1.53423e-05
-2.20158e-08
1.53447e-05
-2.98798e-08
1.53476e-05
-3.99181e-08
1.5351e-05
-5.24369e-08
1.5355e-05
-6.77791e-08
1.53597e-05
-8.6393e-08
1.53652e-05
-1.0889e-07
1.53716e-05
-1.3609e-07
1.53793e-05
-1.69047e-07
1.53884e-05
-2.09082e-07
1.53991e-05
-2.57816e-07
1.54118e-05
-3.17243e-07
1.54268e-05
-3.89838e-07
1.54445e-05
-4.78711e-07
1.54654e-05
-5.87791e-07
1.54899e-05
-7.22067e-07
1.55186e-05
-8.87887e-07
1.55521e-05
-1.09332e-06
1.5591e-05
-1.34883e-06
1.56361e-05
-1.66796e-06
1.56885e-05
-2.06892e-06
1.57503e-05
-2.57654e-06
1.58224e-05
-3.21951e-06
-4.07343e-06
1.59203e-05
1.53335e-05
-1.55407e-09
1.53341e-05
-4.1812e-09
1.53351e-05
-6.64585e-09
1.53363e-05
-9.41273e-09
1.53377e-05
-1.29409e-08
1.53393e-05
-1.76384e-08
1.53412e-05
-2.38764e-08
1.53433e-05
-3.20028e-08
1.53457e-05
-4.23438e-08
1.53485e-05
-5.5218e-08
1.53517e-05
-7.09813e-08
1.53554e-05
-9.00925e-08
1.53597e-05
-1.13176e-07
1.53647e-05
-1.41065e-07
1.53705e-05
-1.74834e-07
1.53772e-05
-2.15822e-07
1.5385e-05
-2.6567e-07
1.53942e-05
-3.26387e-07
1.54048e-05
-4.00457e-07
1.54171e-05
-4.9099e-07
1.54312e-05
-6.01903e-07
1.54473e-05
-7.38145e-07
1.54654e-05
-9.05998e-07
1.54855e-05
-1.11343e-06
1.55074e-05
-1.37075e-06
1.55308e-05
-1.69132e-06
1.55549e-05
-2.09302e-06
1.55793e-05
-2.60096e-06
1.5602e-05
-3.24224e-06
-4.10259e-06
1.56312e-05
1.53335e-05
-1.73414e-09
1.5334e-05
-4.70407e-09
1.53349e-05
-7.46513e-09
1.53359e-05
-1.04681e-08
1.53372e-05
-1.41839e-08
1.53386e-05
-1.90478e-08
1.53401e-05
-2.54527e-08
1.53419e-05
-3.37566e-08
1.53438e-05
-4.4292e-08
1.5346e-05
-5.73854e-08
1.53484e-05
-7.34009e-08
1.53511e-05
-9.28035e-08
1.53542e-05
-1.16222e-07
1.53576e-05
-1.44498e-07
1.53615e-05
-1.78709e-07
1.53659e-05
-2.20199e-07
1.53708e-05
-2.70605e-07
1.53763e-05
-3.31926e-07
1.53825e-05
-4.06625e-07
1.53893e-05
-4.97769e-07
1.53966e-05
-6.09201e-07
1.54042e-05
-7.45757e-07
1.54117e-05
-9.13537e-07
1.54186e-05
-1.12025e-06
1.54236e-05
-1.37581e-06
1.54253e-05
-1.69305e-06
1.54214e-05
-2.08903e-06
1.54086e-05
-2.58817e-06
1.53817e-05
-3.21535e-06
-4.06135e-06
1.53404e-05
1.53335e-05
-1.89048e-09
1.53339e-05
-5.16214e-09
1.53347e-05
-8.1852e-09
1.53356e-05
-1.13928e-08
1.53367e-05
-1.52597e-08
1.53379e-05
-2.02408e-08
1.53392e-05
-2.67459e-08
1.53405e-05
-3.51404e-08
1.5342e-05
-4.57592e-08
1.53436e-05
-5.89328e-08
1.53452e-05
-7.50294e-08
1.53469e-05
-9.45153e-08
1.53487e-05
-1.18018e-07
1.53506e-05
-1.46374e-07
1.53525e-05
-1.80656e-07
1.53545e-05
-2.22195e-07
1.53565e-05
-2.72606e-07
1.53584e-05
-3.33855e-07
1.53602e-05
-4.08349e-07
1.53615e-05
-4.99071e-07
1.5362e-05
-6.09742e-07
1.53613e-05
-7.45004e-07
1.53584e-05
-9.10676e-07
1.53522e-05
-1.11405e-06
1.53408e-05
-1.36444e-06
1.53216e-05
-1.67379e-06
1.52904e-05
-2.05782e-06
1.52415e-05
-2.53935e-06
1.51664e-05
-3.1402e-06
-3.95065e-06
1.50557e-05
1.53335e-05
-2.02682e-09
1.53339e-05
-5.56593e-09
1.53345e-05
-8.81968e-09
1.53353e-05
-1.21988e-08
1.53362e-05
-1.61771e-08
1.53372e-05
-2.12236e-08
1.53382e-05
-2.77608e-08
1.53392e-05
-3.61572e-08
1.53402e-05
-4.6747e-08
1.53412e-05
-5.98608e-08
1.5342e-05
-7.58669e-08
1.53427e-05
-9.52279e-08
1.53433e-05
-1.18563e-07
1.53436e-05
-1.46696e-07
1.53436e-05
-1.80682e-07
1.53432e-05
-2.21822e-07
1.53423e-05
-2.71695e-07
1.53407e-05
-3.32207e-07
1.5338e-05
-4.05684e-07
1.53339e-05
-4.94989e-07
1.53278e-05
-6.03667e-07
1.5319e-05
-7.36105e-07
1.5306e-05
-8.97748e-07
1.52873e-05
-1.09534e-06
1.52602e-05
-1.33738e-06
1.52211e-05
-1.63462e-06
1.51642e-05
-2.00097e-06
1.50816e-05
-2.45671e-06
1.49612e-05
-3.01985e-06
-3.77436e-06
1.4785e-05
1.53335e-05
-2.14711e-09
1.53338e-05
-5.92654e-09
1.53344e-05
-9.38304e-09
1.53351e-05
-1.28995e-08
1.53358e-05
-1.69461e-08
1.53366e-05
-2.20043e-08
1.53374e-05
-2.85047e-08
1.5338e-05
-3.68141e-08
1.53385e-05
-4.72621e-08
1.53389e-05
-6.01766e-08
1.53389e-05
-7.5922e-08
1.53386e-05
-9.49524e-08
1.53379e-05
-1.17872e-07
1.53367e-05
-1.45484e-07
1.53349e-05
-1.78812e-07
1.53322e-05
-2.19118e-07
1.53284e-05
-2.67924e-07
1.53232e-05
-3.27057e-07
1.53163e-05
-3.98738e-07
1.5307e-05
-4.85676e-07
1.52945e-05
-5.91199e-07
1.52778e-05
-7.19385e-07
1.52553e-05
-8.75225e-07
1.52247e-05
-1.06481e-06
1.5183e-05
-1.29564e-06
1.51254e-05
-1.57705e-06
1.50452e-05
-1.92071e-06
1.4932e-05
-2.34354e-06
1.47712e-05
-2.85903e-06
-3.53942e-06
1.45362e-05
1.53334e-05
-2.25589e-09
1.53338e-05
-6.25664e-09
1.53343e-05
-9.89154e-09
1.53349e-05
-1.35098e-08
1.53355e-05
-1.75788e-08
1.53361e-05
-2.25935e-08
1.53366e-05
-2.89883e-08
1.53369e-05
-3.7122e-08
1.5337e-05
-4.73163e-08
1.53367e-05
-5.98938e-08
1.5336e-05
-7.52115e-08
1.53347e-05
-9.37101e-08
1.53328e-05
-1.15973e-07
1.53301e-05
-1.42772e-07
1.53264e-05
-1.75094e-07
1.53214e-05
-2.14145e-07
1.53149e-05
-2.61375e-07
1.53063e-05
-3.18519e-07
1.52953e-05
-3.87665e-07
1.52809e-05
-4.71344e-07
1.52624e-05
-5.72635e-07
1.52382e-05
-6.95261e-07
1.52067e-05
-8.43702e-07
1.51652e-05
-1.02331e-06
1.51101e-05
-1.24049e-06
1.50359e-05
-1.50293e-06
1.4935e-05
-1.81978e-06
1.47955e-05
-2.20399e-06
1.46004e-05
-2.66398e-06
-3.25565e-06
1.43167e-05
1.53334e-05
-2.35878e-09
1.53338e-05
-6.57169e-09
1.53342e-05
-1.03642e-08
1.53348e-05
-1.40459e-08
1.53353e-05
-1.80883e-08
1.53357e-05
-2.30039e-08
1.53359e-05
-2.92252e-08
1.53359e-05
-3.70956e-08
1.53355e-05
-4.69262e-08
1.53346e-05
-5.90326e-08
1.53332e-05
-7.37605e-08
1.5331e-05
-9.15325e-08
1.53279e-05
-1.12905e-07
1.53238e-05
-1.38612e-07
1.53183e-05
-1.69592e-07
1.53111e-05
-2.06987e-07
1.53019e-05
-2.52161e-07
1.52901e-05
-3.06738e-07
1.52751e-05
-3.72658e-07
1.5256e-05
-4.52256e-07
1.52317e-05
-5.48333e-07
1.52007e-05
-6.64227e-07
1.51609e-05
-8.03874e-07
1.51094e-05
-9.71838e-07
1.50423e-05
-1.17335e-06
1.49537e-05
-1.41438e-06
1.48353e-05
-1.70139e-06
1.46743e-05
-2.04294e-06
1.44524e-05
-2.44217e-06
-2.93529e-06
1.41321e-05
1.53334e-05
-2.46315e-09
1.53338e-05
-6.89156e-09
1.53342e-05
-1.08237e-08
1.53347e-05
-1.45257e-08
1.53351e-05
-1.84888e-08
1.53353e-05
-2.32503e-08
1.53353e-05
-2.92315e-08
1.5335e-05
-3.67525e-08
1.53342e-05
-4.61128e-08
1.53328e-05
-5.76185e-08
1.53306e-05
-7.16014e-08
1.53275e-05
-8.84608e-08
1.53234e-05
-1.0872e-07
1.53178e-05
-1.3307e-07
1.53106e-05
-1.62392e-07
1.53014e-05
-1.97752e-07
1.52896e-05
-2.40418e-07
1.52748e-05
-2.91891e-07
1.52561e-05
-3.53951e-07
1.52325e-05
-4.28717e-07
1.52029e-05
-5.187e-07
1.51655e-05
-6.26839e-07
1.51182e-05
-7.56507e-07
1.50578e-05
-9.11471e-07
1.49802e-05
-1.09579e-06
1.48795e-05
-1.31369e-06
1.47471e-05
-1.56895e-06
1.45698e-05
-1.86566e-06
1.43294e-05
-2.20179e-06
-2.59219e-06
1.39863e-05
1.53334e-05
-2.57924e-09
1.53338e-05
-7.2429e-09
1.53343e-05
-1.12973e-08
1.53347e-05
-1.49676e-08
1.5335e-05
-1.87955e-08
1.53351e-05
-2.33504e-08
1.53349e-05
-2.90257e-08
1.53343e-05
-3.61124e-08
1.53331e-05
-4.48996e-08
1.53311e-05
-5.56826e-08
1.53283e-05
-6.87744e-08
1.53244e-05
-8.45459e-08
1.53191e-05
-1.03482e-07
1.53123e-05
-1.26225e-07
1.53035e-05
-1.53592e-07
1.52923e-05
-1.86566e-07
1.52782e-05
-2.26307e-07
1.52605e-05
-2.74183e-07
1.52384e-05
-3.31805e-07
1.52107e-05
-4.01068e-07
1.51762e-05
-4.84184e-07
1.5133e-05
-5.83694e-07
1.50789e-05
-7.02414e-07
1.50108e-05
-8.43338e-07
1.49244e-05
-1.0094e-06
1.48139e-05
-1.20317e-06
1.46709e-05
-1.42594e-06
1.44828e-05
-1.67754e-06
1.42322e-05
-1.95124e-06
-2.24077e-06
1.38808e-05
1.53335e-05
-2.72207e-09
1.53339e-05
-7.663e-09
1.53344e-05
-1.18174e-08
1.53348e-05
-1.53901e-08
1.53351e-05
-1.90249e-08
1.5335e-05
-2.33193e-08
1.53346e-05
-2.86269e-08
1.53337e-05
-3.52029e-08
1.53321e-05
-4.33201e-08
1.53297e-05
-5.32648e-08
1.53263e-05
-6.53266e-08
1.53216e-05
-7.98445e-08
1.53154e-05
-9.72609e-08
1.53073e-05
-1.18166e-07
1.5297e-05
-1.43307e-07
1.5284e-05
-1.73571e-07
1.52677e-05
-2.10006e-07
1.52474e-05
-2.53841e-07
1.52221e-05
-3.06508e-07
1.51907e-05
-3.69676e-07
1.51518e-05
-4.45263e-07
1.51035e-05
-5.35415e-07
1.50435e-05
-6.42426e-07
1.49687e-05
-7.68569e-07
1.48751e-05
-9.15762e-07
1.4757e-05
-1.0851e-06
1.46068e-05
-1.2757e-06
1.44129e-05
-1.48367e-06
1.41602e-05
-1.69851e-06
-1.89487e-06
1.38143e-05
1.53335e-05
-2.91495e-09
1.53341e-05
-8.20544e-09
1.53347e-05
-1.24217e-08
1.53351e-05
-1.5809e-08
1.53353e-05
-1.91928e-08
1.53351e-05
-2.31859e-08
1.53346e-05
-2.80624e-08
1.53334e-05
-3.40451e-08
1.53315e-05
-4.14028e-08
1.53286e-05
-5.04031e-08
1.53246e-05
-6.13087e-08
1.53192e-05
-7.44238e-08
1.53121e-05
-9.01425e-08
1.53029e-05
-1.08999e-07
1.52913e-05
-1.31664e-07
1.52766e-05
-1.58927e-07
1.52583e-05
-1.91715e-07
1.52356e-05
-2.31111e-07
1.52075e-05
-2.78369e-07
1.51727e-05
-3.34931e-07
1.51299e-05
-4.02427e-07
1.50771e-05
-4.82636e-07
1.5012e-05
-5.77367e-07
1.49317e-05
-6.88257e-07
1.48323e-05
-8.1636e-07
1.47088e-05
-9.61547e-07
1.45543e-05
-1.12123e-06
1.43592e-05
-1.28858e-06
1.41113e-05
-1.45057e-06
-1.56659e-06
1.3783e-05
1.53336e-05
-3.19697e-09
1.53344e-05
-8.94704e-09
1.53351e-05
-1.31478e-08
1.53355e-05
-1.62398e-08
1.53356e-05
-1.93232e-08
1.53354e-05
-2.29695e-08
1.53347e-05
-2.73502e-08
1.53333e-05
-3.2666e-08
1.53311e-05
-3.91821e-08
1.53279e-05
-4.7141e-08
1.53233e-05
-5.67761e-08
1.53173e-05
-6.83539e-08
1.53093e-05
-8.22134e-08
1.52992e-05
-9.88336e-08
1.52863e-05
-1.18804e-07
1.52702e-05
-1.42807e-07
1.52501e-05
-1.71646e-07
1.52253e-05
-2.06257e-07
1.51946e-05
-2.47713e-07
1.51569e-05
-2.97234e-07
1.51107e-05
-3.56179e-07
1.5054e-05
-4.25984e-07
1.49847e-05
-5.08034e-07
1.48998e-05
-6.03431e-07
1.4796e-05
-7.12545e-07
1.46688e-05
-8.34325e-07
1.45126e-05
-9.65034e-07
1.43199e-05
-1.09588e-06
1.40822e-05
-1.21282e-06
-1.26522e-06
1.37808e-05
1.53338e-05
-3.64111e-09
1.53348e-05
-9.99721e-09
1.53357e-05
-1.40169e-08
1.53362e-05
-1.66935e-08
1.53363e-05
-1.94497e-08
1.5336e-05
-2.27023e-08
1.53352e-05
-2.6518e-08
1.53336e-05
-3.10989e-08
1.53311e-05
-3.67007e-08
1.53275e-05
-4.35301e-08
1.53225e-05
-5.17937e-08
1.53159e-05
-6.17174e-08
1.53073e-05
-7.35741e-08
1.52962e-05
-8.7792e-08
1.52823e-05
-1.04876e-07
1.52649e-05
-1.25394e-07
1.52433e-05
-1.50024e-07
1.52165e-05
-1.79551e-07
1.51837e-05
-2.14872e-07
1.51435e-05
-2.56992e-07
1.50943e-05
-3.07012e-07
1.50344e-05
-3.66064e-07
1.49615e-05
-4.35171e-07
1.48731e-05
-5.1501e-07
1.4766e-05
-6.05472e-07
1.46366e-05
-7.04891e-07
1.44805e-05
-8.0899e-07
1.42927e-05
-9.08038e-07
1.40686e-05
-9.88736e-07
-9.96648e-07
1.38e-05
1.53341e-05
-4.39145e-09
1.53356e-05
-1.1521e-08
1.53366e-05
-1.50115e-08
1.53371e-05
-1.71668e-08
1.53372e-05
-1.95898e-08
1.53369e-05
-2.23924e-08
1.5336e-05
-2.55785e-08
1.53342e-05
-2.93705e-08
1.53315e-05
-3.39979e-08
1.53276e-05
-3.96213e-08
1.53223e-05
-4.64265e-08
1.53151e-05
-5.45951e-08
1.53059e-05
-6.43258e-08
1.52941e-05
-7.60085e-08
1.52793e-05
-9.00442e-08
1.52608e-05
-1.06886e-07
1.52378e-05
-1.27088e-07
1.52096e-05
-1.51286e-07
1.51749e-05
-1.80198e-07
1.51325e-05
-2.14626e-07
1.50809e-05
-2.55435e-07
1.50184e-05
-3.03482e-07
1.49427e-05
-3.595e-07
1.48515e-05
-4.2386e-07
1.47422e-05
-4.96177e-07
1.46118e-05
-5.74463e-07
1.44573e-05
-6.54499e-07
1.42759e-05
-7.26564e-07
1.40676e-05
-7.80447e-07
-7.6287e-07
1.38338e-05
1.53347e-05
-5.70923e-09
1.53369e-05
-1.3737e-08
1.5338e-05
-1.61325e-08
1.53386e-05
-1.77371e-08
1.53388e-05
-1.97897e-08
1.53384e-05
-2.20485e-08
1.53374e-05
-2.45479e-08
1.53355e-05
-2.75124e-08
1.53326e-05
-3.11144e-08
1.53285e-05
-3.54681e-08
1.53228e-05
-4.07595e-08
1.53153e-05
-4.70903e-08
1.53056e-05
-5.45724e-08
1.52932e-05
-6.36175e-08
1.52776e-05
-7.44802e-08
1.52582e-05
-8.7503e-08
1.52342e-05
-1.03111e-07
1.52048e-05
-1.21791e-07
1.51686e-05
-1.44092e-07
1.51246e-05
-1.70623e-07
1.50712e-05
-2.02031e-07
1.50067e-05
-2.38943e-07
1.49291e-05
-2.81864e-07
1.48362e-05
-3.30993e-07
1.47259e-05
-3.85887e-07
1.4596e-05
-4.44572e-07
1.4445e-05
-5.03435e-07
1.42716e-05
-5.53218e-07
1.40813e-05
-5.9017e-07
-5.62335e-07
1.38808e-05
1.53357e-05
-8.11399e-09
1.53385e-05
-1.65287e-08
1.53397e-05
-1.72792e-08
1.53405e-05
-1.85327e-08
1.53408e-05
-2.00909e-08
1.53404e-05
-2.16991e-08
1.53393e-05
-2.34716e-08
1.53374e-05
-2.55751e-08
1.53344e-05
-2.8105e-08
1.533e-05
-3.11077e-08
1.53241e-05
-3.48388e-08
1.53163e-05
-3.9311e-08
1.53062e-05
-4.44466e-08
1.52934e-05
-5.0773e-08
1.52772e-05
-5.8354e-08
1.52572e-05
-6.74447e-08
1.52324e-05
-7.83413e-08
1.5202e-05
-9.13791e-08
1.51649e-05
-1.06947e-07
1.51197e-05
-1.25478e-07
1.50651e-05
-1.47431e-07
1.49994e-05
-1.73254e-07
1.49209e-05
-2.0331e-07
1.48276e-05
-2.37755e-07
1.4718e-05
-2.76266e-07
1.45908e-05
-3.17355e-07
1.44458e-05
-3.58418e-07
1.42831e-05
-3.90576e-07
1.41096e-05
-4.16669e-07
-3.81993e-07
1.39293e-05
1.53393e-05
-1.4082e-08
1.53422e-05
-1.94393e-08
1.53434e-05
-1.84954e-08
1.53439e-05
-1.89746e-08
1.53437e-05
-1.98771e-08
1.53427e-05
-2.07257e-08
1.53408e-05
-2.16308e-08
1.5338e-05
-2.27199e-08
1.53339e-05
-2.40417e-08
1.53284e-05
-2.56048e-08
1.53212e-05
-2.75947e-08
1.53118e-05
-2.99798e-08
1.53001e-05
-3.26565e-08
1.52853e-05
-3.6047e-08
1.52671e-05
-4.01217e-08
1.52447e-05
-4.50326e-08
1.52173e-05
-5.09562e-08
1.5184e-05
-5.8091e-08
1.51437e-05
-6.66709e-08
1.50952e-05
-7.69596e-08
1.5037e-05
-8.9239e-08
1.49676e-05
-1.03789e-07
1.48851e-05
-1.20842e-07
1.47878e-05
-1.40499e-07
1.46741e-05
-1.62581e-07
1.4543e-05
-1.86213e-07
1.43945e-05
-2.09926e-07
1.42313e-05
-2.27399e-07
1.4053e-05
-2.38288e-07
-1.65889e-07
1.38369e-05
1.53193e-05
1.52998e-05
1.52813e-05
1.52623e-05
1.52425e-05
1.52217e-05
1.52001e-05
1.51774e-05
1.51533e-05
1.51277e-05
1.51001e-05
1.50702e-05
1.50375e-05
1.50015e-05
1.49613e-05
1.49163e-05
1.48654e-05
1.48073e-05
1.47406e-05
1.46636e-05
1.45744e-05
1.44706e-05
1.43498e-05
1.42093e-05
1.40467e-05
1.38605e-05
1.36505e-05
1.34231e-05
1.31849e-05
1.3019e-05
1.72727e-05
-8.03649e-06
8.28532e-06
1.70323e-05
-8.17529e-06
8.41569e-06
1.67596e-05
-8.31064e-06
8.58329e-06
1.64536e-05
-8.43691e-06
8.74289e-06
1.6121e-05
-8.56275e-06
8.89543e-06
1.57677e-05
-8.69262e-06
9.04591e-06
1.53974e-05
-8.828e-06
9.19826e-06
1.50124e-05
-8.96975e-06
9.35478e-06
1.46137e-05
-9.11857e-06
9.51724e-06
1.42015e-05
-9.27484e-06
9.687e-06
1.37753e-05
-9.43868e-06
9.86493e-06
1.3334e-05
-9.61021e-06
1.00515e-05
1.28765e-05
-9.78978e-06
1.02473e-05
1.24018e-05
-9.97807e-06
1.04527e-05
1.19089e-05
-1.01761e-05
1.06689e-05
1.13967e-05
-1.03851e-05
1.08972e-05
1.0864e-05
-1.06067e-05
1.11394e-05
1.03091e-05
-1.08429e-05
1.13978e-05
9.73021e-06
-1.10961e-05
1.16751e-05
9.12472e-06
-1.13694e-05
1.19749e-05
8.48955e-06
-1.16665e-05
1.23017e-05
7.82064e-06
-1.19923e-05
1.26612e-05
7.11266e-06
-1.23531e-05
1.3061e-05
6.35863e-06
-1.27568e-05
1.35108e-05
5.5486e-06
-1.32134e-05
1.40235e-05
4.66948e-06
-1.37375e-05
1.46167e-05
3.7121e-06
-1.43418e-05
1.52991e-05
2.59375e-06
-1.50824e-05
1.62008e-05
1.45827e-06
-1.58048e-05
1.69403e-05
-1.72106e-05
1.86689e-05
1.74506e-05
-7.75984e-06
1.71383e-05
-7.86294e-06
1.68e-05
-7.97232e-06
1.6446e-05
-8.08296e-06
1.60809e-05
-8.19766e-06
1.57066e-05
-8.31832e-06
1.53236e-05
-8.44498e-06
1.49313e-05
-8.57739e-06
1.45283e-05
-8.71561e-06
1.41132e-05
-8.85976e-06
1.36846e-05
-9.01003e-06
1.32412e-05
-9.1668e-06
1.2782e-05
-9.33065e-06
1.23063e-05
-9.50237e-06
1.18132e-05
-9.68293e-06
1.13016e-05
-9.87343e-06
1.07701e-05
-1.00752e-05
1.02172e-05
-1.029e-05
9.64073e-06
-1.05197e-05
9.03823e-06
-1.07669e-05
8.40648e-06
-1.10347e-05
7.74135e-06
-1.13272e-05
7.03751e-06
-1.16492e-05
6.28794e-06
-1.20072e-05
5.48329e-06
-1.24088e-05
4.61126e-06
-1.28655e-05
3.65549e-06
-1.3386e-05
2.57898e-06
-1.40059e-05
1.41832e-06
-1.46441e-05
-1.57923e-05
1.73477e-05
-7.4401e-06
1.7014e-05
-7.52924e-06
1.66682e-05
-7.62648e-06
1.63146e-05
-7.7294e-06
1.59539e-05
-7.837e-06
1.55847e-05
-7.94912e-06
1.52055e-05
-8.06575e-06
1.4815e-05
-8.18692e-06
1.44123e-05
-8.31288e-06
1.39965e-05
-8.44395e-06
1.3567e-05
-8.58051e-06
1.31232e-05
-8.72303e-06
1.26646e-05
-8.87203e-06
1.21904e-05
-9.02815e-06
1.16996e-05
-9.19212e-06
1.11909e-05
-9.36483e-06
1.06631e-05
-9.54739e-06
1.01143e-05
-9.74114e-06
9.54233e-06
-9.94774e-06
8.94466e-06
-1.01692e-05
8.31798e-06
-1.04081e-05
7.65811e-06
-1.06673e-05
6.95969e-06
-1.09508e-05
6.21575e-06
-1.12633e-05
5.41721e-06
-1.16102e-05
4.5519e-06
-1.20002e-05
3.60398e-06
-1.24381e-05
2.54777e-06
-1.29497e-05
1.38238e-06
-1.34787e-05
-1.44099e-05
1.72512e-05
-7.11093e-06
1.69135e-05
-7.19146e-06
1.65661e-05
-7.27909e-06
1.62101e-05
-7.37343e-06
1.58454e-05
-7.4723e-06
1.54709e-05
-7.57466e-06
1.50859e-05
-7.68073e-06
1.46899e-05
-7.79091e-06
1.42825e-05
-7.9055e-06
1.38633e-05
-8.02473e-06
1.34317e-05
-8.14888e-06
1.29869e-05
-8.27827e-06
1.25282e-05
-8.41332e-06
1.20546e-05
-8.55451e-06
1.15649e-05
-8.70245e-06
1.1058e-05
-8.85788e-06
1.05322e-05
-9.02167e-06
9.98601e-06
-9.1949e-06
9.41712e-06
-9.37884e-06
8.82291e-06
-9.57501e-06
8.2001e-06
-9.78525e-06
7.54454e-06
-1.00118e-05
6.85098e-06
-1.02572e-05
6.11266e-06
-1.0525e-05
5.32094e-06
-1.08185e-05
4.46434e-06
-1.11436e-05
3.52824e-06
-1.1502e-05
2.49183e-06
-1.19133e-05
1.34028e-06
-1.23271e-05
-1.30696e-05
1.71249e-05
-6.77404e-06
1.67804e-05
-6.84696e-06
1.64272e-05
-6.92592e-06
1.60657e-05
-7.01194e-06
1.56958e-05
-7.1024e-06
1.5317e-05
-7.19578e-06
1.49285e-05
-7.29227e-06
1.453e-05
-7.39241e-06
1.41209e-05
-7.49642e-06
1.37006e-05
-7.60443e-06
1.32684e-05
-7.71664e-06
1.28234e-05
-7.83331e-06
1.23649e-05
-7.95481e-06
1.18919e-05
-8.08153e-06
1.14034e-05
-8.21394e-06
1.08981e-05
-8.3526e-06
1.03746e-05
-8.49816e-06
9.83108e-06
-8.65136e-06
9.26536e-06
-8.81312e-06
8.67481e-06
-8.98446e-06
8.05619e-06
-9.16662e-06
7.40543e-06
-9.36102e-06
6.71748e-06
-9.56929e-06
5.98592e-06
-9.79339e-06
5.20259e-06
-1.00352e-05
4.35691e-06
-1.02979e-05
3.43566e-06
-1.05807e-05
2.42036e-06
-1.0898e-05
1.293e-06
-1.11998e-05
-1.17766e-05
1.69718e-05
-6.43094e-06
1.66218e-05
-6.49695e-06
1.6264e-05
-6.5681e-06
1.58984e-05
-6.64631e-06
1.55247e-05
-6.72875e-06
1.51425e-05
-6.81355e-06
1.47511e-05
-6.90089e-06
1.435e-05
-6.99135e-06
1.39388e-05
-7.08515e-06
1.35167e-05
-7.18235e-06
1.30832e-05
-7.28309e-06
1.26374e-05
-7.3876e-06
1.21787e-05
-7.49612e-06
1.17062e-05
-7.60894e-06
1.12186e-05
-7.72638e-06
1.07148e-05
-7.8488e-06
1.01932e-05
-7.97661e-06
9.65218e-06
-8.1103e-06
9.08947e-06
-8.2504e-06
8.50251e-06
-8.39751e-06
7.88816e-06
-8.55227e-06
7.24253e-06
-8.71539e-06
6.56082e-06
-8.88758e-06
5.83701e-06
-9.06958e-06
5.06361e-06
-9.2618e-06
4.23097e-06
-9.46528e-06
3.3273e-06
-9.67703e-06
2.33616e-06
-9.90689e-06
1.23997e-06
-1.01036e-05
-1.05367e-05
1.67921e-05
-6.08226e-06
1.64371e-05
-6.14189e-06
1.60748e-05
-6.20582e-06
1.57051e-05
-6.27661e-06
1.53277e-05
-6.35133e-06
1.4942e-05
-6.42792e-06
1.45477e-05
-6.50654e-06
1.41442e-05
-6.58781e-06
1.37309e-05
-6.67191e-06
1.33074e-05
-6.75883e-06
1.28729e-05
-6.84864e-06
1.24268e-05
-6.94149e-06
1.19682e-05
-7.03753e-06
1.14962e-05
-7.13694e-06
1.10097e-05
-7.23988e-06
1.05075e-05
-7.34655e-06
9.98801e-06
-7.45714e-06
9.44958e-06
-7.57187e-06
8.8901e-06
-7.69093e-06
8.3071e-06
-7.8145e-06
7.69754e-06
-7.94272e-06
7.05779e-06
-8.07563e-06
6.38334e-06
-8.21313e-06
5.66867e-06
-8.35491e-06
4.907e-06
-8.50012e-06
4.08968e-06
-8.64796e-06
3.20637e-06
-8.79373e-06
2.24267e-06
-8.94319e-06
1.1833e-06
-9.04423e-06
-9.35337e-06
1.65865e-05
-5.72855e-06
1.62269e-05
-5.78227e-06
1.58606e-05
-5.8395e-06
1.54872e-05
-5.90326e-06
1.51065e-05
-5.97059e-06
1.47179e-05
-6.03936e-06
1.43211e-05
-6.1097e-06
1.39155e-05
-6.18221e-06
1.35006e-05
-6.25704e-06
1.30759e-05
-6.33412e-06
1.26407e-05
-6.41345e-06
1.21943e-05
-6.49509e-06
1.17359e-05
-6.57913e-06
1.12646e-05
-6.66561e-06
1.07793e-05
-6.75456e-06
1.02787e-05
-6.84601e-06
9.76154e-06
-6.93995e-06
9.22601e-06
-7.03634e-06
8.67016e-06
-7.13508e-06
8.09161e-06
-7.23595e-06
7.48754e-06
-7.33865e-06
6.85455e-06
-7.44264e-06
6.18853e-06
-7.54711e-06
5.48448e-06
-7.65087e-06
4.73635e-06
-7.75199e-06
3.93656e-06
-7.84818e-06
3.07625e-06
-7.93341e-06
2.143e-06
-8.00994e-06
1.12473e-06
-8.02596e-06
-8.22864e-06
1.63567e-05
-5.37031e-06
1.5993e-05
-5.41857e-06
1.56231e-05
-5.46958e-06
1.52465e-05
-5.52666e-06
1.48628e-05
-5.58693e-06
1.44717e-05
-5.64826e-06
1.40727e-05
-5.71071e-06
1.36654e-05
-5.77487e-06
1.32492e-05
-5.84085e-06
1.28236e-05
-5.90852e-06
1.23879e-05
-5.9778e-06
1.19415e-05
-6.04871e-06
1.14836e-05
-6.12121e-06
1.10133e-05
-6.19526e-06
1.05295e-05
-6.27075e-06
1.0031e-05
-6.34755e-06
9.51651e-06
-6.42546e-06
8.98439e-06
-6.50422e-06
8.43275e-06
-6.58344e-06
7.85938e-06
-6.66259e-06
7.26167e-06
-6.74094e-06
6.63652e-06
-6.81748e-06
5.98022e-06
-6.89081e-06
5.28834e-06
-6.95898e-06
4.55558e-06
-7.01924e-06
3.77543e-06
-7.06802e-06
2.94045e-06
-7.09844e-06
2.04017e-06
-7.10965e-06
1.06583e-06
-7.05162e-06
-7.16281e-06
1.61051e-05
-5.00809e-06
1.57378e-05
-5.05128e-06
1.53648e-05
-5.09655e-06
1.49854e-05
-5.14729e-06
1.45993e-05
-5.20083e-06
1.42061e-05
-5.25506e-06
1.38054e-05
-5.31002e-06
1.33968e-05
-5.36622e-06
1.29797e-05
-5.42375e-06
1.25536e-05
-5.48243e-06
1.21179e-05
-5.54211e-06
1.16719e-05
-5.60273e-06
1.12149e-05
-5.66419e-06
1.07459e-05
-5.72631e-06
1.02641e-05
-5.78889e-06
9.76819e-06
-5.85165e-06
9.25695e-06
-5.91421e-06
8.72885e-06
-5.97612e-06
8.18214e-06
-6.03673e-06
7.6148e-06
-6.09525e-06