/*--------------------------------*- C++ -*----------------------------------*\
  =========                 |
  \\      /  F ield         | OpenFOAM: The Open Source CFD Toolbox
   \\    /   O peration     | Website:  https://openfoam.org
    \\  /    A nd           | Version:  11
     \\/     M anipulation  |
\*---------------------------------------------------------------------------*/
FoamFile
{
    format      ascii;
    class       volScalarField;
    location    "7.9";
    object      p;
}
// * * * * * * * * * * * * * * * * * * * * * * * * * * * * * * * * * * * * * //

dimensions      [0 2 -2 0 0 0 0];

internalField   nonuniform List<scalar> 
12600
(
0.932716
0.932581
0.932512
0.932483
0.932452
0.932409
0.932358
0.932299
0.93223
0.93215
0.932054
0.931938
0.931799
0.931632
0.931429
0.931183
0.930882
0.930514
0.930064
0.929505
0.928816
0.927976
0.926937
0.925642
0.924024
0.921996
0.919441
0.916201
0.912109
0.906841
0.932644
0.932573
0.932515
0.932484
0.932452
0.93241
0.93236
0.932301
0.932233
0.932154
0.932059
0.931945
0.931808
0.931643
0.931442
0.9312
0.930904
0.930541
0.9301
0.929547
0.928865
0.928036
0.927013
0.925736
0.92414
0.922138
0.919611
0.916411
0.912332
0.907125
0.932612
0.932576
0.932526
0.932488
0.932455
0.932415
0.932367
0.932309
0.932243
0.932164
0.932071
0.931959
0.931825
0.931663
0.931467
0.93123
0.93094
0.930586
0.930152
0.929614
0.928953
0.928145
0.927146
0.925899
0.924341
0.922384
0.919912
0.916783
0.912753
0.907661
0.932591
0.932568
0.932527
0.932489
0.932456
0.932418
0.932371
0.932317
0.932252
0.932176
0.932085
0.931977
0.931847
0.931691
0.931501
0.931272
0.930992
0.93065
0.930231
0.929715
0.92908
0.9283
0.927336
0.926135
0.924632
0.922745
0.920356
0.917329
0.913406
0.908459
0.932577
0.932562
0.93253
0.932496
0.932463
0.932426
0.932381
0.932329
0.932267
0.932193
0.932106
0.932003
0.931878
0.931728
0.931547
0.931328
0.931061
0.930735
0.930336
0.929845
0.929242
0.928499
0.927582
0.92644
0.92501
0.923214
0.920935
0.918044
0.914274
0.909524
0.932569
0.932558
0.932532
0.932501
0.932469
0.932434
0.932392
0.932341
0.932282
0.932213
0.93213
0.932032
0.931914
0.931773
0.931602
0.931395
0.931144
0.930837
0.930462
0.930002
0.929436
0.92874
0.92788
0.92681
0.92547
0.923784
0.921643
0.918922
0.91535
0.910847
0.932566
0.932557
0.932536
0.932508
0.932478
0.932444
0.932405
0.932357
0.932302
0.932237
0.93216
0.932068
0.931958
0.931826
0.931667
0.931474
0.931241
0.930957
0.93061
0.930185
0.929663
0.929021
0.928227
0.927241
0.926005
0.924451
0.922472
0.919953
0.916624
0.912419
0.932565
0.932558
0.93254
0.932515
0.932487
0.932456
0.932419
0.932375
0.932324
0.932263
0.932192
0.932107
0.932006
0.931885
0.931739
0.931564
0.931351
0.931092
0.930777
0.930391
0.929918
0.929337
0.928618
0.927726
0.92661
0.925204
0.923412
0.921126
0.918083
0.914228
0.932567
0.932561
0.932546
0.932524
0.932498
0.932469
0.932435
0.932395
0.932348
0.932293
0.932228
0.932151
0.93206
0.931951
0.93182
0.931662
0.931472
0.931241
0.930961
0.930618
0.930199
0.929684
0.929049
0.928261
0.927276
0.926035
0.924451
0.922426
0.919711
0.916259
0.932571
0.932566
0.932553
0.932533
0.93251
0.932484
0.932453
0.932417
0.932374
0.932325
0.932267
0.932199
0.932118
0.932022
0.931907
0.93177
0.931604
0.931403
0.93116
0.930864
0.930502
0.930059
0.929513
0.928838
0.927994
0.926932
0.925574
0.923837
0.921487
0.91849
0.932577
0.932572
0.932561
0.932544
0.932524
0.9325
0.932472
0.93244
0.932403
0.932359
0.932309
0.93225
0.93218
0.932098
0.932
0.931884
0.931744
0.931575
0.931371
0.931124
0.930824
0.930456
0.930005
0.929448
0.928754
0.927882
0.926767
0.925337
0.923388
0.920891
0.932584
0.93258
0.93257
0.932556
0.932538
0.932517
0.932492
0.932464
0.932432
0.932395
0.932353
0.932303
0.932246
0.932178
0.932098
0.932004
0.931891
0.931756
0.931593
0.931397
0.93116
0.930871
0.930519
0.930085
0.929546
0.928872
0.928009
0.926904
0.925382
0.923426
0.932593
0.932589
0.932581
0.932568
0.932553
0.932534
0.932514
0.93249
0.932463
0.932433
0.932398
0.932359
0.932314
0.932261
0.9322
0.932128
0.932043
0.931942
0.931822
0.931679
0.931507
0.931299
0.931047
0.930739
0.930359
0.929886
0.929283
0.928512
0.927436
0.926048
0.932603
0.9326
0.932593
0.932582
0.932568
0.932553
0.932536
0.932516
0.932495
0.932472
0.932445
0.932416
0.932383
0.932346
0.932304
0.932255
0.932199
0.932133
0.932057
0.931966
0.93186
0.931734
0.931583
0.931402
0.931181
0.930911
0.930568
0.930133
0.929511
0.928706
0.932614
0.932611
0.932605
0.932596
0.932584
0.932572
0.932558
0.932543
0.932528
0.932511
0.932493
0.932474
0.932454
0.932433
0.932409
0.932384
0.932357
0.932326
0.932293
0.932256
0.932216
0.93217
0.93212
0.932065
0.932002
0.931931
0.931844
0.93174
0.931567
0.931343
0.932625
0.932623
0.932618
0.93261
0.932601
0.932591
0.932581
0.932571
0.93256
0.93255
0.932541
0.932532
0.932525
0.932519
0.932515
0.932513
0.932514
0.932519
0.932529
0.932545
0.93257
0.932604
0.932653
0.932719
0.932809
0.932931
0.933091
0.933303
0.933561
0.933896
0.932638
0.932636
0.932632
0.932625
0.932618
0.932611
0.932604
0.932598
0.932593
0.93259
0.932589
0.93259
0.932596
0.932605
0.93262
0.932641
0.932671
0.93271
0.932762
0.93283
0.932918
0.93303
0.933174
0.933358
0.933594
0.933897
0.934288
0.934796
0.935454
0.936307
0.932651
0.93265
0.932646
0.93264
0.932635
0.93263
0.932626
0.932625
0.932625
0.932628
0.932636
0.932647
0.932665
0.93269
0.932723
0.932767
0.932824
0.932897
0.93299
0.933108
0.933257
0.933444
0.933678
0.933973
0.934346
0.934818
0.93542
0.936195
0.937209
0.938521
0.932665
0.932663
0.93266
0.932655
0.932651
0.932649
0.932649
0.932651
0.932656
0.932666
0.932681
0.932703
0.932732
0.932772
0.932823
0.932889
0.932972
0.933078
0.93321
0.933376
0.933583
0.93384
0.93416
0.934559
0.935057
0.935681
0.936472
0.937479
0.938795
0.940489
0.932679
0.932678
0.932674
0.93267
0.932668
0.932667
0.93267
0.932676
0.932686
0.932702
0.932725
0.932756
0.932797
0.93285
0.932919
0.933005
0.933114
0.933251
0.933421
0.933632
0.933893
0.934216
0.934615
0.935108
0.93572
0.93648
0.937433
0.938634
0.940192
0.94218
0.932694
0.932692
0.932689
0.932685
0.932683
0.932685
0.932691
0.9327
0.932715
0.932737
0.932767
0.932807
0.932858
0.932925
0.933009
0.933116
0.933248
0.933414
0.933619
0.933872
0.934184
0.934567
0.935038
0.935617
0.936329
0.937206
0.938295
0.93965
0.941386
0.943574
0.932709
0.932707
0.932703
0.932699
0.932698
0.932702
0.93271
0.932723
0.932742
0.932769
0.932806
0.932854
0.932916
0.932995
0.933094
0.933219
0.933374
0.933566
0.933803
0.934095
0.934453
0.934891
0.935428
0.936082
0.936881
0.937857
0.939054
0.940525
0.942376
0.94467
0.932725
0.932723
0.932717
0.932713
0.932712
0.932718
0.932728
0.932744
0.932767
0.932799
0.932842
0.932897
0.932968
0.933059
0.933172
0.933313
0.933488
0.933705
0.933971
0.934298
0.934698
0.935186
0.935779
0.9365
0.937373
0.93843
0.939711
0.94126
0.943171
0.945487
0.932742
0.932738
0.932731
0.932725
0.932725
0.932732
0.932744
0.932763
0.932789
0.932826
0.932874
0.932937
0.933016
0.933117
0.933242
0.933399
0.933592
0.93383
0.934123
0.934481
0.934918
0.935449
0.936092
0.936869
0.937804
0.938926
0.940268
0.941864
0.943786
0.946054
0.93276
0.932754
0.932743
0.932736
0.932737
0.932745
0.932759
0.93278
0.932809
0.93285
0.932903
0.932971
0.933058
0.933167
0.933304
0.933474
0.933683
0.93394
0.934256
0.934641
0.93511
0.935678
0.936363
0.937188
0.938174
0.939345
0.940729
0.942347
0.944247
0.946416
0.93278
0.932771
0.932754
0.932745
0.932747
0.932757
0.932772
0.932794
0.932827
0.93287
0.932928
0.933001
0.933095
0.933212
0.933358
0.933538
0.933761
0.934035
0.93437
0.934778
0.935273
0.935872
0.936593
0.937456
0.938482
0.939692
0.941104
0.942725
0.944581
0.946626
0.932804
0.932788
0.932763
0.932752
0.932755
0.932766
0.932782
0.932806
0.93284
0.932887
0.932947
0.933025
0.933124
0.933247
0.933401
0.933591
0.933825
0.934111
0.934462
0.934889
0.935406
0.93603
0.936779
0.937673
0.938729
0.939967
0.941396
0.943011
0.944819
0.946738
0.932833
0.932805
0.932771
0.932759
0.932764
0.932774
0.932791
0.932816
0.932852
0.932901
0.932964
0.933045
0.933147
0.933276
0.933435
0.933632
0.933875
0.934172
0.934534
0.934976
0.935509
0.936153
0.936923
0.93784
0.93892
0.94018
0.941619
0.943217
0.944986
0.946811
0.932871
0.932808
0.932768
0.932762
0.932768
0.932778
0.932795
0.932821
0.932858
0.932909
0.932974
0.933058
0.933163
0.933295
0.933458
0.93366
0.933909
0.934213
0.934584
0.935035
0.93558
0.936236
0.937022
0.937953
0.939051
0.940332
0.941782
0.943364
0.945088
0.946848
0.932946
0.932818
0.932767
0.932765
0.932772
0.932782
0.932799
0.932825
0.932863
0.932914
0.932981
0.933066
0.933172
0.933306
0.933472
0.933677
0.933929
0.934238
0.934614
0.935072
0.935625
0.93629
0.937086
0.938029
0.939136
0.940421
0.94187
0.943451
0.945124
0.946721
0.901811
0.899783
0.898161
0.896831
0.895424
0.893845
0.892151
0.890388
0.88856
0.886658
0.884672
0.882589
0.880392
0.878054
0.87554
0.872807
0.869802
0.866455
0.862681
0.858366
0.853366
0.847485
0.840469
0.831952
0.821497
0.808245
0.791936
0.767755
0.748057
0.685098
0.902933
0.901259
0.899792
0.898477
0.897085
0.895572
0.894001
0.892403
0.890765
0.889069
0.8873
0.885446
0.883487
0.881399
0.879152
0.876706
0.874017
0.871023
0.86765
0.863798
0.859339
0.854107
0.847876
0.840337
0.831102
0.819454
0.805086
0.784592
0.765484
0.713372
0.903243
0.901895
0.900691
0.89949
0.898224
0.8969
0.895546
0.894165
0.892738
0.891254
0.889705
0.888079
0.886362
0.884532
0.882564
0.880425
0.878075
0.875462
0.872521
0.869167
0.865291
0.860749
0.85535
0.848833
0.840862
0.83086
0.818487
0.801251
0.783864
0.741251
0.90408
0.903057
0.902126
0.901071
0.899934
0.898775
0.897602
0.896402
0.895163
0.893879
0.892544
0.891149
0.889677
0.888112
0.886431
0.884607
0.882606
0.880384
0.877887
0.875044
0.871763
0.867923
0.863365
0.857873
0.851159
0.842769
0.832341
0.818068
0.802869
0.768546
0.905244
0.90445
0.90372
0.902799
0.901797
0.900805
0.89982
0.898814
0.897777
0.896706
0.895596
0.894439
0.893221
0.89193
0.890548
0.889052
0.887414
0.8856
0.883565
0.881251
0.878582
0.875462
0.871757
0.867293
0.861831
0.855014
0.846484
0.834971
0.822155
0.795114
0.906708
0.906123
0.905591
0.904826
0.903978
0.903161
0.902364
0.90155
0.900712
0.899852
0.898967
0.89805
0.897091
0.89608
0.895003
0.893843
0.892579
0.891182
0.889618
0.887841
0.885792
0.883392
0.880537
0.877087
0.872846
0.867539
0.860831
0.851862
0.841438
0.820748
0.908468
0.908079
0.907736
0.907126
0.906432
0.905786
0.905173
0.904552
0.903916
0.90327
0.902615
0.901944
0.901249
0.900524
0.89976
0.898943
0.898058
0.897085
0.895998
0.894762
0.893331
0.891647
0.889627
0.887161
0.884096
0.88022
0.875237
0.86858
0.860466
0.845221
0.910518
0.910316
0.910154
0.9097
0.909163
0.90869
0.908263
0.907836
0.907404
0.906974
0.90655
0.906126
0.905698
0.905262
0.904812
0.904341
0.903837
0.903288
0.902675
0.901974
0.901152
0.900165
0.898951
0.897428
0.895474
0.892931
0.889547
0.884955
0.879001
0.86833
0.912849
0.912824
0.912834
0.912535
0.912157
0.911855
0.911612
0.911378
0.911149
0.910936
0.910742
0.910566
0.910405
0.910257
0.910121
0.909993
0.909867
0.909736
0.909588
0.909409
0.909174
0.908855
0.908407
0.907769
0.906847
0.905523
0.903587
0.900802
0.896815
0.889888
0.915442
0.915582
0.915753
0.915608
0.915389
0.915257
0.915195
0.915152
0.915125
0.915125
0.915159
0.915228
0.915329
0.915466
0.915638
0.915846
0.916088
0.916361
0.916661
0.916979
0.917303
0.917611
0.917875
0.91805
0.918065
0.917832
0.917174
0.915937
0.913686
0.90972
0.918268
0.91856
0.918879
0.918885
0.918822
0.918858
0.918972
0.919115
0.919284
0.919492
0.919749
0.920055
0.920412
0.920823
0.921292
0.921822
0.922415
0.923072
0.923795
0.924579
0.92542
0.926305
0.927216
0.928121
0.928967
0.929687
0.930129
0.930189
0.929417
0.927684
0.921286
0.921714
0.922166
0.922317
0.922409
0.922605
0.922888
0.92321
0.923567
0.923975
0.924444
0.924977
0.925576
0.926247
0.926996
0.927828
0.928748
0.929762
0.930873
0.932083
0.933391
0.934794
0.936278
0.937822
0.939384
0.940913
0.942275
0.943405
0.943847
0.943718
0.924439
0.924987
0.925557
0.925844
0.926084
0.926433
0.926874
0.927363
0.927897
0.928492
0.92916
0.929903
0.930727
0.931638
0.932645
0.933753
0.934971
0.936306
0.937764
0.939352
0.941071
0.942922
0.944898
0.946982
0.949142
0.951333
0.953442
0.95542
0.956816
0.957855
0.927662
0.928312
0.928979
0.929393
0.929772
0.930262
0.930848
0.93149
0.932185
0.932951
0.933799
0.934733
0.935759
0.936885
0.93812
0.939473
0.940953
0.942568
0.944327
0.946237
0.948305
0.950531
0.952911
0.955434
0.95807
0.960778
0.96346
0.966057
0.968145
0.970077
0.930876
0.931608
0.932355
0.932881
0.933386
0.934003
0.934717
0.935494
0.936332
0.937248
0.938253
0.939353
0.940555
0.941866
0.943298
0.944858
0.946558
0.948407
0.950415
0.952589
0.954937
0.95746
0.960156
0.963013
0.966004
0.969085
0.97217
0.975174
0.977745
0.980217
0.933996
0.93479
0.935596
0.93622
0.936836
0.937561
0.938384
0.939275
0.940234
0.941276
0.942412
0.94365
0.944996
0.946459
0.948049
0.949777
0.951652
0.953685
0.955886
0.958262
0.96082
0.963562
0.966484
0.969572
0.972797
0.97611
0.979428
0.982637
0.985467
0.988082
0.936935
0.937772
0.938617
0.93932
0.940029
0.940843
0.941752
0.942734
0.943788
0.944929
0.946168
0.947511
0.948968
0.950545
0.952255
0.954106
0.956109
0.958275
0.960611
0.963126
0.965825
0.968708
0.971768
0.974988
0.978336
0.981752
0.98515
0.988382
0.991226
0.993567
0.939613
0.940474
0.941339
0.9421
0.942882
0.943762
0.944734
0.94578
0.946902
0.948113
0.949422
0.950839
0.952369
0.954023
0.95581
0.95774
0.959823
0.962068
0.964483
0.967074
0.969846
0.972795
0.975912
0.979176
0.982547
0.985959
0.989318
0.992454
0.995172
0.997129
0.941961
0.942827
0.943695
0.944494
0.945325
0.946247
0.947256
0.94834
0.949501
0.950751
0.952099
0.953553
0.955121
0.956811
0.958634
0.960597
0.962711
0.964983
0.967421
0.970029
0.972808
0.975754
0.978853
0.982078
0.985384
0.9887
0.99192
0.994864
0.997349
0.998876
0.943929
0.944784
0.945638
0.946454
0.947309
0.948249
0.94927
0.950364
0.951534
0.952792
0.954146
0.955603
0.957171
0.958858
0.960673
0.962625
0.964722
0.966971
0.969378
0.971945
0.974671
0.977547
0.980556
0.983667
0.986826
0.989953
0.992933
0.995562
0.997642
0.998553
0.945491
0.946319
0.947145
0.947956
0.948812
0.949744
0.950751
0.951828
0.952979
0.954214
0.95554
0.956965
0.958497
0.960142
0.961909
0.963806
0.96584
0.968018
0.970341
0.972812
0.975426
0.978171
0.981023
0.983946
0.986879
0.989728
0.992363
0.994548
0.996089
0.996271
0.946647
0.947435
0.94822
0.949006
0.949839
0.95074
0.951708
0.952741
0.953844
0.955026
0.956293
0.957653
0.959112
0.960678
0.962357
0.964158
0.966085
0.968144
0.970336
0.972658
0.975104
0.977657
0.980289
0.982955
0.985584
0.988068
0.990266
0.991916
0.992861
0.991973
0.947423
0.948161
0.948893
0.949634
0.950421
0.951268
0.952174
0.953139
0.954167
0.955267
0.956445
0.957707
0.95906
0.960511
0.962065
0.963729
0.965507
0.967402
0.969414
0.971538
0.973763
0.976068
0.978418
0.980761
0.983015
0.985059
0.98674
0.987744
0.988026
0.985603
0.947872
0.948548
0.949216
0.949897
0.950618
0.95139
0.952212
0.953085
0.954014
0.955006
0.956067
0.957202
0.958417
0.959718
0.96111
0.962599
0.964187
0.965875
0.96766
0.969536
0.971487
0.973487
0.975497
0.977453
0.979268
0.980796
0.981878
0.982111
0.981701
0.977456
0.948062
0.948668
0.949263
0.949868
0.950505
0.951184
0.951903
0.952664
0.95347
0.95433
0.955247
0.956228
0.957277
0.958399
0.959598
0.960878
0.96224
0.963684
0.965202
0.966786
0.968415
0.970058
0.971667
0.973168
0.974462
0.975381
0.97577
0.9751
0.973906
0.967857
0.948078
0.948611
0.949122
0.949634
0.950173
0.950744
0.951345
0.951977
0.952644
0.953349
0.954099
0.954899
0.955752
0.956662
0.957634
0.958668
0.959765
0.960921
0.962129
0.963374
0.964632
0.965864
0.967015
0.967998
0.9687
0.968924
0.968525
0.966809
0.964687
0.956488
0.94802
0.948474
0.948885
0.949289
0.949715
0.950163
0.950628
0.951113
0.951622
0.952158
0.952725
0.953325
0.953963
0.95464
0.955358
0.956117
0.956915
0.957746
0.9586
0.959457
0.96029
0.961051
0.961678
0.962071
0.962103
0.961541
0.96025
0.957325
0.954123
0.943342
0.948044
0.94837
0.948628
0.948917
0.949241
0.949572
0.9499
0.95023
0.950561
0.950901
0.951257
0.951632
0.952026
0.952442
0.952877
0.95333
0.953797
0.954268
0.95473
0.955157
0.955515
0.955751
0.95579
0.955518
0.954794
0.953341
0.951047
0.946743
0.94236
0.928516
0.948382
0.948449
0.948429
0.948557
0.948745
0.948924
0.949116
0.949317
0.949492
0.949639
0.94978
0.949919
0.950062
0.950202
0.950336
0.95046
0.95057
0.950653
0.950694
0.950658
0.950502
0.950163
0.949552
0.948537
0.946958
0.94449
0.941066
0.935129
0.929632
0.912073
0.948901
0.94862
0.948414
0.948473
0.94859
0.948647
0.948653
0.948626
0.948575
0.948509
0.948404
0.948271
0.948128
0.947957
0.947748
0.947498
0.947191
0.946826
0.946386
0.945818
0.945082
0.944104
0.942783
0.94096
0.938453
0.934865
0.930292
0.922245
0.916192
0.893784
0.874472
0.853284
0.829173
0.8031
0.775393
0.745661
0.713705
0.67992
0.645027
0.609757
0.575285
0.542278
0.511759
0.487002
0.471225
0.464173
0.462388
0.462223
0.462183
0.46204
0.461671
0.460673
0.459172
0.458269
0.459316
0.462903
0.466789
0.469214
0.469717
0.46886
0.902568
0.884002
0.862269
0.838901
0.813621
0.785984
0.755476
0.722305
0.686648
0.648994
0.610127
0.571278
0.534025
0.50137
0.479044
0.468187
0.464356
0.463517
0.463143
0.462938
0.462509
0.461086
0.458836
0.458113
0.461098
0.465944
0.470216
0.472331
0.472239
0.471426
0.9087
0.891664
0.872019
0.84993
0.825349
0.797848
0.767357
0.734336
0.698864
0.661325
0.622256
0.58287
0.54487
0.51088
0.487077
0.475263
0.470979
0.470057
0.469739
0.469425
0.468639
0.46673
0.465925
0.468087
0.473618
0.479721
0.483597
0.484736
0.483815
0.483386
0.91974
0.90511
0.886786
0.866525
0.843759
0.817449
0.787538
0.754283
0.717837
0.678727
0.637918
0.596803
0.557163
0.52183
0.496467
0.483322
0.478482
0.477803
0.478629
0.480056
0.481213
0.482537
0.485719
0.491301
0.498108
0.503376
0.50522
0.505378
0.50464
0.504348
0.92561
0.912443
0.896478
0.878246
0.857294
0.832747
0.804259
0.771885
0.735734
0.6962
0.654238
0.611394
0.569801
0.532622
0.505318
0.490647
0.485273
0.485029
0.487153
0.490406
0.494048
0.498443
0.504419
0.511654
0.518415
0.522678
0.524438
0.526146
0.528619
0.531696
0.930598
0.919199
0.904893
0.888251
0.868727
0.845503
0.818118
0.786485
0.750667
0.710965
0.668228
0.62404
0.580801
0.541965
0.513022
0.497168
0.491542
0.491988
0.495573
0.500767
0.506814
0.513748
0.521738
0.529901
0.536416
0.540158
0.54268
0.546699
0.554152
0.564172
0.934224
0.924257
0.911531
0.896517
0.878569
0.85682
0.830695
0.79993
0.764478
0.724599
0.681117
0.635673
0.590879
0.550487
0.520098
0.503248
0.49749
0.49874
0.503852
0.511005
0.519315
0.528457
0.538006
0.546574
0.5525
0.555764
0.559533
0.567182
0.581376
0.599346
0.936991
0.928306
0.917027
0.90348
0.887002
0.866715
0.841949
0.812256
0.777415
0.737575
0.693509
0.646898
0.600561
0.558583
0.52677
0.508982
0.503164
0.505339
0.512089
0.521258
0.531744
0.542816
0.553489
0.561975
0.567024
0.569957
0.575603
0.587935
0.609254
0.633661
0.939115
0.931543
0.92155
0.90934
0.894232
0.875342
0.85192
0.823366
0.789288
0.749687
0.705237
0.657611
0.609799
0.56624
0.533034
0.514389
0.508606
0.51186
0.520362
0.531574
0.54411
0.556804
0.568161
0.576073
0.57995
0.582583
0.590905
0.608624
0.636449
0.66466
0.94078
0.934171
0.925318
0.914312
0.900473
0.882916
0.860813
0.833424
0.800187
0.760951
0.716262
0.667756
0.618558
0.573457
0.538918
0.519548
0.513857
0.518337
0.528683
0.541927
0.556366
0.57037
0.581968
0.588792
0.591262
0.593749
0.605398
0.628848
0.661824
0.69114
0.942108
0.936334
0.928484
0.918562
0.90589
0.889593
0.86878
0.842576
0.810252
0.771484
0.726678
0.677402
0.626894
0.580283
0.544462
0.524393
0.51895
0.524774
0.53704
0.552288
0.56847
0.583462
0.594841
0.599977
0.600082
0.603889
0.619095
0.647998
0.684271
0.711966
0.943189
0.93814
0.931172
0.92222
0.910618
0.895501
0.875931
0.850915
0.819559
0.781356
0.736546
0.686603
0.63485
0.586754
0.549681
0.52897
0.523907
0.531177
0.545424
0.562634
0.58039
0.596031
0.60666
0.609578
0.607024
0.612263
0.631795
0.665428
0.702197
0.724677
0.944084
0.939667
0.933476
0.925394
0.914765
0.900749
0.882368
0.858525
0.828171
0.790611
0.745898
0.695386
0.642449
0.592886
0.554584
0.533299
0.528735
0.537552
0.553826
0.572941
0.592097
0.60804
0.617285
0.61647
0.613081
0.619151
0.643211
0.680484
0.714462
0.728366
0.944839
0.940974
0.935469
0.928167
0.918425
0.90543
0.88818
0.865485
0.836151
0.799296
0.75477
0.703776
0.649712
0.598699
0.559186
0.537391
0.533438
0.543899
0.562238
0.583196
0.603558
0.619394
0.626704
0.621577
0.616672
0.624777
0.65371
0.692749
0.7214
0.72471
0.945484
0.942105
0.937206
0.930604
0.921673
0.909625
0.893445
0.871866
0.843561
0.807459
0.763197
0.711802
0.656663
0.604211
0.563504
0.541257
0.538019
0.550222
0.570661
0.593394
0.614766
0.629959
0.633906
0.62592
0.618264
0.629709
0.663656
0.702139
0.723307
0.716866
0.946037
0.94309
0.938729
0.932758
0.924569
0.913399
0.898229
0.877731
0.850452
0.815142
0.771213
0.71949
0.663323
0.60944
0.567548
0.544904
0.542485
0.556528
0.579095
0.603529
0.625716
0.639914
0.639104
0.627495
0.618695
0.635326
0.673569
0.708948
0.720361
0.710842
0.946513
0.943951
0.940073
0.934669
0.927161
0.916808
0.90259
0.883134
0.856872
0.822383
0.778847
0.726863
0.669713
0.614402
0.571332
0.548343
0.54684
0.562821
0.587543
0.613604
0.636295
0.648832
0.643374
0.626561
0.619156
0.642574
0.684242
0.71265
0.715291
0.709393
0.946925
0.944706
0.94126
0.936371
0.929488
0.919894
0.906577
0.888123
0.862865
0.829216
0.786125
0.733944
0.675851
0.61911
0.574865
0.55158
0.551093
0.569107
0.596009
0.623635
0.646505
0.655442
0.645715
0.624588
0.621514
0.652507
0.693305
0.71332
0.711645
0.711737
0.947281
0.945369
0.942313
0.937889
0.931583
0.922697
0.910231
0.89274
0.868469
0.835676
0.793074
0.740752
0.681753
0.623577
0.578156
0.554622
0.555247
0.575389
0.604492
0.633556
0.656273
0.660726
0.645363
0.622632
0.626649
0.664315
0.700561
0.711935
0.710991
0.716948
0.947591
0.945953
0.943248
0.939247
0.93347
0.925247
0.913587
0.897024
0.87372
0.84179
0.799718
0.747308
0.687436
0.627816
0.581215
0.557473
0.559309
0.581672
0.613
0.643263
0.664278
0.664973
0.643215
0.622309
0.635327
0.675949
0.705735
0.710499
0.713261
0.724339
0.947863
0.946468
0.94408
0.940463
0.935172
0.927568
0.916676
0.901004
0.878647
0.847587
0.806078
0.753628
0.692916
0.631836
0.584048
0.56014
0.563284
0.587963
0.621527
0.652784
0.671044
0.666303
0.640232
0.624614
0.646953
0.686127
0.708537
0.710413
0.717726
0.733382
0.948098
0.946923
0.944821
0.941553
0.936709
0.929683
0.91952
0.904709
0.883279
0.853091
0.812175
0.75973
0.698205
0.63565
0.586664
0.562626
0.567178
0.594267
0.630013
0.661598
0.676961
0.664985
0.637451
0.629574
0.65904
0.693978
0.709853
0.712081
0.723732
0.743792
0.948293
0.947323
0.945484
0.942533
0.938096
0.93161
0.922142
0.908163
0.88764
0.858325
0.818028
0.765629
0.703318
0.63927
0.589067
0.564934
0.570996
0.600593
0.638415
0.669398
0.680388
0.662333
0.635571
0.63662
0.670164
0.699626
0.710777
0.71558
0.730955
0.754876
0.948446
0.947671
0.946076
0.943414
0.939348
0.933364
0.924559
0.911385
0.891753
0.863309
0.823654
0.77134
0.708269
0.642708
0.591272
0.567065
0.574751
0.606937
0.646613
0.676218
0.681127
0.658713
0.635231
0.645287
0.679631
0.703735
0.712285
0.720755
0.739149
0.766149
0.948558
0.947968
0.946606
0.944208
0.940478
0.934959
0.926787
0.914392
0.895634
0.868062
0.829068
0.776872
0.713059
0.645966
0.593238
0.568997
0.578463
0.613287
0.654103
0.681448
0.680124
0.654751
0.636339
0.654653
0.68735
0.706816
0.71481
0.72714
0.747816
0.777708
0.948628
0.948214
0.947077
0.944926
0.941499
0.936406
0.928838
0.917202
0.899302
0.872603
0.8343
0.782267
0.71774
0.649098
0.595189
0.570808
0.582131
0.61956
0.660823
0.684477
0.678109
0.651154
0.638912
0.66347
0.69389
0.709422
0.718378
0.734366
0.756894
0.788987
0.948661
0.948406
0.947493
0.945572
0.942425
0.937722
0.930718
0.919815
0.902749
0.876896
0.83927
0.787412
0.722183
0.651938
0.596406
0.572198
0.585704
0.625365
0.666245
0.685955
0.675484
0.648378
0.643099
0.671626
0.699259
0.71171
0.723084
0.74199
0.766632
0.799797
0.948676
0.948545
0.94786
0.946161
0.94323
0.938968
0.932514
0.922351
0.906164
0.881226
0.844346
0.792737
0.726928
0.655324
0.598548
0.573926
0.589373
0.630242
0.669616
0.686489
0.672301
0.645996
0.648508
0.679267
0.704336
0.715833
0.729137
0.750851
0.776681
0.809611
0.9487
0.948641
0.948181
0.946747
0.943918
0.939781
0.933837
0.924268
0.908755
0.884527
0.848173
0.796585
0.729945
0.6567
0.598748
0.574661
0.592315
0.634577
0.672098
0.685626
0.667755
0.643546
0.651457
0.6846
0.707147
0.716604
0.731612
0.757438
0.786745
0.818188
0.948739
0.948716
0.948461
0.947439
0.945117
0.941366
0.935973
0.927301
0.91296
0.89005
0.854986
0.804048
0.73676
0.661616
0.601134
0.576047
0.594966
0.638879
0.675097
0.684817
0.664857
0.646783
0.660489
0.693407
0.714272
0.725522
0.743744
0.770208
0.800566
0.828528
0.654254
0.62129
0.596375
0.622426
0.670136
0.717678
0.726509
0.717683
0.710848
0.703651
0.69854
0.696251
0.696136
0.697734
0.700659
0.704532
0.709036
0.713914
0.718959
0.724012
0.728997
0.733817
0.738489
0.742898
0.747239
0.7514
0.756231
0.761319
0.768049
0.76163
0.629263
0.600373
0.599366
0.636962
0.694664
0.74188
0.748971
0.733147
0.718334
0.706722
0.698437
0.693648
0.691702
0.692062
0.69423
0.697694
0.702029
0.7069
0.712049
0.717275
0.722459
0.727491
0.732337
0.736895
0.741208
0.745073
0.748729
0.75127
0.754868
0.755243
0.59016
0.560837
0.575284
0.636733
0.716329
0.76205
0.773387
0.753568
0.730263
0.712809
0.699216
0.690941
0.686675
0.685458
0.686586
0.689437
0.693511
0.698375
0.703689
0.709206
0.714758
0.720217
0.725502
0.730527
0.735269
0.739597
0.743653
0.747045
0.750759
0.754565
0.55814
0.531001
0.545368
0.613598
0.707409
0.767823
0.786154
0.771272
0.742
0.717917
0.700913
0.687769
0.680319
0.677526
0.678012
0.680651
0.684805
0.68999
0.695785
0.701876
0.708054
0.714173
0.720138
0.725875
0.731365
0.736552
0.741505
0.746098
0.750342
0.754312
0.544351
0.522935
0.5308
0.585571
0.672216
0.744378
0.779439
0.775777
0.748284
0.718614
0.696487
0.681775
0.672126
0.666699
0.666118
0.668823
0.673349
0.679051
0.685492
0.692313
0.69925
0.706127
0.712833
0.719293
0.725468
0.731317
0.736827
0.741986
0.746695
0.751081
0.548051
0.532388
0.529894
0.566576
0.637846
0.702704
0.741785
0.754601
0.74346
0.715277
0.686324
0.666987
0.656862
0.651681
0.64929
0.651759
0.657018
0.663664
0.67109
0.678937
0.686916
0.694804
0.702463
0.709816
0.716818
0.723442
0.729669
0.735527
0.740968
0.74614
0.554333
0.548394
0.53904
0.556217
0.60543
0.658203
0.69556
0.713074
0.712772
0.697744
0.67209
0.647167
0.632263
0.626547
0.625667
0.627613
0.633875
0.64229
0.651632
0.661117
0.670614
0.679956
0.688968
0.697564
0.705711
0.713402
0.720628
0.727421
0.733735
0.739725
0.555194
0.557876
0.547674
0.549635
0.577577
0.614184
0.643982
0.661335
0.665448
0.658365
0.642468
0.621339
0.602205
0.592036
0.590821
0.594743
0.601463
0.611887
0.624744
0.637254
0.649133
0.66056
0.671465
0.681754
0.691415
0.700467
0.708929
0.716848
0.724186
0.731127
0.549925
0.559715
0.548852
0.540552
0.551769
0.572281
0.590955
0.602796
0.606247
0.601857
0.59208
0.578514
0.563319
0.550869
0.545917
0.550023
0.559412
0.570994
0.585876
0.603253
0.619465
0.634293
0.648078
0.660868
0.672672
0.683568
0.693639
0.702985
0.711596
0.719709
0.5378
0.550659
0.539188
0.526045
0.525598
0.531828
0.538325
0.541746
0.540555
0.534925
0.52637
0.516606
0.50696
0.498272
0.492884
0.494238
0.504131
0.519458
0.536525
0.556562
0.578238
0.598349
0.616457
0.632959
0.647935
0.661492
0.673806
0.685066
0.695319
0.704886
0.511435
0.527826
0.518074
0.504213
0.496502
0.491676
0.487116
0.481237
0.473227
0.463323
0.45272
0.44296
0.435291
0.430372
0.428174
0.430005
0.438491
0.45422
0.475623
0.498744
0.523823
0.550272
0.57424
0.595881
0.615315
0.632666
0.648155
0.66206
0.674518
0.685965
0.474103
0.492681
0.487328
0.475314
0.463709
0.451218
0.437767
0.423231
0.407878
0.39243
0.377944
0.365702
0.356893
0.352368
0.352252
0.356169
0.364897
0.380038
0.401677
0.428674
0.459369
0.490282
0.520238
0.548147
0.573247
0.595591
0.615353
0.632844
0.648273
0.662207
0.430444
0.45117
0.450393
0.441119
0.427998
0.410776
0.390807
0.369012
0.346887
0.325795
0.306918
0.291274
0.279776
0.273219
0.272246
0.276666
0.286074
0.301056
0.322498
0.350531
0.38351
0.419139
0.455137
0.489473
0.52108
0.549476
0.574582
0.596659
0.61594
0.633086
0.388359
0.40914
0.411919
0.405041
0.391645
0.3718
0.347394
0.319833
0.291829
0.265452
0.242184
0.223004
0.208512
0.199265
0.195834
0.19864
0.207338
0.221699
0.242271
0.26963
0.303358
0.341734
0.382208
0.42241
0.460492
0.49532
0.526422
0.553832
0.577718
0.598741
0.353355
0.371939
0.376636
0.37124
0.357894
0.33655
0.309222
0.277284
0.244231
0.212923
0.185308
0.162454
0.144856
0.13289
0.126953
0.127403
0.134349
0.147395
0.166635
0.192647
0.225659
0.264751
0.307857
0.352374
0.395887
0.436646
0.473638
0.506533
0.535332
0.560546
0.328289
0.343396
0.348378
0.343489
0.33014
0.307581
0.278157
0.243306
0.206129
0.170229
0.138262
0.111481
0.0904521
0.0755818
0.0672029
0.0654736
0.0705467
0.0821239
0.10001
0.12462
0.156443
0.195184
0.239328
0.286428
0.333819
0.379265
0.421251
0.459022
0.492376
0.521512
0.314675
0.324035
0.328678
0.324267
0.311326
0.288847
0.257693
0.220992
0.1807
0.140688
0.104322
0.0732299
0.0482537
0.030109
0.0191287
0.0154605
0.0187334
0.0290971
0.0460346
0.0697293
0.100697
0.138949
0.183392
0.231845
0.281619
0.330204
0.375748
0.417125
0.453986
0.486129
0.310265
0.314467
0.317864
0.313883
0.302458
0.282224
0.251871
0.214133
0.171807
0.128693
0.0883149
0.0526979
0.0231975
0.00110724
-0.0129853
-0.0190522
-0.0171918
-0.00773701
0.00877591
0.0322933
0.0631865
0.101469
0.146185
0.195319
0.246238
0.296383
0.343859
0.387076
0.425851
0.459564
0.312137
0.312684
0.315225
0.312232
0.303272
0.286517
0.260177
0.223799
0.18146
0.137378
0.0948439
0.0558068
0.0221197
-0.00421045
-0.0219244
-0.0306257
-0.0305452
-0.0222306
-0.00592782
0.0179758
0.0495179
0.0884165
0.133554
0.182904
0.233904
0.284065
0.331391
0.374546
0.413204
0.446655
0.318693
0.316878
0.319188
0.318005
0.312623
0.300284
0.279193
0.248519
0.209675
0.167238
0.12491
0.084858
0.0491471
0.020196
-0.000224646
-0.0113329
-0.0130737
-0.00613547
0.00972854
0.0340066
0.0662696
0.105709
0.150803
0.19933