/*--------------------------------*- C++ -*----------------------------------*\
  =========                 |
  \\      /  F ield         | OpenFOAM: The Open Source CFD Toolbox
   \\    /   O peration     | Website:  https://openfoam.org
    \\  /    A nd           | Version:  11
     \\/     M anipulation  |
\*---------------------------------------------------------------------------*/
FoamFile
{
    format      ascii;
    class       surfaceScalarField;
    location    "7.9";
    object      phi;
}
// * * * * * * * * * * * * * * * * * * * * * * * * * * * * * * * * * * * * * //

dimensions      [0 3 -1 0 0 0 0];

internalField   nonuniform List<scalar> 
24840
(
1.92413e-05
6.87122e-09
1.92309e-05
1.04015e-08
1.92209e-05
9.99522e-09
1.9211e-05
9.86102e-09
1.92011e-05
9.93937e-09
1.91912e-05
9.88837e-09
1.91815e-05
9.63176e-09
1.91724e-05
9.16505e-09
1.9164e-05
8.38786e-09
1.91568e-05
7.2077e-09
1.91512e-05
5.55243e-09
1.91479e-05
3.33766e-09
1.91472e-05
6.53765e-10
1.915e-05
-2.77899e-09
1.91571e-05
-7.06214e-09
1.91694e-05
-1.23219e-08
1.91878e-05
-1.83901e-08
1.92136e-05
-2.58154e-08
1.92479e-05
-3.4278e-08
1.92914e-05
-4.35208e-08
1.93462e-05
-5.48259e-08
1.94151e-05
-6.89044e-08
1.95008e-05
-8.56247e-08
1.96061e-05
-1.0529e-07
1.97345e-05
-1.28442e-07
1.98898e-05
-1.55327e-07
2.00767e-05
-1.8689e-07
2.02967e-05
-2.20038e-07
2.05658e-05
-2.69097e-07
-2.7251e-07
2.08384e-05
1.92524e-05
2.56971e-09
1.92566e-05
6.21425e-09
1.92605e-05
6.12417e-09
1.9264e-05
6.35434e-09
1.92673e-05
6.67356e-09
1.92706e-05
6.58739e-09
1.9274e-05
6.16245e-09
1.92778e-05
5.44606e-09
1.9282e-05
4.1857e-09
1.9287e-05
2.21142e-09
1.9293e-05
-4.56376e-10
1.93006e-05
-4.2713e-09
1.93102e-05
-9.00492e-09
1.93224e-05
-1.49928e-08
1.93378e-05
-2.23688e-08
1.93567e-05
-3.13043e-08
1.93803e-05
-4.19935e-08
1.94091e-05
-5.4618e-08
1.94452e-05
-7.03876e-08
1.94924e-05
-9.07163e-08
1.95524e-05
-1.14826e-07
1.96256e-05
-1.42046e-07
1.97133e-05
-1.73335e-07
1.9818e-05
-2.10015e-07
1.99428e-05
-2.53256e-07
2.00914e-05
-3.03916e-07
2.02679e-05
-3.63378e-07
2.0477e-05
-4.29083e-07
2.07227e-05
-5.1487e-07
-5.48801e-07
2.0999e-05
1.92498e-05
8.91718e-10
1.92532e-05
2.7916e-09
1.92563e-05
3.07979e-09
1.92595e-05
3.09501e-09
1.92628e-05
3.38599e-09
1.92661e-05
3.35684e-09
1.92693e-05
2.89222e-09
1.92727e-05
2.04612e-09
1.92765e-05
4.55506e-10
1.92808e-05
-2.18141e-09
1.92862e-05
-5.84955e-09
1.9293e-05
-1.10655e-08
1.93019e-05
-1.7856e-08
1.93134e-05
-2.65086e-08
1.93283e-05
-3.7301e-08
1.93476e-05
-5.05285e-08
1.93721e-05
-6.65266e-08
1.94032e-05
-8.56758e-08
1.94416e-05
-1.08809e-07
1.94879e-05
-1.37059e-07
1.95438e-05
-1.7072e-07
1.96116e-05
-2.09834e-07
1.96936e-05
-2.55388e-07
1.97926e-05
-3.08956e-07
1.99115e-05
-3.72185e-07
2.00541e-05
-4.46452e-07
2.02246e-05
-5.3389e-07
2.04274e-05
-6.3193e-07
2.06687e-05
-7.56192e-07
-8.35525e-07
2.09555e-05
1.92492e-05
-2.02589e-10
1.92519e-05
1.21421e-10
1.92547e-05
2.47586e-10
1.92576e-05
1.9608e-10
1.92606e-05
3.69767e-10
1.92637e-05
3.37134e-10
1.92667e-05
-1.49642e-10
1.92699e-05
-1.11071e-09
1.92734e-05
-3.04011e-09
1.92774e-05
-6.21252e-09
1.92824e-05
-1.08586e-08
1.92888e-05
-1.74165e-08
1.9297e-05
-2.61514e-08
1.93079e-05
-3.73721e-08
1.9322e-05
-5.14256e-08
1.93402e-05
-6.86797e-08
1.93632e-05
-8.95643e-08
1.93922e-05
-1.14619e-07
1.9428e-05
-1.4465e-07
1.94716e-05
-1.80658e-07
1.95243e-05
-2.23375e-07
1.95879e-05
-2.73507e-07
1.9665e-05
-3.32409e-07
1.9758e-05
-4.01978e-07
1.98701e-05
-4.84347e-07
2.00052e-05
-5.81525e-07
2.01677e-05
-6.96408e-07
2.03632e-05
-8.27437e-07
2.05972e-05
-9.90167e-07
-1.12068e-06
2.08824e-05
1.92489e-05
-1.01622e-09
1.9251e-05
-1.88418e-09
1.92534e-05
-2.20758e-09
1.9256e-05
-2.37467e-09
1.92587e-05
-2.36866e-09
1.92615e-05
-2.43177e-09
1.92643e-05
-2.91726e-09
1.92672e-05
-4.04572e-09
1.92704e-05
-6.27348e-09
1.92742e-05
-9.95677e-09
1.92788e-05
-1.55074e-08
1.92847e-05
-2.33282e-08
1.92924e-05
-3.38238e-08
1.93024e-05
-4.73775e-08
1.93154e-05
-6.43933e-08
1.9332e-05
-8.53113e-08
1.93531e-05
-1.10644e-07
1.93795e-05
-1.4102e-07
1.94121e-05
-1.77269e-07
1.94519e-05
-2.20415e-07
1.95e-05
-2.71518e-07
1.95583e-05
-3.31792e-07
1.96288e-05
-4.02967e-07
1.97142e-05
-4.87321e-07
1.98174e-05
-5.87564e-07
1.99424e-05
-7.06495e-07
2.00938e-05
-8.47879e-07
2.02781e-05
-1.0117e-06
2.05008e-05
-1.21286e-06
-1.39692e-06
2.0777e-05
1.92488e-05
-1.65944e-09
1.92504e-05
-3.49838e-09
1.92525e-05
-4.34723e-09
1.92549e-05
-4.7142e-09
1.92573e-05
-4.82061e-09
1.92598e-05
-4.93218e-09
1.92624e-05
-5.45617e-09
1.9265e-05
-6.73439e-09
1.9268e-05
-9.20489e-09
1.92714e-05
-1.33404e-08
1.92755e-05
-1.96472e-08
1.92808e-05
-2.8605e-08
1.92876e-05
-4.0682e-08
1.92966e-05
-5.63244e-08
1.93082e-05
-7.59857e-08
1.9323e-05
-1.00159e-07
1.93418e-05
-1.29414e-07
1.93652e-05
-1.6445e-07
1.93941e-05
-2.06155e-07
1.94293e-05
-2.55633e-07
1.9472e-05
-3.14188e-07
1.95236e-05
-3.83415e-07
1.95861e-05
-4.65433e-07
1.96617e-05
-5.62981e-07
1.97536e-05
-6.79405e-07
1.98655e-05
-8.18403e-07
2.00024e-05
-9.84751e-07
2.0171e-05
-1.18038e-06
2.03778e-05
-1.41958e-06
-1.65949e-06
2.06403e-05
1.92487e-05
-2.19392e-09
1.925e-05
-4.84886e-09
1.92519e-05
-6.19194e-09
1.92539e-05
-6.78011e-09
1.92561e-05
-6.98243e-09
1.92583e-05
-7.15233e-09
1.92606e-05
-7.72338e-09
1.9263e-05
-9.10702e-09
1.92655e-05
-1.17766e-08
1.92685e-05
-1.62986e-08
1.92721e-05
-2.32567e-08
1.92767e-05
-3.31981e-08
1.92826e-05
-4.66402e-08
1.92904e-05
-6.4077e-08
1.93004e-05
-8.60031e-08
1.93132e-05
-1.12951e-07
1.93293e-05
-1.45533e-07
1.93494e-05
-1.84501e-07
1.9374e-05
-2.30796e-07
1.9404e-05
-2.85616e-07
1.94403e-05
-3.50452e-07
1.94841e-05
-4.27205e-07
1.9537e-05
-5.18366e-07
1.96012e-05
-6.27148e-07
1.96793e-05
-7.57566e-07
1.97752e-05
-9.14295e-07
1.98937e-05
-1.10328e-06
2.00421e-05
-1.32877e-06
2.02272e-05
-1.60468e-06
-1.90206e-06
2.04698e-05
1.92486e-05
-2.64665e-09
1.92497e-05
-5.99529e-09
1.92513e-05
-7.77361e-09
1.92531e-05
-8.57915e-09
1.9255e-05
-8.87189e-09
1.92569e-05
-9.0885e-09
1.92589e-05
-9.7088e-09
1.9261e-05
-1.11735e-08
1.92632e-05
-1.39894e-08
1.92657e-05
-1.88035e-08
1.92687e-05
-2.62823e-08
1.92726e-05
-3.70294e-08
1.92775e-05
-5.15968e-08
1.9284e-05
-7.0509e-08
1.92922e-05
-9.42877e-08
1.93028e-05
-1.23489e-07
1.9316e-05
-1.58753e-07
1.93324e-05
-2.00857e-07
1.93523e-05
-2.50786e-07
1.93765e-05
-3.09808e-07
1.94056e-05
-3.79557e-07
1.94406e-05
-4.62169e-07
1.94827e-05
-5.60459e-07
1.95336e-05
-6.78093e-07
1.95958e-05
-8.19753e-07
1.96727e-05
-9.9113e-07
1.97688e-05
-1.19946e-06
1.98917e-05
-1.45162e-06
2.00485e-05
-1.76146e-06
-2.11627e-06
2.02627e-05
1.92485e-05
-3.02934e-09
1.92495e-05
-6.96899e-09
1.92508e-05
-9.12162e-09
1.92524e-05
-1.01231e-08
1.9254e-05
-1.04951e-08
1.92557e-05
-1.07432e-08
1.92574e-05
-1.14038e-08
1.92591e-05
-1.29168e-08
1.92609e-05
-1.58144e-08
1.92629e-05
-2.08264e-08
1.92654e-05
-2.86948e-08
1.92684e-05
-4.0061e-08
1.92723e-05
-5.54965e-08
1.92773e-05
-7.55418e-08
1.92838e-05
-1.00732e-07
1.92919e-05
-1.31633e-07
1.9302e-05
-1.68887e-07
1.93145e-05
-2.13277e-07
1.93295e-05
-2.65804e-07
1.93474e-05
-3.2777e-07
1.93688e-05
-4.00901e-07
1.93941e-05
-4.87491e-07
1.94243e-05
-5.90611e-07
1.94605e-05
-7.14314e-07
1.95046e-05
-8.63892e-07
1.95595e-05
-1.04601e-06
1.96293e-05
-1.26925e-06
1.9721e-05
-1.54329e-06
1.98417e-05
-1.88223e-06
-2.29164e-06
2.00171e-05
1.92485e-05
-3.34921e-09
1.92493e-05
-7.78925e-09
1.92504e-05
-1.02557e-08
1.92517e-05
-1.14221e-08
1.92531e-05
-1.18594e-08
1.92545e-05
-1.21236e-08
1.92559e-05
-1.28069e-08
1.92573e-05
-1.43326e-08
1.92587e-05
-1.72505e-08
1.92602e-05
-2.23683e-08
1.9262e-05
-3.04886e-08
1.92643e-05
-4.22769e-08
1.92671e-05
-5.83111e-08
1.92707e-05
-7.91349e-08
1.92752e-05
-1.05282e-07
1.92809e-05
-1.37307e-07
1.92878e-05
-1.75834e-07
1.92962e-05
-2.21625e-07
1.9306e-05
-2.75659e-07
1.93175e-05
-3.39231e-07
1.93307e-05
-4.14091e-07
1.93458e-05
-5.02609e-07
1.93632e-05
-6.08007e-07
1.93835e-05
-7.3462e-07
1.94078e-05
-8.88222e-07
1.94382e-05
-1.07634e-06
1.94777e-05
-1.30877e-06
1.95324e-05
-1.59802e-06
1.96088e-05
-1.95867e-06
-2.41567e-06
1.97329e-05
1.92484e-05
-3.61227e-09
1.92491e-05
-8.46651e-09
1.925e-05
-1.11905e-08
1.92511e-05
-1.24882e-08
1.92522e-05
-1.2974e-08
1.92533e-05
-1.32391e-08
1.92544e-05
-1.39249e-08
1.92555e-05
-1.54264e-08
1.92566e-05
-1.83055e-08
1.92576e-05
-2.34373e-08
1.92588e-05
-3.16716e-08
1.92602e-05
-4.36835e-08
1.9262e-05
-6.00451e-08
1.92641e-05
-8.12896e-08
1.92668e-05
-1.07933e-07
1.927e-05
-1.40502e-07
1.92737e-05
-1.79578e-07
1.9278e-05
-2.25871e-07
1.92826e-05
-2.80297e-07
1.92875e-05
-3.44093e-07
1.92923e-05
-4.18957e-07
1.92969e-05
-5.07237e-07
1.93011e-05
-6.12182e-07
1.93047e-05
-7.38243e-07
1.9308e-05
-8.91484e-07
1.93117e-05
-1.08003e-06
1.93176e-05
-1.31468e-06
1.933e-05
-1.61043e-06
1.93537e-05
-1.98239e-06
-2.47459e-06
1.94127e-05
1.92483e-05
-3.82106e-09
1.92489e-05
-9.00715e-09
1.92496e-05
-1.19401e-08
1.92505e-05
-1.33345e-08
1.92514e-05
-1.38515e-08
1.92522e-05
-1.41024e-08
1.92531e-05
-1.47694e-08
1.92538e-05
-1.62112e-08
1.92545e-05
-1.89974e-08
1.92552e-05
-2.40574e-08
1.92558e-05
-3.22716e-08
1.92564e-05
-4.43121e-08
1.92571e-05
-6.0734e-08
1.92578e-05
-8.2048e-08
1.92586e-05
-1.08738e-07
1.92594e-05
-1.4128e-07
1.926e-05
-1.80193e-07
1.92603e-05
-2.26099e-07
1.92598e-05
-2.79814e-07
1.92581e-05
-3.42455e-07
1.92548e-05
-4.15589e-07
1.9249e-05
-5.01429e-07
1.92399e-05
-6.03096e-07
1.92266e-05
-7.24959e-07
1.92082e-05
-8.73095e-07
1.9184e-05
-1.05587e-06
1.9154e-05
-1.28462e-06
1.91197e-05
-1.57613e-06
1.90832e-05
-1.94591e-06
-2.45461e-06
1.90632e-05
1.92483e-05
-3.97668e-09
1.92487e-05
-9.41685e-09
1.92493e-05
-1.25173e-08
1.92499e-05
-1.39735e-08
1.92506e-05
-1.45068e-08
1.92512e-05
-1.47329e-08
1.92518e-05
-1.53606e-08
1.92523e-05
-1.67079e-08
1.92526e-05
-1.93526e-08
1.92528e-05
-2.42626e-08
1.92529e-05
-3.23317e-08
1.92528e-05
-4.42155e-08
1.92525e-05
-6.04428e-08
1.9252e-05
-8.1491e-08
1.9251e-05
-1.07796e-07
1.92495e-05
-1.39769e-07
1.92472e-05
-1.77839e-07
1.92436e-05
-2.22512e-07
1.92382e-05
-2.74461e-07
1.92304e-05
-3.34623e-07
1.92191e-05
-4.0435e-07
1.92033e-05
-4.85597e-07
1.91814e-05
-5.81195e-07
1.91516e-05
-6.95186e-07
1.91119e-05
-8.33328e-07
1.90597e-05
-1.00374e-06
1.89928e-05
-1.21765e-06
1.89093e-05
-1.49261e-06
1.88072e-05
-1.84388e-06
-2.34398e-06
1.86966e-05
1.92482e-05
-4.08164e-09
1.92485e-05
-9.70219e-09
1.92489e-05
-1.29272e-08
1.92494e-05
-1.44247e-08
1.92498e-05
-1.49557e-08
1.92503e-05
-1.51527e-08
1.92506e-05
-1.57212e-08
1.92509e-05
-1.69461e-08
1.92509e-05
-1.94078e-08
1.92507e-05
-2.40989e-08
1.92503e-05
-3.19097e-08
1.92496e-05
-4.3466e-08
1.92484e-05
-5.92629e-08
1.92466e-05
-7.97348e-08
1.92441e-05
-1.05258e-07
1.92405e-05
-1.3616e-07
1.92354e-05
-1.72761e-07
1.92283e-05
-2.15426e-07
1.92185e-05
-2.64639e-07
1.9205e-05
-3.21106e-07
1.91865e-05
-3.85878e-07
1.91615e-05
-4.60537e-07
1.91277e-05
-5.47443e-07
1.90826e-05
-6.50062e-07
1.90227e-05
-7.7345e-07
1.89439e-05
-9.24922e-07
1.8841e-05
-1.11481e-06
1.87084e-05
-1.35996e-06
1.8539e-05
-1.67453e-06
-2.13565e-06
1.83307e-05
1.92482e-05
-4.13868e-09
1.92484e-05
-9.86968e-09
1.92486e-05
-1.31804e-08
1.92489e-05
-1.47035e-08
1.92492e-05
-1.52226e-08
1.92494e-05
-1.5382e-08
1.92495e-05
-1.58753e-08
1.92496e-05
-1.69618e-08
1.92494e-05
-1.92073e-08
1.92489e-05
-2.36223e-08
1.9248e-05
-3.10759e-08
1.92467e-05
-4.21525e-08
1.92448e-05
-5.73081e-08
1.9242e-05
-7.69264e-08
1.9238e-05
-1.01313e-07
1.92326e-05
-1.30701e-07
1.92251e-05
-1.65282e-07
1.92149e-05
-2.05255e-07
1.92012e-05
-2.5089e-07
1.91827e-05
-3.02604e-07
1.91579e-05
-3.61079e-07
1.91247e-05
-4.27412e-07
1.90806e-05
-5.03328e-07
1.9022e-05
-5.91465e-07
1.89444e-05
-6.958e-07
1.88417e-05
-8.22254e-07
1.87063e-05
-9.79363e-07
1.8528e-05
-1.1817e-06
1.82945e-05
-1.44103e-06
-1.8301e-06
1.79889e-05
1.92481e-05
-4.15092e-09
1.92482e-05
-9.92628e-09
1.92483e-05
-1.32915e-08
1.92484e-05
-1.48267e-08
1.92485e-05
-1.53317e-08
1.92486e-05
-1.54428e-08
1.92486e-05
-1.58494e-08
1.92484e-05
-1.67946e-08
1.9248e-05
-1.88025e-08
1.92473e-05
-2.2897e-08
1.92461e-05
-2.991e-08
1.92443e-05
-4.03765e-08
1.92417e-05
-5.47097e-08
1.92381e-05
-7.32368e-08
1.92329e-05
-9.61848e-08
1.92259e-05
-1.23682e-07
1.92164e-05
-1.55783e-07
1.92037e-05
-1.92504e-07
1.91866e-05
-2.33873e-07
1.9164e-05
-2.79985e-07
1.9134e-05
-3.31095e-07
1.90943e-05
-3.87723e-07
1.90418e-05
-4.50821e-07
1.89724e-05
-5.21984e-07
1.88803e-05
-6.03768e-07
1.87582e-05
-7.00155e-07
1.85959e-05
-8.17047e-07
1.83793e-05
-9.65109e-07
1.80907e-05
-1.15238e-06
-1.43767e-06
1.76983e-05
1.92481e-05
-4.1221e-09
1.92481e-05
-9.87798e-09
1.9248e-05
-1.32735e-08
1.9248e-05
-1.48158e-08
1.9248e-05
-1.53037e-08
1.92479e-05
-1.53767e-08
1.92478e-05
-1.56704e-08
1.92474e-05
-1.6478e-08
1.92469e-05
-1.82478e-08
1.9246e-05
-2.19924e-08
1.92446e-05
-2.84972e-08
1.92424e-05
-3.82475e-08
1.92393e-05
-5.1611e-08
1.9235e-05
-6.88545e-08
1.92289e-05
-9.01216e-08
1.92206e-05
-1.15432e-07
1.92096e-05
-1.44696e-07
1.91948e-05
-1.77742e-07
1.91753e-05
-2.14342e-07
1.91495e-05
-2.5425e-07
1.91157e-05
-2.97254e-07
1.90712e-05
-3.43242e-07
1.90127e-05
-3.92295e-07
1.89355e-05
-4.4481e-07
1.88334e-05
-5.01661e-07
1.86977e-05
-5.64474e-07
1.85165e-05
-6.35834e-07
1.82725e-05
-7.21153e-07
1.79437e-05
-8.23551e-07
-9.7944e-07
1.74855e-05
1.92481e-05
-4.05617e-09
1.92479e-05
-9.73848e-09
1.92478e-05
-1.31387e-08
1.92477e-05
-1.46873e-08
1.92475e-05
-1.51594e-08
1.92474e-05
-1.52268e-08
1.92471e-05
-1.53783e-08
1.92466e-05
-1.60452e-08
1.9246e-05
-1.75919e-08
1.9245e-05
-2.09768e-08
1.92434e-05
-2.69264e-08
1.9241e-05
-3.58807e-08
1.92376e-05
-4.81628e-08
1.92327e-05
-6.39772e-08
1.9226e-05
-8.33839e-08
1.92168e-05
-1.06294e-07
1.92046e-05
-1.32478e-07
1.91885e-05
-1.61576e-07
1.91672e-05
-1.93106e-07
1.91394e-05
-2.26478e-07
1.91032e-05
-2.61006e-07
1.90559e-05
-2.95924e-07
1.8994e-05
-3.30402e-07
1.89127e-05
-3.63559e-07
1.88055e-05
-3.94462e-07
1.86632e-05
-4.22141e-07
1.84728e-05
-4.45468e-07
1.82154e-05
-4.63765e-07
1.78665e-05
-4.74563e-07
-4.86036e-07
1.73731e-05
1.9248e-05
-3.95672e-09
1.92478e-05
-9.5252e-09
1.92476e-05
-1.29001e-08
1.92474e-05
-1.4467e-08
1.92471e-05
-1.49282e-08
1.92469e-05
-1.49987e-08
1.92465e-05
-1.50211e-08
1.92461e-05
-1.55508e-08
1.92453e-05
-1.68859e-08
1.92443e-05
-1.99136e-08
1.92426e-05
-2.52818e-08
1.92401e-05
-3.33886e-08
1.92365e-05
-4.45143e-08
1.92313e-05
-5.88028e-08
1.92242e-05
-7.6234e-08
1.92145e-05
-9.66177e-08
1.92016e-05
-1.19593e-07
1.91847e-05
-1.44623e-07
1.91625e-05
-1.70991e-07
1.91338e-05
-1.97779e-07
1.90967e-05
-2.23848e-07
1.90486e-05
-2.47798e-07
1.89861e-05
-2.67911e-07
1.89046e-05
-2.82051e-07
1.87976e-05
-2.87484e-07
1.86561e-05
-2.80649e-07
1.84673e-05
-2.56652e-07
1.82121e-05
-2.08578e-07
1.78659e-05
-1.28371e-07
5.3846e-09
1.73745e-05
1.9248e-05
-3.82959e-09
1.92477e-05
-9.25408e-09
1.92474e-05
-1.25782e-08
1.92471e-05
-1.41782e-08
1.92468e-05
-1.46396e-08
1.92465e-05
-1.47046e-08
1.92462e-05
-1.46415e-08
1.92457e-05
-1.50537e-08
1.9245e-05
-1.61807e-08
1.92439e-05
-1.88587e-08
1.92423e-05
-2.36383e-08
1.92397e-05
-3.0875e-08
1.9236e-05
-4.0807e-08
1.92308e-05
-5.35208e-08
1.92234e-05
-6.89245e-08
1.92136e-05
-8.67387e-08
1.92005e-05
-1.06487e-07
1.91833e-05
-1.27482e-07
1.91611e-05
-1.48798e-07
1.91326e-05
-1.69229e-07
1.9096e-05
-1.87234e-07
1.9049e-05
-2.00845e-07
1.89886e-05
-2.07538e-07
1.89106e-05
-2.04038e-07
1.88091e-05
-1.85988e-07
1.8676e-05
-1.47489e-07
1.84993e-05
-8.00141e-08
1.82621e-05
2.86222e-08
1.79419e-05
1.91852e-07
4.56938e-07
1.74904e-05
1.9248e-05
-3.68253e-09
1.92477e-05
-8.94147e-09
1.92473e-05
-1.22051e-08
1.9247e-05
-1.38407e-08
1.92466e-05
-1.43145e-08
1.92463e-05
-1.43798e-08
1.92459e-05
-1.42738e-08
1.92455e-05
-1.45891e-08
1.92448e-05
-1.5525e-08
1.92438e-05
-1.78664e-08
1.92423e-05
-2.20649e-08
1.92398e-05
-2.84349e-08
1.92362e-05
-3.71703e-08
1.9231e-05
-4.83047e-08
1.92237e-05
-6.16868e-08
1.9214e-05
-7.69654e-08
1.9201e-05
-9.35727e-08
1.91843e-05
-1.10701e-07
1.91627e-05
-1.27259e-07
1.91353e-05
-1.41814e-07
1.91006e-05
-1.52496e-07
1.90566e-05
-1.56878e-07
1.90008e-05
-1.51773e-07
1.89298e-05
-1.32956e-07
1.88385e-05
-9.46913e-08
1.87206e-05
-2.96764e-08
1.85659e-05
7.47735e-08
1.83607e-05
2.33741e-07
1.80873e-05
4.65293e-07
8.35139e-07
1.77091e-05
1.9248e-05
-3.52277e-09
1.92476e-05
-8.6138e-09
1.92473e-05
-1.18126e-08
1.92469e-05
-1.34784e-08
1.92466e-05
-1.39829e-08
1.92462e-05
-1.40538e-08
1.92459e-05
-1.39458e-08
1.92455e-05
-1.41824e-08
1.92449e-05
-1.49593e-08
1.92441e-05
-1.69864e-08
1.92426e-05
-2.06233e-08
1.92403e-05
-2.615e-08
1.92369e-05
-3.37142e-08
1.92319e-05
-4.33025e-08
1.92249e-05
-5.47192e-08
1.92155e-05
-6.75624e-08
1.92031e-05
-8.12014e-08
1.91872e-05
-9.47476e-08
1.91669e-05
-1.07002e-07
1.91415e-05
-1.16372e-07
1.91097e-05
-1.20763e-07
1.90703e-05
-1.17424e-07
1.90212e-05
-1.02709e-07
1.896e-05
-7.17489e-08
1.88834e-05
-1.8066e-08
1.87855e-05
6.82072e-08
1.86608e-05
1.99469e-07
1.84993e-05
3.95273e-07
1.8289e-05
6.75565e-07
1.11526e-06
1.80089e-05
1.9248e-05
-3.36113e-09
1.92477e-05
-8.30779e-09
1.92473e-05
-1.14491e-08
1.92469e-05
-1.3115e-08
1.92466e-05
-1.36625e-08
1.92463e-05
-1.37562e-08
1.92461e-05
-1.36784e-08
1.92457e-05
-1.38554e-08
1.92453e-05
-1.45175e-08
1.92446e-05
-1.62552e-08
1.92433e-05
-1.93644e-08
1.92412e-05
-2.40885e-08
1.9238e-05
-3.05289e-08
1.92334e-05
-3.86342e-08
1.92268e-05
-4.81819e-08
1.9218e-05
-5.8743e-08
1.92065e-05
-6.96551e-08
1.91917e-05
-7.99944e-08
1.91732e-05
-8.85151e-08
1.91504e-05
-9.35531e-08
1.91226e-05
-9.29048e-08
1.90888e-05
-8.36416e-08
1.9048e-05
-6.18852e-08
1.89989e-05
-2.27167e-08
1.8939e-05
4.18573e-08
1.88661e-05
1.41093e-07
1.87768e-05
2.88819e-07
1.86664e-05
5.05641e-07
1.85293e-05
8.12625e-07
1.28378e-06
1.83608e-05
1.9248e-05
-3.21662e-09
1.92478e-05
-8.07226e-09
1.92475e-05
-1.11683e-08
1.92471e-05
-1.27866e-08
1.92469e-05
-1.33747e-08
1.92466e-05
-1.35038e-08
1.92464e-05
-1.34822e-08
1.92462e-05
-1.3629e-08
1.92459e-05
-1.42159e-08
1.92453e-05
-1.56919e-08
1.92443e-05
-1.83216e-08
1.92425e-05
-2.22986e-08
1.92396e-05
-2.76779e-08
1.92354e-05
-3.43821e-08
1.92294e-05
-4.21845e-08
1.92213e-05
-5.06533e-08
1.92108e-05
-5.91256e-08
1.91975e-05
-6.66918e-08
1.91811e-05
-7.21259e-08
1.91613e-05
-7.37816e-08
1.91379e-05
-6.94676e-08
1.91105e-05
-5.62867e-08
1.90791e-05
-3.04351e-08
1.90428e-05
1.35005e-08
1.90019e-05
8.28062e-08
1.89559e-05
1.87129e-07
1.89046e-05
3.40119e-07
1.88486e-05
5.61644e-07
1.87883e-05
8.72854e-07
1.33816e-06
1.87339e-05
1.9248e-05
-3.12448e-09
1.9248e-05
-7.98711e-09
1.92478e-05
-1.10234e-08
1.92476e-05
-1.25279e-08
1.92473e-05
-1.31363e-08
1.92471e-05
-1.3324e-08
1.9247e-05
-1.33712e-08
1.92469e-05
-1.35362e-08
1.92468e-05
-1.40595e-08
1.92464e-05
-1.53147e-08
1.92456e-05
-1.75157e-08
1.92441e-05
-2.08092e-08
1.92416e-05
-2.52014e-08
1.92378e-05
-3.05995e-08
1.92325e-05
-3.67993e-08
1.92252e-05
-4.33849e-08
1.92158e-05
-4.97229e-08
1.92041e-05
-5.49688e-08
1.91899e-05
-5.79881e-08
1.91734e-05
-5.72401e-08
1.91546e-05
-5.06656e-08
1.91338e-05
-3.55492e-08
1.91118e-05
-8.41832e-09
1.90891e-05
3.61907e-08
1.90674e-05
1.04568e-07
1.90484e-05
2.06129e-07
1.9035e-05
3.53458e-07
1.90325e-05
5.64178e-07
1.90467e-05
8.58688e-07
1.28508e-06
1.90998e-05
1.92482e-05
-3.15807e-09
1.92484e-05
-8.20854e-09
1.92484e-05
-1.10524e-08
1.92482e-05
-1.23457e-08
1.92481e-05
-1.29541e-08
1.9248e-05
-1.32219e-08
1.92479e-05
-1.33347e-08
1.92479e-05
-1.35428e-08
1.92479e-05
-1.40459e-08
1.92477e-05
-1.5128e-08
1.92472e-05
-1.69602e-08
1.9246e-05
-1.96351e-08
1.92439e-05
-2.31076e-08
1.92406e-05
-2.72884e-08
1.92358e-05
-3.2029e-08
1.92294e-05
-3.69438e-08
1.92211e-05
-4.14584e-08
1.9211e-05
-4.48272e-08
1.91991e-05
-4.60846e-08
1.91857e-05
-4.38744e-08
1.91714e-05
-3.63856e-08
1.91571e-05
-2.12746e-08
1.91441e-05
4.61901e-09
1.91344e-05
4.59071e-08
1.91308e-05
1.0818e-07
1.91372e-05
1.99693e-07
1.91592e-05
3.31479e-07
1.92057e-05
5.17704e-07
1.9287e-05
7.77346e-07
1.13781e-06
1.94343e-05
1.92484e-05
-3.44423e-09
1.92492e-05
-9.01459e-09
1.92495e-05
-1.13213e-08
1.92495e-05
-1.23056e-08
1.92494e-05
-1.28858e-08
1.92494e-05
-1.31988e-08
1.92494e-05
-1.33831e-08
1.92495e-05
-1.36603e-08
1.92497e-05
-1.41797e-08
1.92496e-05
-1.50969e-08
1.92493e-05
-1.66304e-08
1.92484e-05
-1.87713e-08
1.92467e-05
-2.13911e-08
1.92439e-05
-2.44535e-08
1.92397e-05
-2.78879e-08
1.92341e-05
-3.13004e-08
1.92269e-05
-3.42654e-08
1.92182e-05
-3.61504e-08
1.92084e-05
-3.62308e-08
1.91979e-05
-3.33969e-08
1.91877e-05
-2.61821e-08
1.91792e-05
-1.27337e-08
1.91743e-05
9.50994e-09
1.9176e-05
4.41395e-08
1.91886e-05
9.56517e-08
1.92173e-05
1.7093e-07
1.92698e-05
2.79012e-07
1.93578e-05
4.29692e-07
1.94956e-05
6.39536e-07
9.13418e-07
1.972e-05
1.9249e-05
-4.29551e-09
1.92505e-05
-1.05517e-08
1.92509e-05
-1.17164e-08
1.92511e-05
-1.24625e-08
1.92511e-05
-1.29617e-08
1.92512e-05
-1.32523e-08
1.92513e-05
-1.35003e-08
1.92515e-05
-1.38743e-08
1.92518e-05
-1.44499e-08
1.9252e-05
-1.53137e-08
1.92519e-05
-1.65187e-08
1.92512e-05
-1.80642e-08
1.92498e-05
-1.9953e-08
1.92474e-05
-2.20583e-08
1.92438e-05
-2.43685e-08
1.9239e-05
-2.64057e-08
1.92327e-05
-2.79796e-08
1.92253e-05
-2.87635e-08
1.92173e-05
-2.82034e-08
1.92093e-05
-2.54626e-08
1.92026e-05
-1.94788e-08
1.9199e-05
-9.08225e-09
1.9201e-05
7.50133e-09
1.92122e-05
3.28832e-08
1.92384e-05
6.94375e-08
1.92857e-05
1.23628e-07
1.93626e-05
2.02141e-07
1.94828e-05
3.09461e-07
1.96641e-05
4.58234e-07
6.3137e-07
1.99462e-05
1.92517e-05
-7.91119e-09
1.92538e-05
-1.2553e-08
1.92547e-05
-1.26176e-08
1.92551e-05
-1.28617e-08
1.92553e-05
-1.31942e-08
1.92554e-05
-1.33919e-08
1.92554e-05
-1.3526e-08
1.92553e-05
-1.37237e-08
1.92549e-05
-1.40495e-08
1.92541e-05
-1.45516e-08
1.92529e-05
-1.52583e-08
1.9251e-05
-1.61598e-08
1.92483e-05
-1.72509e-08
1.92447e-05
-1.84683e-08
1.92401e-05
-1.98404e-08
1.92347e-05
-2.09889e-08
1.92286e-05
-2.18101e-08
1.9222e-05
-2.22222e-08
1.92157e-05
-2.18702e-08
1.92105e-05
-2.03169e-08
1.9208e-05
-1.69266e-08
1.92098e-05
-1.08982e-08
1.92189e-05
-1.5658e-09
1.92383e-05
1.34647e-08
1.92715e-05
3.61906e-08
1.93282e-05
6.69222e-08
1.94215e-05
1.08855e-07
1.95643e-05
1.66658e-07
1.97733e-05
2.49308e-07
3.20519e-07
2.00841e-05
1.92402e-05
1.92277e-05
1.92151e-05
1.92022e-05
1.9189e-05
1.91756e-05
1.91621e-05
1.91484e-05
1.91343e-05
1.91198e-05
1.91045e-05
1.90883e-05
1.90711e-05
1.90526e-05
1.90328e-05
1.90118e-05
1.899e-05
1.89678e-05
1.89459e-05
1.89256e-05
1.89086e-05
1.88977e-05
1.88962e-05
1.89096e-05
1.89458e-05
1.90128e-05
1.91216e-05
1.92883e-05
1.95376e-05
1.98581e-05
2.04034e-05
-9.62796e-06
1.00629e-05
1.99579e-05
-9.71429e-06
1.01598e-05
1.94882e-05
-9.79352e-06
1.02632e-05
1.89933e-05
-9.86295e-06
1.03578e-05
1.84787e-05
-9.92963e-06
1.04442e-05
1.79491e-05
-9.997e-06
1.05266e-05
1.74078e-05
-1.00655e-05
1.06068e-05
1.68571e-05
-1.01358e-05
1.06865e-05
1.62986e-05
-1.02086e-05
1.07671e-05
1.57331e-05
-1.02846e-05
1.08501e-05
1.51606e-05
-1.03641e-05
1.09366e-05
1.45808e-05
-1.04474e-05
1.10272e-05
1.39929e-05
-1.05347e-05
1.11225e-05
1.33964e-05
-1.06266e-05
1.12232e-05
1.27905e-05
-1.07241e-05
1.133e-05
1.21743e-05
-1.0828e-05
1.14442e-05
1.15469e-05
-1.09398e-05
1.15673e-05
1.09067e-05
-1.10609e-05
1.17011e-05
1.02518e-05
-1.1193e-05
1.18478e-05
9.57983e-06
-1.13383e-05
1.20103e-05
8.88731e-06
-1.14993e-05
1.21919e-05
8.16986e-06
-1.16794e-05
1.23968e-05
7.42154e-06
-1.18822e-05
1.26306e-05
6.63416e-06
-1.21132e-05
1.29005e-05
5.79644e-06
-1.23769e-05
1.32146e-05
4.89218e-06
-1.2684e-05
1.35882e-05
3.90207e-06
-1.30323e-05
1.40224e-05
2.77385e-06
-1.34621e-05
1.45903e-05
1.54249e-06
-1.38606e-05
1.50919e-05
-1.47158e-05
1.62583e-05
2.05311e-05
-9.16004e-06
2.00342e-05
-9.21741e-06
1.95172e-05
-9.2765e-06
1.89886e-05
-9.33435e-06
1.84521e-05
-9.39313e-06
1.79094e-05
-9.45429e-06
1.73614e-05
-9.51748e-06
1.68083e-05
-9.58273e-06
1.625e-05
-9.65022e-06
1.56855e-05
-9.72013e-06
1.5114e-05
-9.79267e-06
1.45348e-05
-9.86816e-06
1.39472e-05
-9.94707e-06
1.33506e-05
-1.00301e-05
1.27444e-05
-1.01179e-05
1.21277e-05
-1.02114e-05
1.14994e-05
-1.03115e-05
1.08578e-05
-1.04193e-05
1.0201e-05
-1.05362e-05
9.52624e-06
-1.06636e-05
8.83021e-06
-1.08033e-05
8.10843e-06
-1.09576e-05
7.35505e-06
-1.11289e-05
6.56213e-06
-1.13202e-05
5.71916e-06
-1.15339e-05
4.81144e-06
-1.17762e-05
3.81955e-06
-1.20404e-05
2.71322e-06
-1.23558e-05
1.48317e-06
-1.26305e-05
-1.32326e-05
2.04539e-05
-8.65843e-06
1.99413e-05
-8.70485e-06
1.94194e-05
-8.75465e-06
1.88924e-05
-8.80728e-06
1.83611e-05
-8.86182e-06
1.78246e-05
-8.91782e-06
1.72823e-05
-8.97514e-06
1.67334e-05
-9.03391e-06
1.61776e-05
-9.09438e-06
1.56143e-05
-9.15683e-06
1.50432e-05
-9.22159e-06
1.44641e-05
-9.28902e-06
1.38766e-05
-9.35955e-06
1.32802e-05
-9.43365e-06
1.26741e-05
-9.51184e-06
1.20574e-05
-9.59467e-06
1.14287e-05
-9.68279e-06
1.07864e-05
-9.77695e-06
1.01282e-05
-9.87803e-06
9.45169e-06
-9.98701e-06
8.75333e-06
-1.0105e-05
8.02879e-06
-1.02331e-05
7.27236e-06
-1.03724e-05
6.47651e-06
-1.05244e-05
5.63146e-06
-1.06889e-05
4.72372e-06
-1.08685e-05
3.7362e-06
-1.10528e-05
2.64519e-06
-1.12648e-05
1.42561e-06
-1.14109e-05
-1.1807e-05
2.03747e-05
-8.15079e-06
1.98605e-05
-8.19061e-06
1.93392e-05
-8.23341e-06
1.88123e-05
-8.28034e-06
1.82798e-05
-8.32937e-06
1.77412e-05
-8.37921e-06
1.7196e-05
-8.42996e-06
1.66442e-05
-8.48206e-06
1.60856e-05
-8.5358e-06
1.55202e-05
-8.59137e-06
1.49475e-05
-8.64896e-06
1.43673e-05
-8.70881e-06
1.3779e-05
-8.77119e-06
1.31817e-05
-8.83638e-06
1.25746e-05
-8.90472e-06
1.19565e-05
-8.97656e-06
1.1326e-05
-9.05233e-06
1.06815e-05
-9.13246e-06
1.00209e-05
-9.21741e-06
9.3415e-06
-9.30763e-06
8.64005e-06
-9.4035e-06
7.91229e-06
-9.5053e-06
7.15284e-06
-9.61298e-06
6.3547e-06
-9.72625e-06
5.50908e-06
-9.84323e-06
4.60394e-06
-9.96334e-06
3.62515e-06
-1.00741e-05
2.55203e-06
-1.01917e-05
1.35932e-06
-1.02182e-05
-1.04477e-05
2.02646e-05
-7.63831e-06
1.97465e-05
-7.6725e-06
1.92222e-05
-7.70912e-06
1.86923e-05
-7.75048e-06
1.8157e-05
-7.7941e-06
1.76161e-05
-7.83824e-06
1.70691e-05
-7.88303e-06
1.65161e-05
-7.92901e-06
1.59567e-05
-7.97639e-06
1.53905e-05
-8.02523e-06
1.48172e-05
-8.07561e-06
1.42361e-05
-8.12769e-06
1.36465e-05
-8.18164e-06
1.30478e-05
-8.23764e-06
1.24389e-05
-8.29586e-06
1.18189e-05
-8.35649e-06
1.11862e-05
-8.41969e-06
1.05393e-05
-8.48558e-06
9.87617e-06
-8.55424e-06
9.19414e-06
-8.6256e-06
8.49007e-06
-8.69943e-06
7.76e-06
-8.77522e-06
6.99897e-06
-8.85195e-06
6.2007e-06
-8.92798e-06
5.35744e-06
-8.99998e-06
4.45886e-06
-9.06475e-06
3.49346e-06
-9.10865e-06
2.44292e-06
-9.14112e-06
1.2881e-06
-9.06341e-06
-9.15955e-06
2.01239e-05
-7.12191e-06
1.96026e-05
-7.15112e-06
1.90756e-05
-7.18218e-06
1.85434e-05
-7.21827e-06
1.8006e-05
-7.25666e-06
1.7463e-05
-7.29527e-06
1.69142e-05
-7.33422e-06
1.63593e-05
-7.37408e-06
1.57979e-05
-7.41503e-06
1.52297e-05
-7.45703e-06
1.46542e-05
-7.50012e-06
1.40709e-05
-7.54436e-06
1.3479e-05
-7.58983e-06
1.2878e-05
-7.63659e-06
1.22668e-05
-7.68465e-06
1.16443e-05
-7.734e-06
1.10092e-05
-7.78456e-06
1.03598e-05
-7.83618e-06
9.6941e-06
-7.88856e-06
9.00974e-06
-7.94124e-06
8.30376e-06
-7.99345e-06
7.57253e-06
-8.044e-06
6.81166e-06
-8.09107e-06
6.01565e-06
-8.13198e-06
5.17795e-06
-8.16227e-06
4.28996e-06
-8.17677e-06
3.3427e-06
-8.1614e-06
2.32075e-06
-8.11916e-06
1.21293e-06
-7.95559e-06
-7.94662e-06
1.99495e-05
-6.60164e-06
1.94247e-05
-6.62626e-06
1.88946e-05
-6.65216e-06
1.83595e-05
-6.68316e-06
1.78193e-05
-6.71639e-06
1.72736e-05
-6.74956e-06
1.67221e-05
-6.78275e-06
1.61646e-05
-6.81657e-06
1.56007e-05
-6.85115e-06
1.50301e-05
-6.88639e-06
1.44522e-05
-6.92222e-06
1.38665e-05
-6.95865e-06
1.32723e-05
-6.99566e-06
1.26689e-05
-7.03316e-06
1.20552e-05
-7.07105e-06
1.14304e-05
-7.10912e-06
1.07929e-05
-7.1471e-06
1.01413e-05
-7.1846e-06
9.47379e-06
-7.22102e-06
8.78808e-06
-7.25553e-06
8.08155e-06
-7.28692e-06
7.35103e-06
-7.31348e-06
6.59272e-06
-7.33276e-06
5.80204e-06
-7.3413e-06
4.97364e-06
-7.33386e-06
4.10076e-06
-7.30389e-06
3.17679e-06
-7.23744e-06
2.18977e-06
-7.13214e-06
1.13668e-06
-6.9025e-06
-6.80994e-06
1.97384e-05
-6.07738e-06
1.92099e-05
-6.09774e-06
1.86766e-05
-6.11882e-06
1.81383e-05
-6.1449e-06
1.7595e-05
-6.17305e-06
1.70463e-05
-6.20089e-06
1.6492e-05
-6.22843e-06
1.59317e-05
-6.25629e-06
1.53651e-05
-6.28456e-06
1.47918e-05
-6.31309e-06
1.42113e-05
-6.34172e-06
1.3623e-05
-6.37039e-06
1.30264e-05
-6.39898e-06
1.24205e-05
-6.42731e-06
1.18046e-05
-6.45515e-06
1.11776e-05
-6.48214e-06
1.05384e-05
-6.50785e-06
9.88542e-06
-6.53165e-06
9.21712e-06
-6.55272e-06
8.53151e-06
-6.56992e-06
7.82632e-06
-6.58172e-06
7.09884e-06
-6.58601e-06
6.34598e-06
-6.5799e-06
5.56406e-06
-6.55938e-06
4.74899e-06
-6.51879e-06
3.89582e-06
-6.45071e-06
3.00017e-06
-6.34179e-06
2.05361e-06
-6.18558e-06
1.05964e-06
-5.90853e-06
-5.75031e-06
1.94888e-05
-5.54903e-06
1.89565e-05
-5.56544e-06
1.84197e-05
-5.58204e-06
1.78781e-05
-5.60335e-06
1.73316e-05
-5.62652e-06
1.67798e-05
-5.64911e-06
1.62225e-05
-5.67112e-06
1.56593e-05
-5.69313e-06
1.509e-05
-5.7152e-06
1.4514e-05
-5.73712e-06
1.3931e-05
-5.75869e-06
1.33403e-05
-5.77974e-06
1.27415e-05
-5.80011e-06
1.21337e-05
-5.81952e-06
1.15162e-05
-5.83761e-06
1.08879e-05
-5.85392e-06
1.0248e-05
-5.86787e-06
9.59497e-06
-5.87866e-06
8.92754e-06
-5.88529e-06
8.24402e-06
-5.8864e-06
7.54252e-06
-5.88022e-06
6.8209e-06
-5.86439e-06
6.07673e-06
-5.83573e-06
5.3073e-06
-5.78996e-06
4.50973e-06
-5.72122e-06
3.68076e-06
-5.62174e-06
2.81805e-06
-5.47909e-06
1.91647e-06
-5.28399e-06
9.84457e-07
-4.97651e-06
-4.76585e-06
1.92005e-05
-5.01665e-06
1.86645e-05
-5.0294e-06
1.81243e-05
-5.04188e-06
1.75795e-05
-5.0586e-06
1.70299e-05
-5.07687e-06
1.64751e-05
-5.09437e-06
1.5915e-05
-5.11101e-06
1.53492e-05
-5.12734e-06
1.47774e-05
-5.14339e-06
1.41992e-05
-5.1589e-06
1.36141e-05
-5.17362e-06
1.30217e-05
-5.18734e-06
1.24214e-05
-5.1998e-06
1.18126e-05
-5.21067e-06
1.11945e-05
-5.21949e-06
1.05663e-05
-5.22572e-06
9.92705e-06
-5.22865e-06
9.27578e-06
-5.22739e-06
8.61126e-06
-5.22077e-06
7.93219e-06
-5.20733e-06
7.23709e-06
-5.18513e-06
6.52438e-06
-5.15167e-06
5.79232e-06
-5.10366e-06
5.03911e-06