/*--------------------------------*- C++ -*----------------------------------*\
  =========                 |
  \\      /  F ield         | OpenFOAM: The Open Source CFD Toolbox
   \\    /   O peration     | Website:  https://openfoam.org
    \\  /    A nd           | Version:  11
     \\/     M anipulation  |
\*---------------------------------------------------------------------------*/
FoamFile
{
    format      ascii;
    class       volVectorField;
    location    "7.9";
    object      U;
}
// * * * * * * * * * * * * * * * * * * * * * * * * * * * * * * * * * * * * * //

dimensions      [0 1 -1 0 0 0 0];

internalField   nonuniform List<vector> 
12600
(
(0.412112 0.000106147 0)
(0.411841 0.000180341 0)
(0.411428 0.000190971 0)
(0.410958 0.000194153 0)
(0.410492 0.000198548 0)
(0.410035 0.000201431 0)
(0.409583 0.000202854 0)
(0.409131 0.000203555 0)
(0.408682 0.000203712 0)
(0.408239 0.00020329 0)
(0.407803 0.00020225 0)
(0.407376 0.000200497 0)
(0.406962 0.000197852 0)
(0.406563 0.000194196 0)
(0.406183 0.00018952 0)
(0.405825 0.000183518 0)
(0.405496 0.000175717 0)
(0.4052 0.000165873 0)
(0.404945 0.000154039 0)
(0.404743 0.000139678 0)
(0.404605 0.000123222 0)
(0.404545 0.0001024 0)
(0.404581 7.50902e-05 0)
(0.404736 3.50348e-05 0)
(0.40504 -1.35433e-05 0)
(0.405528 -6.85561e-05 0)
(0.406249 -0.000139026 0)
(0.407258 -0.000224671 0)
(0.408744 -0.000361924 0)
(0.409648 -0.000880148 0)
(0.412492 0.00015407 0)
(0.412638 0.000281208 0)
(0.412773 0.000262761 0)
(0.412825 0.000254298 0)
(0.412871 0.000256396 0)
(0.412925 0.000256317 0)
(0.412983 0.000254015 0)
(0.413042 0.000250671 0)
(0.413104 0.000246294 0)
(0.413171 0.000240595 0)
(0.413245 0.000233402 0)
(0.413327 0.000224515 0)
(0.413422 0.000213508 0)
(0.41353 0.000200018 0)
(0.413656 0.000183491 0)
(0.413803 0.000163049 0)
(0.413976 0.000140066 0)
(0.41418 0.000112211 0)
(0.414422 7.62832e-05 0)
(0.414711 3.25974e-05 0)
(0.415058 -2.11614e-05 0)
(0.415474 -8.75618e-05 0)
(0.415978 -0.000168489 0)
(0.416585 -0.000266466 0)
(0.417325 -0.000386553 0)
(0.418202 -0.000537463 0)
(0.419335 -0.000724019 0)
(0.420485 -0.000986179 0)
(0.42239 -0.00130218 0)
(0.422973 -0.00213547 0)
(0.41248 8.49248e-05 0)
(0.412554 0.000152361 0)
(0.412645 0.000155834 0)
(0.412712 0.000156447 0)
(0.412764 0.000161558 0)
(0.412818 0.000163407 0)
(0.412877 0.000161601 0)
(0.412938 0.000158017 0)
(0.413002 0.000152739 0)
(0.413069 0.000145243 0)
(0.413141 0.000135184 0)
(0.413222 0.000122272 0)
(0.413313 0.000105956 0)
(0.413418 8.61702e-05 0)
(0.413539 6.14295e-05 0)
(0.413681 3.20132e-05 0)
(0.413848 -4.89745e-06 0)
(0.414043 -5.16123e-05 0)
(0.414275 -0.000108092 0)
(0.414548 -0.000176631 0)
(0.414875 -0.000260575 0)
(0.415266 -0.000363531 0)
(0.415739 -0.000490049 0)
(0.41631 -0.000646394 0)
(0.417006 -0.000838115 0)
(0.417849 -0.00107829 0)
(0.418881 -0.00136609 0)
(0.420119 -0.00175001 0)
(0.421565 -0.00223356 0)
(0.423308 -0.00262589 0)
(0.412472 5.5702e-05 0)
(0.412522 0.000130994 0)
(0.412595 0.000157612 0)
(0.412659 0.000164524 0)
(0.41271 0.000171389 0)
(0.412761 0.000174037 0)
(0.412817 0.000172179 0)
(0.412876 0.000167948 0)
(0.412938 0.000161449 0)
(0.413003 0.000152195 0)
(0.413074 0.000139464 0)
(0.413153 0.000122508 0)
(0.413242 9.92399e-05 0)
(0.413344 7.04268e-05 0)
(0.413462 3.57474e-05 0)
(0.4136 -5.91743e-06 0)
(0.413761 -5.65836e-05 0)
(0.413951 -0.000117895 0)
(0.414175 -0.000192792 0)
(0.41444 -0.000284822 0)
(0.414756 -0.000398091 0)
(0.415134 -0.000537756 0)
(0.415591 -0.000710032 0)
(0.416143 -0.000922415 0)
(0.416814 -0.00118322 0)
(0.417629 -0.00150529 0)
(0.418618 -0.00189947 0)
(0.419819 -0.00238653 0)
(0.421232 -0.00299247 0)
(0.423079 -0.00342812 0)
(0.412468 3.99547e-05 0)
(0.412502 0.000100804 0)
(0.412559 0.000124713 0)
(0.412615 0.000127928 0)
(0.412664 0.000127505 0)
(0.412714 0.000126161 0)
(0.412768 0.000122038 0)
(0.412825 0.000114927 0)
(0.412885 0.000105015 0)
(0.412949 9.14532e-05 0)
(0.413018 7.39233e-05 0)
(0.413095 5.13636e-05 0)
(0.413181 2.26219e-05 0)
(0.413281 -1.36319e-05 0)
(0.413395 -5.79131e-05 0)
(0.413528 -0.000110921 0)
(0.413683 -0.000174423 0)
(0.413865 -0.00025146 0)
(0.41408 -0.000345775 0)
(0.414334 -0.000461569 0)
(0.414636 -0.000603882 0)
(0.414999 -0.000779011 0)
(0.415435 -0.000994656 0)
(0.415962 -0.00126021 0)
(0.416602 -0.00158665 0)
(0.417379 -0.00198809 0)
(0.41832 -0.00247991 0)
(0.419476 -0.00307324 0)
(0.420833 -0.00381287 0)
(0.422686 -0.00447394 0)
(0.412466 2.93613e-05 0)
(0.41249 7.68424e-05 0)
(0.412535 9.99447e-05 0)
(0.412585 0.000105449 0)
(0.412633 0.000106284 0)
(0.412681 0.000105818 0)
(0.412733 0.000102588 0)
(0.412788 9.59569e-05 0)
(0.412847 8.59112e-05 0)
(0.412908 7.18132e-05 0)
(0.412976 5.24097e-05 0)
(0.41305 2.6281e-05 0)
(0.413133 -6.49458e-06 0)
(0.413228 -4.82454e-05 0)
(0.413337 -9.9873e-05 0)
(0.413464 -0.000162436 0)
(0.413612 -0.000237857 0)
(0.413785 -0.00032935 0)
(0.413989 -0.000441003 0)
(0.414229 -0.000577885 0)
(0.414515 -0.000746315 0)
(0.414857 -0.000954037 0)
(0.415268 -0.00121029 0)
(0.415765 -0.00152606 0)
(0.416366 -0.00191441 0)
(0.417098 -0.00239105 0)
(0.417983 -0.00297518 0)
(0.419078 -0.0036785 0)
(0.420365 -0.00456039 0)
(0.422167 -0.00542687 0)
(0.412464 2.20174e-05 0)
(0.412482 5.86197e-05 0)
(0.412519 7.8643e-05 0)
(0.412564 8.38398e-05 0)
(0.412609 8.2727e-05 0)
(0.412655 7.93852e-05 0)
(0.412704 7.3502e-05 0)
(0.412757 6.43021e-05 0)
(0.412813 5.13459e-05 0)
(0.412872 3.36977e-05 0)
(0.412936 1.00343e-05 0)
(0.413007 -2.14252e-05 0)
(0.413087 -6.11037e-05 0)
(0.413177 -0.00011019 0)
(0.413281 -0.000170149 0)
(0.413401 -0.000242732 0)
(0.41354 -0.000330158 0)
(0.413703 -0.000435884 0)
(0.413893 -0.000564667 0)
(0.414118 -0.000722462 0)
(0.414385 -0.000916504 0)
(0.414703 -0.00115553 0)
(0.415085 -0.00145005 0)
(0.415546 -0.0018127 0)
(0.416104 -0.00225866 0)
(0.416782 -0.00280592 0)
(0.417603 -0.00347709 0)
(0.418623 -0.00428891 0)
(0.419823 -0.00530364 0)
(0.421532 -0.00637669 0)
(0.412463 1.65836e-05 0)
(0.412478 4.41001e-05 0)
(0.412508 5.96951e-05 0)
(0.412548 6.324e-05 0)
(0.41259 6.03699e-05 0)
(0.412633 5.51419e-05 0)
(0.41268 4.79233e-05 0)
(0.412731 3.77711e-05 0)
(0.412784 2.37356e-05 0)
(0.412841 4.61902e-06 0)
(0.412903 -2.10801e-05 0)
(0.41297 -5.48273e-05 0)
(0.413046 -9.85956e-05 0)
(0.413131 -0.000153061 0)
(0.413228 -0.000219685 0)
(0.41334 -0.000300338 0)
(0.41347 -0.00039759 0)
(0.41362 -0.000515284 0)
(0.413797 -0.000658652 0)
(0.414004 -0.000834328 0)
(0.414248 -0.00105049 0)
(0.41454 -0.00131703 0)
(0.414889 -0.00164579 0)
(0.415309 -0.0020509 0)
(0.415817 -0.00254939 0)
(0.416434 -0.00316152 0)
(0.417181 -0.00391315 0)
(0.418113 -0.00482698 0)
(0.419208 -0.00596736 0)
(0.420795 -0.00723501 0)
(0.412463 1.23159e-05 0)
(0.412474 3.21671e-05 0)
(0.4125 4.30083e-05 0)
(0.412535 4.426e-05 0)
(0.412575 3.96343e-05 0)
(0.412616 3.25674e-05 0)
(0.41266 2.36905e-05 0)
(0.412708 1.20061e-05 0)
(0.412759 -3.78028e-06 0)
(0.412813 -2.51508e-05 0)
(0.412871 -5.38312e-05 0)
(0.412935 -9.14812e-05 0)
(0.413006 -0.0001399 0)
(0.413085 -0.000200126 0)
(0.413176 -0.000273613 0)
(0.413279 -0.000362415 0)
(0.413398 -0.000469411 0)
(0.413535 -0.000598756 0)
(0.413695 -0.00075614 0)
(0.413882 -0.000948856 0)
(0.414103 -0.00118586 0)
(0.414365 -0.00147792 0)
(0.414678 -0.00183795 0)
(0.415053 -0.00228143 0)
(0.415505 -0.00282714 0)
(0.416054 -0.00349775 0)
(0.416719 -0.00432223 0)
(0.417549 -0.00532983 0)
(0.418523 -0.00658495 0)
(0.419961 -0.00803622 0)
(0.412462 8.80865e-06 0)
(0.412472 2.21164e-05 0)
(0.412495 2.82788e-05 0)
(0.412526 2.67943e-05 0)
(0.412562 2.01978e-05 0)
(0.412601 1.12348e-05 0)
(0.412643 6.28124e-07 0)
(0.412688 -1.25709e-05 0)
(0.412737 -2.98818e-05 0)
(0.412788 -5.30466e-05 0)
(0.412843 -8.39838e-05 0)
(0.412902 -0.000124546 0)
(0.412968 -0.000176491 0)
(0.413041 -0.000241167 0)
(0.413124 -0.000320097 0)
(0.413218 -0.000415438 0)
(0.413325 -0.000530301 0)
(0.413448 -0.000669153 0)
(0.413591 -0.000838083 0)
(0.413757 -0.0010449 0)
(0.413952 -0.00129925 0)
(0.414181 -0.00161273 0)
(0.414454 -0.00199926 0)
(0.414781 -0.00247556 0)
(0.415173 -0.00306196 0)
(0.415648 -0.00378327 0)
(0.416221 -0.00467128 0)
(0.416939 -0.00576136 0)
(0.417775 -0.00711788 0)
(0.419037 -0.0087343 0)
(0.412462 5.81709e-06 0)
(0.412471 1.34356e-05 0)
(0.41249 1.51396e-05 0)
(0.412519 1.06944e-05 0)
(0.412552 1.98244e-06 0)
(0.412589 -8.82689e-06 0)
(0.412629 -2.10767e-05 0)
(0.412671 -3.56977e-05 0)
(0.412716 -5.44046e-05 0)
(0.412764 -7.91907e-05 0)
(0.412816 -0.000112168 0)
(0.412871 -0.000155349 0)
(0.412931 -0.000210532 0)
(0.412998 -0.000279222 0)
(0.413072 -0.000363039 0)
(0.413156 -0.000464233 0)
(0.413251 -0.000586099 0)
(0.413359 -0.00073335 0)
(0.413483 -0.000912405 0)
(0.413626 -0.00113152 0)
(0.413793 -0.00140089 0)
(0.413989 -0.00173279 0)
(0.41422 -0.00214192 0)
(0.414494 -0.00264597 0)
(0.414822 -0.0032666 0)
(0.415217 -0.00403049 0)
(0.415692 -0.00497188 0)
(0.416286 -0.00613173 0)
(0.416972 -0.00757372 0)
(0.418032 -0.00933489 0)
(0.412462 3.16171e-06 0)
(0.41247 5.73094e-06 0)
(0.412487 3.26011e-06 0)
(0.412513 -4.19801e-06 0)
(0.412544 -1.5066e-05 0)
(0.412579 -2.76328e-05 0)
(0.412616 -4.14273e-05 0)
(0.412656 -5.7406e-05 0)
(0.412698 -7.74004e-05 0)
(0.412743 -0.000103604 0)
(0.41279 -0.000138298 0)
(0.412841 -0.000183621 0)
(0.412896 -0.000241429 0)
(0.412956 -0.000313326 0)
(0.413021 -0.000401012 0)
(0.413095 -0.00050682 0)
(0.413176 -0.000634178 0)
(0.413269 -0.000788004 0)
(0.413373 -0.000974982 0)
(0.413493 -0.00120371 0)
(0.41363 -0.00148481 0)
(0.41379 -0.00183107 0)
(0.413977 -0.00225781 0)
(0.414197 -0.00278351 0)
(0.414457 -0.00343083 0)
(0.414768 -0.00422794 0)
(0.415138 -0.00521099 0)
(0.415599 -0.0064256 0)
(0.416123 -0.00793444 0)
(0.416959 -0.00981383 0)
(0.412462 8.28846e-07 0)
(0.412469 -1.17741e-06 0)
(0.412485 -7.59247e-06 0)
(0.412509 -1.80146e-05 0)
(0.412538 -3.10363e-05 0)
(0.41257 -4.52909e-05 0)
(0.412605 -6.05006e-05 0)
(0.412642 -7.76972e-05 0)
(0.412682 -9.88111e-05 0)
(0.412723 -0.000126184 0)
(0.412767 -0.000162238 0)
(0.412813 -0.000209215 0)
(0.412862 -0.000269038 0)
(0.412914 -0.000343377 0)
(0.412971 -0.000434003 0)
(0.413033 -0.000543311 0)
(0.413102 -0.000674831 0)
(0.413177 -0.000833623 0)
(0.413262 -0.00102656 0)
(0.413357 -0.00126249 0)
(0.413464 -0.00155231 0)
(0.413587 -0.00190918 0)
(0.413727 -0.00234882 0)
(0.413891 -0.00289021 0)
(0.414081 -0.0035567 0)
(0.414304 -0.00437744 0)
(0.414565 -0.00538988 0)
(0.414887 -0.00664311 0)
(0.41524 -0.00819823 0)
(0.415831 -0.0101654 0)
(0.412462 -1.53876e-06 0)
(0.412468 -7.42475e-06 0)
(0.412483 -1.75307e-05 0)
(0.412506 -3.08781e-05 0)
(0.412533 -4.60089e-05 0)
(0.412563 -6.18455e-05 0)
(0.412596 -7.83302e-05 0)
(0.412631 -9.65899e-05 0)
(0.412667 -0.00011863 0)
(0.412705 -0.000146904 0)
(0.412745 -0.000183943 0)
(0.412786 -0.000232074 0)
(0.412829 -0.000293275 0)
(0.412874 -0.000369262 0)
(0.412922 -0.000461852 0)
(0.412973 -0.000573482 0)
(0.413027 -0.000707732 0)
(0.413086 -0.000869747 0)
(0.41315 -0.00106651 0)
(0.413219 -0.00130699 0)
(0.413296 -0.00160227 0)
(0.41338 -0.00196566 0)
(0.413475 -0.00241311 0)
(0.41358 -0.00296382 0)
(0.413698 -0.00364143 0)
(0.413832 -0.00447558 0)
(0.413981 -0.00550424 0)
(0.414159 -0.00677862 0)
(0.414336 -0.00835753 0)
(0.414669 -0.0103775 0)
(0.412461 -3.59259e-06 0)
(0.412468 -1.33601e-05 0)
(0.412482 -2.69935e-05 0)
(0.412503 -4.30273e-05 0)
(0.412529 -6.00965e-05 0)
(0.412557 -7.73609e-05 0)
(0.412588 -9.49586e-05 0)
(0.41262 -0.000114107 0)
(0.412654 -0.000136861 0)
(0.412689 -0.000165745 0)
(0.412724 -0.000203378 0)
(0.41276 -0.000252151 0)
(0.412797 -0.00031408 0)
(0.412835 -0.000390907 0)
(0.412874 -0.000484467 0)
(0.412913 -0.000597212 0)
(0.412954 -0.000732739 0)
(0.412995 -0.000896218 0)
(0.413038 -0.00109466 0)
(0.413082 -0.00133708 0)
(0.413128 -0.00163456 0)
(0.413174 -0.00200044 0)
(0.413221 -0.00245065 0)
(0.413268 -0.00300433 0)
(0.413314 -0.00368503 0)
(0.413357 -0.00452227 0)
(0.413394 -0.00555379 0)
(0.413427 -0.00683133 0)
(0.413425 -0.00841062 0)
(0.413493 -0.0104455 0)
(0.412461 -5.55568e-06 0)
(0.412468 -1.912e-05 0)
(0.412481 -3.60029e-05 0)
(0.412502 -5.45501e-05 0)
(0.412526 -7.34027e-05 0)
(0.412553 -9.19273e-05 0)
(0.412582 -0.000110459 0)
(0.412612 -0.000130297 0)
(0.412643 -0.000153523 0)
(0.412674 -0.000182708 0)
(0.412705 -0.000220532 0)
(0.412737 -0.00026943 0)
(0.412768 -0.000331431 0)
(0.412798 -0.000408279 0)
(0.412827 -0.000501805 0)
(0.412855 -0.000614453 0)
(0.412882 -0.000749799 0)
(0.412907 -0.00091298 0)
(0.412929 -0.00111096 0)
(0.412947 -0.00135267 0)
(0.412961 -0.00164909 0)
(0.412969 -0.0020134 0)
(0.412969 -0.00246129 0)
(0.412958 -0.00301157 0)
(0.412932 -0.00368731 0)
(0.412886 -0.00451732 0)
(0.412812 -0.00553828 0)
(0.412701 -0.00680087 0)
(0.412523 -0.00835685 0)
(0.412326 -0.0103672 0)
(0.412461 -7.49565e-06 0)
(0.412468 -2.47622e-05 0)
(0.412481 -4.47765e-05 0)
(0.412501 -6.56479e-05 0)
(0.412525 -8.60611e-05 0)
(0.41255 -0.000105629 0)
(0.412577 -0.000124886 0)
(0.412605 -0.000145193 0)
(0.412633 -0.00016864 0)
(0.412661 -0.000197821 0)
(0.412689 -0.000235443 0)
(0.412715 -0.000283951 0)
(0.41274 -0.000345362 0)
(0.412763 -0.000421405 0)
(0.412783 -0.00051389 0)
(0.4128 -0.000625227 0)
(0.412813 -0.000758936 0)
(0.41282 -0.000920064 0)
(0.412822 -0.00111545 0)
(0.412815 -0.00135384 0)
(0.412798 -0.00164599 0)
(0.412768 -0.00200474 0)
(0.412722 -0.00244535 0)
(0.412654 -0.00298602 0)
(0.412558 -0.00364894 0)
(0.412425 -0.0044617 0)
(0.412242 -0.0054591 0)
(0.411991 -0.00668919 0)
(0.411644 -0.00819891 0)
(0.41119 -0.0101459 0)
(0.412461 -9.45544e-06 0)
(0.412468 -3.04587e-05 0)
(0.412482 -5.35079e-05 0)
(0.412502 -7.64822e-05 0)
(0.412525 -9.81961e-05 0)
(0.412549 -0.000118569 0)
(0.412574 -0.000138334 0)
(0.4126 -0.000158881 0)
(0.412625 -0.000182283 0)
(0.41265 -0.000211136 0)
(0.412674 -0.000248151 0)
(0.412696 -0.000295748 0)
(0.412715 -0.000355912 0)
(0.412731 -0.000430335 0)
(0.412742 -0.00052079 0)
(0.412748 -0.000629628 0)
(0.412747 -0.000760274 0)
(0.412738 -0.000917631 0)
(0.412719 -0.00110833 0)
(0.412687 -0.00134086 0)
(0.412641 -0.0016256 0)
(0.412574 -0.00197491 0)
(0.412483 -0.00240342 0)
(0.41236 -0.00292847 0)
(0.412196 -0.00357104 0)
(0.411979 -0.00435698 0)
(0.411692 -0.00531854 0)
(0.411309 -0.00649972 0)
(0.410802 -0.00794193 0)
(0.410109 -0.00978936 0)
(0.412462 -1.15031e-05 0)
(0.412468 -3.63791e-05 0)
(0.412483 -6.24037e-05 0)
(0.412503 -8.72352e-05 0)
(0.412526 -0.000109945 0)
(0.412549 -0.000130858 0)
(0.412573 -0.000150895 0)
(0.412597 -0.000171435 0)
(0.41262 -0.000194516 0)
(0.412642 -0.00022272 0)
(0.412662 -0.000258728 0)
(0.41268 -0.000304904 0)
(0.412693 -0.000363171 0)
(0.412702 -0.00043517 0)
(0.412704 -0.000522623 0)
(0.412699 -0.000627799 0)
(0.412685 -0.000753996 0)
(0.41266 -0.000905926 0)
(0.412621 -0.00108995 0)
(0.412566 -0.00131418 0)
(0.41249 -0.00158852 0)
(0.412389 -0.00192472 0)
(0.412254 -0.00233658 0)
(0.412079 -0.00284038 0)
(0.41185 -0.00345558 0)
(0.411553 -0.00420591 0)
(0.411169 -0.00512047 0)
(0.410663 -0.00623806 0)
(0.41001 -0.00759415 0)
(0.409103 -0.00931064 0)
(0.412462 -1.37218e-05 0)
(0.412469 -4.27365e-05 0)
(0.412485 -7.17063e-05 0)
(0.412506 -9.8097e-05 0)
(0.412529 -0.000121447 0)
(0.412552 -0.000142614 0)
(0.412574 -0.000162679 0)
(0.412596 -0.000182953 0)
(0.412617 -0.000205424 0)
(0.412637 -0.000232656 0)
(0.412653 -0.000267268 0)
(0.412666 -0.00031153 0)
(0.412674 -0.000367277 0)
(0.412676 -0.000436083 0)
(0.41267 -0.000519595 0)
(0.412655 -0.000619975 0)
(0.412628 -0.000740361 0)
(0.412588 -0.000885221 0)
(0.412531 -0.00106058 0)
(0.412453 -0.0012741 0)
(0.412349 -0.00153512 0)
(0.412214 -0.00185462 0)
(0.412039 -0.00224548 0)
(0.411813 -0.00272267 0)
(0.411524 -0.00330396 0)
(0.411153 -0.00401061 0)
(0.410679 -0.00486824 0)
(0.410063 -0.00590965 0)
(0.409279 -0.0071643 0)
(0.408188 -0.00872515 0)
(0.412462 -1.62234e-05 0)
(0.41247 -4.98102e-05 0)
(0.412488 -8.17006e-05 0)
(0.412511 -0.000109263 0)
(0.412534 -0.000132839 0)
(0.412557 -0.000153972 0)
(0.412578 -0.000173814 0)
(0.412599 -0.000193539 0)
(0.412618 -0.000215092 0)
(0.412635 -0.000241018 0)
(0.412648 -0.000273842 0)
(0.412657 -0.000315709 0)
(0.41266 -0.000368352 0)
(0.412655 -0.000433263 0)
(0.412641 -0.000512004 0)
(0.412616 -0.000606616 0)
(0.412578 -0.000720042 0)
(0.412523 -0.000856463 0)
(0.412448 -0.0010215 0)
(0.412348 -0.00122229 0)
(0.412219 -0.00146747 0)
(0.412052 -0.00176721 0)
(0.411839 -0.00213327 0)
(0.411567 -0.00257923 0)
(0.411222 -0.00312094 0)
(0.410784 -0.00377704 0)
(0.410229 -0.00456945 0)
(0.409514 -0.00552463 0)
(0.408617 -0.00666644 0)
(0.407377 -0.00805494 0)
(0.412462 -1.9158e-05 0)
(0.412472 -5.79861e-05 0)
(0.412492 -9.27346e-05 0)
(0.412518 -0.000120926 0)
(0.412542 -0.000144247 0)
(0.412564 -0.000165054 0)
(0.412585 -0.00018443 0)
(0.412604 -0.000203344 0)
(0.412622 -0.000223704 0)
(0.412636 -0.000248007 0)
(0.412646 -0.000278635 0)
(0.412651 -0.000317562 0)
(0.41265 -0.000366397 0)
(0.412639 -0.000426541 0)
(0.412618 -0.000499454 0)
(0.412584 -0.000587038 0)
(0.412534 -0.000692027 0)
(0.412465 -0.000818285 0)
(0.412374 -0.000970988 0)
(0.412255 -0.00115668 0)
(0.412101 -0.00138326 0)
(0.411905 -0.00165995 0)
(0.411657 -0.00199734 0)
(0.411343 -0.00240752 0)
(0.410947 -0.00290434 0)
(0.410448 -0.00350372 0)
(0.409821 -0.00422391 0)
(0.409022 -0.00508514 0)
(0.40803 -0.00610657 0)
(0.406675 -0.00731473 0)
(0.412463 -2.28348e-05 0)
(0.412475 -6.77556e-05 0)
(0.412499 -0.000105189 0)
(0.412528 -0.0001333 0)
(0.412553 -0.000155829 0)
(0.412575 -0.000175949 0)
(0.412595 -0.000194499 0)
(0.412614 -0.000212293 0)
(0.41263 -0.000231278 0)
(0.412642 -0.000253871 0)
(0.41265 -0.000282239 0)
(0.412651 -0.00031815 0)
(0.412645 -0.000363065 0)
(0.412629 -0.000418271 0)
(0.412601 -0.000485109 0)
(0.412559 -0.000565312 0)
(0.412499 -0.000661358 0)
(0.412418 -0.000776742 0)
(0.412311 -0.000916128 0)
(0.412174 -0.00108541 0)
(0.411999 -0.00129165 0)
(0.411776 -0.00154309 0)
(0.411496 -0.00184905 0)
(0.411144 -0.00222004 0)
(0.410703 -0.0026679 0)
(0.410151 -0.00320586 0)
(0.409461 -0.00384864 0)
(0.408591 -0.00461065 0)
(0.407521 -0.00550795 0)
(0.406084 -0.00653547 0)
(0.412464 -2.76318e-05 0)
(0.412479 -7.98631e-05 0)
(0.412509 -0.000119447 0)
(0.412542 -0.000146567 0)
(0.412569 -0.000167981 0)
(0.412591 -0.000187199 0)
(0.412611 -0.000204385 0)
(0.412628 -0.000220264 0)
(0.412643 -0.000236961 0)
(0.412653 -0.000256828 0)
(0.412658 -0.000281788 0)
(0.412657 -0.000313398 0)
(0.412647 -0.000352978 0)
(0.412626 -0.000401711 0)
(0.412592 -0.000460811 0)
(0.412542 -0.000531842 0)
(0.412472 -0.000617035 0)
(0.41238 -0.000719503 0)
(0.41226 -0.000843388 0)
(0.412107 -0.000993881 0)
(0.411912 -0.00117719 0)
(0.411666 -0.00140047 0)
(0.411358 -0.00167175 0)
(0.410972 -0.00199996 0)
(0.410492 -0.00239492 0)
(0.409893 -0.00286718 0)
(0.409151 -0.00342837 0)
(0.408222 -0.0040877 0)
(0.40709 -0.00486033 0)
(0.405598 -0.00571469 0)
(0.412465 -3.4282e-05 0)
(0.412486 -9.54865e-05 0)
(0.412524 -0.000135679 0)
(0.412562 -0.000160225 0)
(0.41259 -0.0001803 0)
(0.412613 -0.000199199 0)
(0.412632 -0.000216013 0)
(0.41265 -0.000231266 0)
(0.412663 -0.000247084 0)
(0.412672 -0.000265602 0)
(0.412675 -0.000288443 0)
(0.412671 -0.00031693 0)
(0.412657 -0.000352225 0)
(0.412632 -0.00039538 0)
(0.412593 -0.000447466 0)
(0.412536 -0.000509859 0)
(0.412459 -0.00058451 0)
(0.412356 -0.000674098 0)
(0.412225 -0.000782175 0)
(0.412057 -0.00091318 0)
(0.411845 -0.00107247 0)
(0.411579 -0.00126611 0)
(0.411246 -0.00150081 0)
(0.410832 -0.00178392 0)
(0.410318 -0.00212338 0)
(0.409681 -0.00252712 0)
(0.408894 -0.00300387 0)
(0.407918 -0.00355804 0)
(0.406736 -0.00420678 0)
(0.405209 -0.00489809 0)
(0.412467 -4.41132e-05 0)
(0.412498 -0.000116663 0)
(0.412548 -0.000155222 0)
(0.41259 -0.000174428 0)
(0.412619 -0.000190071 0)
(0.412641 -0.000204788 0)
(0.412661 -0.000217332 0)
(0.412678 -0.000228593 0)
(0.41269 -0.00024064 0)
(0.412698 -0.000255183 0)
(0.412699 -0.000273453 0)
(0.412692 -0.000296515 0)
(0.412676 -0.000325336 0)
(0.412647 -0.000360801 0)
(0.412603 -0.000403813 0)
(0.412541 -0.000455567 0)
(0.412457 -0.000517749 0)
(0.412346 -0.000592598 0)
(0.412204 -0.00068309 0)
(0.412024 -0.0007928 0)
(0.411798 -0.000926195 0)
(0.411515 -0.0010882 0)
(0.411162 -0.00128419 0)
(0.410724 -0.00151991 0)
(0.410182 -0.00180145 0)
(0.409513 -0.00213433 0)
(0.408693 -0.00252495 0)
(0.407679 -0.00297241 0)
(0.40646 -0.00350173 0)
(0.404899 -0.00404221 0)
(0.412472 -5.89618e-05 0)
(0.412518 -0.000144015 0)
(0.412584 -0.000181764 0)
(0.412633 -0.000201904 0)
(0.412662 -0.000220056 0)
(0.412685 -0.000235707 0)
(0.412705 -0.000247922 0)
(0.412722 -0.000258565 0)
(0.412733 -0.000269677 0)
(0.412739 -0.000282521 0)
(0.412739 -0.000298052 0)
(0.41273 -0.000317173 0)
(0.412712 -0.000340706 0)
(0.41268 -0.00036942 0)
(0.412632 -0.000404055 0)
(0.412565 -0.0004456 0)
(0.412475 -0.000495467 0)
(0.412358 -0.000555368 0)
(0.412208 -0.000627667 0)
(0.412018 -0.000715066 0)
(0.41178 -0.000821242 0)
(0.411482 -0.00095003 0)
(0.411113 -0.00110558 0)
(0.410657 -0.00129225 0)
(0.410094 -0.00151437 0)
(0.409402 -0.00177483 0)
(0.408557 -0.00207737 0)
(0.407514 -0.00241354 0)
(0.406269 -0.00281723 0)
(0.404663 -0.00321772 0)
(0.412479 -8.72078e-05 0)
(0.41255 -0.000161396 0)
(0.412633 -0.000175612 0)
(0.412685 -0.00018553 0)
(0.412716 -0.000198047 0)
(0.41274 -0.000208919 0)
(0.412761 -0.000217272 0)
(0.412778 -0.000224669 0)
(0.412789 -0.000232727 0)
(0.412795 -0.000242516 0)
(0.412793 -0.00025434 0)
(0.412784 -0.00026874 0)
(0.412764 -0.000286247 0)
(0.41273 -0.000307391 0)
(0.412679 -0.000332874 0)
(0.412609 -0.000363566 0)
(0.412514 -0.000400539 0)
(0.412392 -0.000445282 0)
(0.412235 -0.000499509 0)
(0.412038 -0.000565264 0)
(0.411791 -0.0006446 0)
(0.411483 -0.00074012 0)
(0.411101 -0.000854826 0)
(0.41063 -0.000991758 0)
(0.410052 -0.00115388 0)
(0.409343 -0.00134274 0)
(0.408485 -0.0015598 0)
(0.407422 -0.00178682 0)
(0.406169 -0.00205755 0)
(0.404425 -0.00220306 0)
(0.41249 -0.000155578 0)
(0.412641 -0.000289858 0)
(0.412757 -0.000274765 0)
(0.412789 -0.000271836 0)
(0.41281 -0.000278362 0)
(0.412832 -0.000284088 0)
(0.412851 -0.000287847 0)
(0.412863 -0.000291495 0)
(0.412868 -0.000295911 0)
(0.412866 -0.000301302 0)
(0.412856 -0.000307932 0)
(0.412836 -0.000316116 0)
(0.412804 -0.000326252 0)
(0.412757 -0.000338943 0)
(0.412692 -0.0003542 0)
(0.412606 -0.000372748 0)
(0.412494 -0.000395653 0)
(0.412351 -0.000423066 0)
(0.41217 -0.000456686 0)
(0.411944 -0.000495337 0)
(0.411663 -0.000544987 0)
(0.411316 -0.000604948 0)
(0.410889 -0.00067687 0)
(0.410368 -0.000762732 0)
(0.409734 -0.000863987 0)
(0.408967 -0.000980756 0)
(0.408046 -0.00111328 0)
(0.406935 -0.00123499 0)
(0.405618 -0.00140002 0)
(0.403162 -0.000963587 0)
(0.412111 -0.000107449 0)
(0.411834 -0.000182091 0)
(0.411409 -0.000194464 0)
(0.410921 -0.000199445 0)
(0.41043 -0.000205756 0)
(0.409941 -0.000210648 0)
(0.409448 -0.000214278 0)
(0.408947 -0.000217486 0)
(0.40844 -0.000220576 0)
(0.407925 -0.000223705 0)
(0.407402 -0.00022708 0)
(0.406868 -0.000230913 0)
(0.406322 -0.000235346 0)
(0.405761 -0.00024046 0)
(0.40518 -0.000246473 0)
(0.404577 -0.000253562 0)
(0.403946 -0.00026187 0)
(0.403282 -0.000271887 0)
(0.402578 -0.000283894 0)
(0.401825 -0.000298547 0)
(0.401013 -0.000316305 0)
(0.400128 -0.000337385 0)
(0.399157 -0.000362481 0)
(0.398081 -0.000392259 0)
(0.396882 -0.000427725 0)
(0.395539 -0.000468201 0)
(0.39403 -0.000518232 0)
(0.392353 -0.000546042 0)
(0.39057 -0.000651633 0)
(0.387104 -6.12087e-05 0)
(0.41531 -0.0018244 -1.47024e-18)
(0.420559 -0.00244804 -1.13682e-20)
(0.424434 -0.00293398 1.51798e-18)
(0.426493 -0.00359518 3.0511e-18)
(0.427647 -0.00446698 1.55837e-18)
(0.428437 -0.005509 -1.54656e-18)
(0.429067 -0.00669274 1.57878e-18)
(0.429626 -0.00801721 0)
(0.43017 -0.00948576 1.60274e-18)
(0.43072 -0.0110983 -5.09084e-21)
(0.431273 -0.0128591 1.12682e-19)
(0.431818 -0.0147825 0)
(0.432352 -0.016892 -1.89942e-18)
(0.432875 -0.0192186 0)
(0.433392 -0.0218011 0)
(0.433906 -0.0246891 -2.08524e-18)
(0.434422 -0.0279467 -2.00572e-18)
(0.434943 -0.0316584 -2.77142e-22)
(0.435471 -0.0359364 1.99563e-18)
(0.436008 -0.0409328 2.9566e-19)
(0.436557 -0.0468547 -2.74285e-18)
(0.437117 -0.0540105 3.16024e-19)
(0.4377 -0.0627628 -1.63655e-19)
(0.43826 -0.0740276 2.50123e-18)
(0.438945 -0.0877997 3.43349e-19)
(0.439347 -0.108958 -1.75377e-19)
(0.440776 -0.130837 0)
(0.440159 -0.184184 -2.37266e-18)
(0.446208 -0.217229 -2.43397e-18)
(0.44324 -0.40086 0)
(0.424701 -0.00256736 1.47434e-18)
(0.426427 -0.00295599 -3.48169e-20)
(0.427489 -0.00366214 2.82818e-20)
(0.427632 -0.00460001 -1.54362e-18)
(0.42776 -0.00568128 -4.94317e-20)
(0.428055 -0.00686539 1.66864e-18)
(0.428479 -0.00815487 1.5573e-18)
(0.428962 -0.00956117 2.12456e-19)
(0.429465 -0.0110894 -1.09031e-19)
(0.429969 -0.0127456 1.78521e-18)
(0.430456 -0.0145448 1.95594e-18)
(0.430919 -0.0165098 1.77518e-18)
(0.431361 -0.0186681 2.07023e-18)
(0.431785 -0.0210516 1.88262e-18)
(0.432193 -0.0236999 2.07077e-18)
(0.432585 -0.026664 4.39481e-18)
(0.432958 -0.0300102 2.07165e-18)
(0.433309 -0.033825 -2.42774e-18)
(0.433632 -0.0382235 2.51408e-18)
(0.433917 -0.0433602 -1.52432e-19)
(0.434151 -0.049447 1.58237e-19)
(0.434311 -0.056788 2.63953e-18)
(0.434358 -0.0657821 0)
(0.434235 -0.0772298 -1.75008e-19)
(0.433895 -0.0914891 3.112e-18)
(0.432973 -0.112462 0)
(0.432129 -0.135702 3.06467e-18)
(0.428242 -0.187144 -2.69686e-18)
(0.427996 -0.222916 -3.71594e-20)
(0.415452 -0.399347 6.19775e-19)
(0.424349 -0.00297145 -1.15071e-20)
(0.425074 -0.00357564 -1.16811e-20)
(0.425658 -0.00459248 -1.50963e-18)
(0.426086 -0.00574221 -4.90512e-20)
(0.426526 -0.00691497 5.02826e-20)
(0.427074 -0.00812652 -5.14062e-20)
(0.427631 -0.00941744 -1.63191e-18)
(0.428134 -0.0108127 0)
(0.428585 -0.012327 0)
(0.429 -0.0139761 0)
(0.429388 -0.0157787 -1.8707e-18)
(0.42975 -0.017756 -1.11147e-19)
(0.430089 -0.0199324 -1.73375e-18)
(0.430404 -0.0223388 -2.04347e-18)
(0.430689 -0.0250154 -2.24088e-18)
(0.430941 -0.0280145 -2.17836e-18)
(0.431151 -0.0314034 1.58355e-19)
(0.43131 -0.03527 2.18594e-18)
(0.431404 -0.0397301 -2.26546e-18)
(0.431412 -0.0449393 -1.57511e-19)
(0.431302 -0.0511114 0)
(0.431029 -0.0585463 -5.61544e-18)
(0.43052 -0.0676685 1.76933e-19)
(0.429657 -0.0791747 -2.96883e-18)
(0.42832 -0.0937693 6.84144e-20)
(0.425955 -0.114303 0)
(0.42301 -0.138947 -6.54287e-18)
(0.415694 -0.187532 6.10136e-18)
(0.409486 -0.22752 -3.25579e-18)
(0.386495 -0.394194 -7.0638e-19)
(0.424267 -0.00429704 0)
(0.424837 -0.00510388 -1.55032e-18)
(0.425356 -0.00611813 3.62306e-23)
(0.425776 -0.00717231 2.49497e-20)
(0.426171 -0.00824655 0)
(0.426573 -0.00940038 0)
(0.426955 -0.0106731 -1.71971e-18)
(0.427305 -0.0120734 0)
(0.427632 -0.0136045 1.13027e-19)
(0.427946 -0.0152754 -2.32519e-19)
(0.428242 -0.0171012 1.045e-22)
(0.428512 -0.0191016 -1.8431e-18)
(0.428749 -0.0213024 1.27019e-19)
(0.428948 -0.0237364 1.9741e-18)
(0.429102 -0.026446 1.35527e-19)
(0.429202 -0.0294843 2.11237e-18)
(0.429237 -0.0329194 -2.31535e-18)
(0.42919 -0.0368396 -2.42304e-18)
(0.429038 -0.0413613 0)
(0.428747 -0.0466408 2.45832e-18)
(0.428267 -0.0528917 1.69532e-19)
(0.42753 -0.0604127 2.98732e-18)
(0.426422 -0.0696309 -1.84477e-19)
(0.424781 -0.0812036 3.05326e-18)
(0.422352 -0.0959694 -3.17838e-18)
(0.418544 -0.116203 0)
(0.413239 -0.141642 3.50043e-18)
(0.402681 -0.187679 -3.34764e-18)
(0.390088 -0.230515 3.32734e-18)
(0.357261 -0.386159 7.71443e-20)
(0.423849 -0.00548991 0)
(0.424264 -0.00626917 1.54556e-18)
(0.424622 -0.00720438 0)
(0.424955 -0.00822587 0)
(0.425285 -0.00932584 0)
(0.425616 -0.0105275 0)
(0.425935 -0.0118427 1.74465e-18)
(0.426231 -0.0132716 5.60726e-20)
(0.426501 -0.0148196 -5.76864e-20)
(0.426743 -0.0165012 0)
(0.42695 -0.0183363 0)
(0.427118 -0.0203481 1.25997e-19)
(0.427239 -0.0225641 -6.94467e-24)
(0.427309 -0.0250178 -2.27797e-18)
(0.427318 -0.0277513 0)
(0.427253 -0.0308178 -2.29682e-18)
(0.427097 -0.0342853 0)
(0.426826 -0.0382423 2.63023e-18)
(0.426406 -0.042805 -3.23547e-19)
(0.425791 -0.0481288 -2.51411e-18)
(0.424914 -0.054426 1.41919e-18)
(0.423679 -0.0619914 0)
(0.421935 -0.0712484 0)
(0.419468 -0.0828254 0)
(0.415901 -0.0976201 1.72325e-18)
(0.410591 -0.117513 -1.80999e-18)
(0.402847 -0.143307 0)
(0.389122 -0.186775 -1.92639e-18)
(0.369998 -0.231607 -2.03452e-18)
(0.327769 -0.375268 1.36047e-18)
(0.423266 -0.00656536 7.56379e-19)
(0.423587 -0.00737495 7.98667e-19)
(0.423855 -0.0083258 8.30727e-19)
(0.424134 -0.00936767 7.74071e-19)
(0.424415 -0.0104885 9.25736e-19)
(0.424679 -0.0116985 8.14527e-19)
(0.424916 -0.0130099 8.92294e-19)
(0.425123 -0.0144324 -9.1732e-19)
(0.425296 -0.0159777 5.88325e-20)
(0.425435 -0.017662 8.511e-19)
(0.425535 -0.0195046 1.00259e-18)
(0.425587 -0.021527 9.70524e-19)
(0.425585 -0.0237557 1.33232e-19)
(0.425518 -0.0262239 -1.10726e-18)
(0.425373 -0.0289736 1.42951e-19)
(0.425132 -0.032058 -2.96515e-19)
(0.424771 -0.0355452 -1.08479e-18)
(0.424259 -0.0395231 -1.29033e-18)
(0.423553 -0.0441067 0)
(0.422593 -0.0494497 -1.75266e-19)
(0.421294 -0.0557606 2.05799e-20)
(0.419532 -0.0633285 1.91784e-19)
(0.417118 -0.072567 1.43154e-18)
(0.413785 -0.0840797 3.19711e-19)
(0.40904 -0.0987686 -6.41017e-20)
(0.402181 -0.118253 1.99503e-18)
(0.391954 -0.143963 -1.253e-19)
(0.37514 -0.184847 2.01623e-18)
(0.349433 -0.230772 2.26271e-18)
(0.298758 -0.361352 -1.57719e-18)
(0.42255 -0.00760257 -7.77781e-19)
(0.422792 -0.00842491 -7.83851e-19)
(0.422978 -0.00937422 -8.28842e-19)
(0.423187 -0.0104124 2.9353e-20)
(0.423397 -0.0115327 -1.69303e-18)
(0.423581 -0.0127441 -8.81101e-19)
(0.423731 -0.0140588 -1.92846e-18)
(0.423849 -0.0154867 1.11948e-19)
(0.423933 -0.0170388 -6.00782e-20)
(0.423976 -0.0187297 -1.98188e-18)
(0.42397 -0.0205773 6.4522e-21)
(0.423907 -0.0226037 -9.86941e-19)
(0.423776 -0.0248361 1.02883e-18)
(0.423564 -0.027308 -8.95966e-21)
(0.423254 -0.0300617 1.47009e-19)
(0.422823 -0.03315 -1.52476e-19)
(0.422244 -0.0366399 1.26503e-18)
(0.421476 -0.0406179 1.31901e-18)
(0.420466 -0.0451971 1.73728e-19)
(0.419142 -0.0505274 1.09977e-18)