/*--------------------------------*- C++ -*----------------------------------*\
  =========                 |
  \\      /  F ield         | OpenFOAM: The Open Source CFD Toolbox
   \\    /   O peration     | Website:  https://openfoam.org
    \\  /    A nd           | Version:  11
     \\/     M anipulation  |
\*---------------------------------------------------------------------------*/
FoamFile
{
    format      ascii;
    class       volVectorField;
    location    "4.8";
    object      U;
}
// * * * * * * * * * * * * * * * * * * * * * * * * * * * * * * * * * * * * * //

dimensions      [0 1 -1 0 0 0 0];

internalField   nonuniform List<vector> 
12600
(
(0.399658 0.000103174 0)
(0.399406 0.000174603 0)
(0.399026 0.000180737 0)
(0.398601 0.000180296 0)
(0.398195 0.000180972 0)
(0.397815 0.000179267 0)
(0.397457 0.000174956 0)
(0.397121 0.00016903 0)
(0.396817 0.000161077 0)
(0.396552 0.000150517 0)
(0.396339 0.000136488 0)
(0.396192 0.000119159 0)
(0.396125 9.96025e-05 0)
(0.396156 7.16597e-05 0)
(0.39631 3.29833e-05 0)
(0.396613 -1.45182e-05 0)
(0.397102 -7.19367e-05 0)
(0.397818 -0.000137376 0)
(0.398815 -0.000221265 0)
(0.40016 -0.000328595 0)
(0.401927 -0.000456437 0)
(0.404205 -0.000610767 0)
(0.407119 -0.000807023 0)
(0.410824 -0.00105032 0)
(0.415501 -0.00134701 0)
(0.421375 -0.0017029 0)
(0.428726 -0.00214561 0)
(0.43784 -0.00262295 0)
(0.449122 -0.00348898 0)
(0.46476 -0.00312875 0)
(0.400037 0.00014756 0)
(0.40018 0.000257094 0)
(0.400362 0.00023163 0)
(0.400466 0.000213498 0)
(0.40057 0.000203541 0)
(0.400697 0.000191305 0)
(0.400843 0.000173579 0)
(0.401012 0.000150279 0)
(0.401208 0.00012159 0)
(0.401439 8.68657e-05 0)
(0.401716 4.34258e-05 0)
(0.402052 -1.0814e-05 0)
(0.402459 -7.85639e-05 0)
(0.402954 -0.000161402 0)
(0.403555 -0.000261643 0)
(0.404286 -0.000383932 0)
(0.40517 -0.000533834 0)
(0.406245 -0.000718662 0)
(0.407549 -0.000945352 0)
(0.409117 -0.00122353 0)
(0.410997 -0.00156977 0)
(0.413413 -0.00199946 0)
(0.416355 -0.00252497 0)
(0.419949 -0.00316997 0)
(0.424377 -0.0039694 0)
(0.429856 -0.00495982 0)
(0.436642 -0.00618369 0)
(0.445038 -0.00762429 0)
(0.455421 -0.00963721 0)
(0.468053 -0.0105293 0)
(0.400023 7.3632e-05 0)
(0.400111 0.000122423 0)
(0.400229 0.00010222 0)
(0.400337 8.65912e-05 0)
(0.400443 7.71916e-05 0)
(0.400564 6.12277e-05 0)
(0.400704 3.59654e-05 0)
(0.400865 3.80365e-06 0)
(0.401049 -3.9207e-05 0)
(0.401266 -9.61427e-05 0)
(0.401526 -0.000165035 0)
(0.401838 -0.000250283 0)
(0.402218 -0.000355609 0)
(0.402682 -0.000485019 0)
(0.403249 -0.000643805 0)
(0.403945 -0.000837503 0)
(0.404797 -0.00107412 0)
(0.405841 -0.001364 0)
(0.407121 -0.00171622 0)
(0.408694 -0.00214617 0)
(0.410622 -0.00269009 0)
(0.412976 -0.00336719 0)
(0.415859 -0.00418716 0)
(0.419409 -0.00519788 0)
(0.423774 -0.0064616 0)
(0.429153 -0.00803259 0)
(0.435753 -0.0099747 0)
(0.443987 -0.0123013 0)
(0.453865 -0.0153731 0)
(0.467142 -0.0177446 0)
(0.400015 4.0501e-05 0)
(0.400078 8.79475e-05 0)
(0.400179 8.95634e-05 0)
(0.400282 7.40957e-05 0)
(0.400385 5.62984e-05 0)
(0.4005 3.25648e-05 0)
(0.400634 3.41148e-07 0)
(0.400788 -4.24719e-05 0)
(0.400967 -9.92672e-05 0)
(0.401178 -0.000171288 0)
(0.401429 -0.000263389 0)
(0.401732 -0.000378709 0)
(0.4021 -0.000521679 0)
(0.402549 -0.000698101 0)
(0.403097 -0.000915089 0)
(0.403769 -0.00118106 0)
(0.404592 -0.0015067 0)
(0.4056 -0.0019051 0)
(0.406835 -0.00239211 0)
(0.40835 -0.00299051 0)
(0.410206 -0.00373382 0)
(0.412473 -0.00465263 0)
(0.415248 -0.00578183 0)
(0.418661 -0.00717767 0)
(0.42286 -0.00890729 0)
(0.428041 -0.011043 0)
(0.434397 -0.0136871 0)
(0.442358 -0.0168806 0)
(0.451877 -0.0210448 0)
(0.464894 -0.024828 0)
(0.400011 2.05377e-05 0)
(0.400057 4.70138e-05 0)
(0.40014 3.95794e-05 0)
(0.400234 1.3339e-05 0)
(0.400332 -1.69995e-05 0)
(0.400443 -5.19027e-05 0)
(0.400572 -9.53865e-05 0)
(0.40072 -0.000151861 0)
(0.400892 -0.000223548 0)
(0.401094 -0.000314791 0)
(0.401335 -0.000431059 0)
(0.401625 -0.000576562 0)
(0.401977 -0.000756986 0)
(0.402407 -0.000979508 0)
(0.402931 -0.00125281 0)
(0.403573 -0.00158736 0)
(0.404358 -0.00199627 0)
(0.40532 -0.00249632 0)
(0.406496 -0.00310845 0)
(0.407937 -0.00386006 0)
(0.4097 -0.00478852 0)
(0.411855 -0.00593501 0)
(0.414493 -0.00734613 0)
(0.417735 -0.00908774 0)
(0.421719 -0.0112463 0)
(0.426637 -0.0139207 0)
(0.432667 -0.0172402 0)
(0.440252 -0.0212843 0)
(0.449291 -0.0264771 0)
(0.461871 -0.0317321 0)
(0.400008 5.86094e-06 0)
(0.400044 1.26297e-05 0)
(0.400114 -9.17641e-07 0)
(0.4002 -2.95008e-05 0)
(0.400294 -6.36224e-05 0)
(0.400399 -0.00010279 0)
(0.400521 -0.000152956 0)
(0.400662 -0.000217957 0)
(0.400825 -0.000301762 0)
(0.401017 -0.000409406 0)
(0.401246 -0.000546349 0)
(0.401521 -0.000718261 0)
(0.401854 -0.000932038 0)
(0.402259 -0.00119614 0)
(0.402754 -0.00152095 0)
(0.403359 -0.00191922 0)
(0.404098 -0.0024068 0)
(0.405001 -0.00300363 0)
(0.406106 -0.00373458 0)
(0.407457 -0.00463166 0)
(0.409108 -0.00573659 0)
(0.411126 -0.0070988 0)
(0.413594 -0.00877823 0)
(0.416624 -0.0108548 0)
(0.420345 -0.0134295 0)
(0.424938 -0.0166199 0)
(0.430571 -0.0205796 0)
(0.437681 -0.0254343 0)
(0.446123 -0.0316106 0)
(0.458095 -0.0382981 0)
(0.400007 -4.93944e-06 0)
(0.400036 -1.512e-05 0)
(0.400095 -3.7016e-05 0)
(0.400173 -7.16653e-05 0)
(0.400261 -0.000113305 0)
(0.40036 -0.000161587 0)
(0.400474 -0.000221369 0)
(0.400605 -0.000297761 0)
(0.400759 -0.000395749 0)
(0.400939 -0.000520781 0)
(0.401152 -0.00067913 0)
(0.401409 -0.000877691 0)
(0.40172 -0.00112447 0)
(0.402097 -0.0014292 0)
(0.402557 -0.00180379 0)
(0.403118 -0.00226284 0)
(0.403804 -0.00282444 0)
(0.40464 -0.00351124 0)
(0.405661 -0.00435176 0)
(0.406908 -0.00538242 0)
(0.40843 -0.00664993 0)
(0.410287 -0.00821168 0)
(0.412558 -0.0101384 0)
(0.41534 -0.0125208 0)
(0.418753 -0.0154734 0)
(0.422967 -0.0191346 0)
(0.428128 -0.023685 0)
(0.434665 -0.029297 0)
(0.442395 -0.0363941 0)
(0.453582 -0.0444612 0)
(0.400006 -1.32395e-05 0)
(0.40003 -3.81922e-05 0)
(0.400081 -6.96778e-05 0)
(0.400151 -0.000110732 0)
(0.400232 -0.000158925 0)
(0.400324 -0.000214396 0)
(0.400429 -0.000281719 0)
(0.400551 -0.000366845 0)
(0.400693 -0.000475802 0)
(0.40086 -0.000614955 0)
(0.401057 -0.000791329 0)
(0.401294 -0.00101271 0)
(0.401579 -0.00128813 0)
(0.401924 -0.00162847 0)
(0.402345 -0.00204706 0)
(0.402857 -0.00256021 0)
(0.403481 -0.00318811 0)
(0.404241 -0.00395602 0)
(0.405168 -0.0048957 0)
(0.406297 -0.00604748 0)
(0.407673 -0.00746273 0)
(0.409349 -0.00920547 0)
(0.411395 -0.0113554 0)
(0.413898 -0.0140139 0)
(0.416962 -0.0173095 0)
(0.420741 -0.0213999 0)
(0.425363 -0.0264893 0)
(0.431234 -0.0327954 0)
(0.438142 -0.0407389 0)
(0.448357 -0.0501135 0)
(0.400005 -2.04021e-05 0)
(0.400025 -5.79766e-05 0)
(0.400069 -9.86078e-05 0)
(0.400132 -0.000146181 0)
(0.400205 -0.000200571 0)
(0.40029 -0.000262812 0)
(0.400386 -0.000337547 0)
(0.400498 -0.00043135 0)
(0.400628 -0.00055115 0)
(0.400779 -0.000704049 0)
(0.400958 -0.000897703 0)
(0.401171 -0.00114067 0)
(0.401428 -0.00144288 0)
(0.401738 -0.00181626 0)
(0.402115 -0.00227531 0)
(0.402573 -0.00283785 0)
(0.403129 -0.00352587 0)
(0.403805 -0.00436679 0)
(0.404628 -0.00539513 0)
(0.405628 -0.00665462 0)
(0.406843 -0.00820081 0)
(0.40832 -0.0101034 0)
(0.410119 -0.0124499 0)
(0.412313 -0.0153511 0)
(0.414992 -0.0189474 0)
(0.418289 -0.0234136 0)
(0.422309 -0.0289754 0)
(0.427426 -0.0358945 0)
(0.433407 -0.0445905 0)
(0.442455 -0.0551702 0)
(0.400004 -2.64474e-05 0)
(0.400021 -7.4941e-05 0)
(0.40006 -0.000124171 0)
(0.400115 -0.000178221 0)
(0.400181 -0.00023844 0)
(0.400257 -0.00030683 0)
(0.400344 -0.000388305 0)
(0.400445 -0.000489841 0)
(0.400561 -0.000619034 0)
(0.400696 -0.00078368 0)
(0.400854 -0.000992075 0)
(0.401043 -0.00125346 0)
(0.40127 -0.00157854 0)
(0.401542 -0.00198013 0)
(0.401871 -0.00247382 0)
(0.40227 -0.00307869 0)
(0.402753 -0.00381827 0)
(0.403339 -0.00472185 0)
(0.404049 -0.00582625 0)
(0.404909 -0.00717804 0)
(0.405951 -0.00883631 0)
(0.407213 -0.0108755 0)
(0.408744 -0.0133893 0)
(0.410605 -0.0164961 0)
(0.412866 -0.0203468 0)
(0.41564 -0.0251303 0)
(0.419005 -0.0310917 0)
(0.423288 -0.0385321 0)
(0.428246 -0.0478707 0)
(0.435933 -0.0595194 0)
(0.400003 -3.15831e-05 0)
(0.400018 -8.94966e-05 0)
(0.400051 -0.000146519 0)
(0.400099 -0.000206718 0)
(0.400158 -0.00027233 0)
(0.400225 -0.00034617 0)
(0.400303 -0.000433524 0)
(0.400391 -0.000541746 0)
(0.400493 -0.000679004 0)
(0.400611 -0.000853721 0)
(0.400748 -0.00107477 0)
(0.400911 -0.00135195 0)
(0.401104 -0.00169662 0)
(0.401336 -0.00212233 0)
(0.401615 -0.00264554 0)
(0.401951 -0.00328633 0)
(0.402356 -0.00406947 0)
(0.402845 -0.00502572 0)
(0.403435 -0.00619369 0)
(0.404147 -0.00762221 0)
(0.405005 -0.00937308 0)
(0.40604 -0.0115243 0)
(0.407288 -0.0141744 0)
(0.408795 -0.0174475 0)
(0.410614 -0.0215022 0)
(0.412829 -0.0265388 0)
(0.415494 -0.0328178 0)
(0.418875 -0.0406735 0)
(0.422727 -0.050524 0)
(0.428869 -0.0630665 0)
(0.400003 -3.59412e-05 0)
(0.400016 -0.000101946 0)
(0.400044 -0.000165874 0)
(0.400085 -0.000231663 0)
(0.400136 -0.000302088 0)
(0.400195 -0.000380627 0)
(0.400262 -0.000472978 0)
(0.400338 -0.000586821 0)
(0.400424 -0.000730769 0)
(0.400524 -0.000913746 0)
(0.400639 -0.00114509 0)
(0.400774 -0.00143506 0)
(0.400934 -0.0017955 0)
(0.401123 -0.00224054 0)
(0.401349 -0.0027873 0)
(0.401619 -0.00345668 0)
(0.401942 -0.00427435 0)
(0.40233 -0.00527218 0)
(0.402795 -0.00649007 0)
(0.403352 -0.00797843 0)
(0.404018 -0.00980099 0)
(0.404815 -0.0120382 0)
(0.405768 -0.0147915 0)
(0.406906 -0.0181891 0)
(0.408264 -0.0223945 0)
(0.409896 -0.0276157 0)
(0.411827 -0.0341232 0)
(0.414253 -0.0422771 0)
(0.416933 -0.0524917 0)
(0.421368 -0.0657141 0)
(0.400002 -3.96136e-05 0)
(0.400013 -0.000112497 0)
(0.400037 -0.000182407 0)
(0.400072 -0.000253114 0)
(0.400115 -0.000327697 0)
(0.400165 -0.000410134 0)
(0.400221 -0.000506512 0)
(0.400285 -0.000624808 0)
(0.400356 -0.000773962 0)
(0.400437 -0.000963266 0)
(0.400529 -0.00120242 0)
(0.400635 -0.00150203 0)
(0.400759 -0.00187431 0)
(0.400904 -0.00233383 0)
(0.401075 -0.00289817 0)
(0.401277 -0.00358878 0)
(0.401516 -0.00443192 0)
(0.401799 -0.00546013 0)
(0.402135 -0.00671414 0)
(0.402532 -0.00824523 0)
(0.403001 -0.0101182 0)
(0.403554 -0.0124147 0)
(0.404203 -0.0152376 0)
(0.404963 -0.0187168 0)
(0.405847 -0.0230178 0)
(0.40688 -0.0283517 0)
(0.408057 -0.0349937 0)
(0.409492 -0.0433195 0)
(0.410957 -0.0537345 0)
(0.41356 -0.0673858 0)
(0.400002 -4.26658e-05 0)
(0.400011 -0.000121309 0)
(0.40003 -0.000196275 0)
(0.400059 -0.000271134 0)
(0.400095 -0.000349129 0)
(0.400136 -0.000434621 0)
(0.400182 -0.000534025 0)
(0.400232 -0.000655546 0)
(0.400288 -0.000808341 0)
(0.400349 -0.00100196 0)
(0.400418 -0.00124636 0)
(0.400495 -0.0015524 0)
(0.400582 -0.00193251 0)
(0.400682 -0.0024015 0)
(0.400796 -0.00297723 0)
(0.400928 -0.00368143 0)
(0.401081 -0.00454065 0)
(0.401258 -0.00558772 0)
(0.401462 -0.00686365 0)
(0.401696 -0.00841996 0)
(0.401965 -0.0103216 0)
(0.40227 -0.0126502 0)
(0.402612 -0.0155085 0)
(0.40299 -0.0190256 0)
(0.403396 -0.023366 0)
(0.403825 -0.0287395 0)
(0.404242 -0.035419 0)
(0.404672 -0.0437845 0)
(0.404904 -0.054225 0)
(0.405599 -0.0680248 0)
(0.400002 -4.51514e-05 0)
(0.400009 -0.00012852 0)
(0.400025 -0.00020763 0)
(0.400048 -0.000285829 0)
(0.400076 -0.000366436 0)
(0.400108 -0.000454091 0)
(0.400143 -0.000555466 0)
(0.40018 -0.000678925 0)
(0.40022 -0.000833754 0)
(0.400262 -0.00102964 0)
(0.400307 -0.00127669 0)
(0.400354 -0.00158586 0)
(0.400405 -0.00196969 0)
(0.400458 -0.00244306 0)
(0.400516 -0.00302391 0)
(0.400577 -0.00373398 0)
(0.400643 -0.00459984 0)
(0.400712 -0.0056542 0)
(0.400783 -0.00693783 0)
(0.400855 -0.00850184 0)
(0.400922 -0.0104105 0)
(0.400979 -0.0127442 0)
(0.401014 -0.0156038 0)
(0.401012 -0.0191157 0)
(0.400944 -0.0234399 0)
(0.400775 -0.0287802 0)
(0.400439 -0.0354001 0)
(0.399874 -0.0436716 0)
(0.398886 -0.0539576 0)
(0.397658 -0.0676067 0)
(0.400001 -4.712e-05 0)
(0.400007 -0.000134261 0)
(0.400019 -0.000216636 0)
(0.400037 -0.000297332 0)
(0.400059 -0.000379695 0)
(0.400082 -0.000468578 0)
(0.400106 -0.000570848 0)
(0.40013 -0.000694942 0)
(0.400154 -0.000850165 0)
(0.400177 -0.00104624 0)
(0.400198 -0.00129328 0)
(0.400215 -0.00160227 0)
(0.400228 -0.00198569 0)
(0.400236 -0.00245834 0)
(0.400237 -0.00303802 0)
(0.400228 -0.00374627 0)
(0.400206 -0.00460932 0)
(0.400168 -0.00565943 0)
(0.400107 -0.00693664 0)
(0.400016 -0.00849102 0)
(0.399885 -0.0103853 0)
(0.399696 -0.0126975 0)
(0.39943 -0.0155253 0)
(0.399054 -0.01899 0)
(0.398523 -0.023244 0)
(0.397772 -0.0284805 0)
(0.396707 -0.0349469 0)
(0.395181 -0.0429939 0)
(0.393016 -0.0529483 0)
(0.389923 -0.0661435 0)
(0.400001 -4.86235e-05 0)
(0.400005 -0.000138675 0)
(0.400014 -0.000223472 0)
(0.400027 -0.000305807 0)
(0.400042 -0.000389031 0)
(0.400057 -0.000478183 0)
(0.400071 -0.000580254 0)
(0.400082 -0.00070366 0)
(0.40009 -0.000857623 0)
(0.400094 -0.00105179 0)
(0.400091 -0.0012962 0)
(0.400079 -0.00160171 0)
(0.400055 -0.00198061 0)
(0.400018 -0.00244746 0)
(0.399962 -0.00301974 0)
(0.399883 -0.00371854 0)
(0.399776 -0.00456949 0)
(0.399631 -0.00560399 0)
(0.399441 -0.00686094 0)
(0.399191 -0.00838879 0)
(0.398864 -0.0102479 0)
(0.398436 -0.0125131 0)
(0.397877 -0.0152772 0)
(0.39714 -0.0186545 0)
(0.396164 -0.0227874 0)
(0.394856 -0.0278541 0)
(0.3931 -0.0340791 0)
(0.390671 -0.0417799 0)
(0.387406 -0.0512367 0)
(0.382577 -0.0636888 0)
(0.400001 -4.97221e-05 0)
(0.400003 -0.000141924 0)
(0.40001 -0.000228353 0)
(0.400018 -0.000311456 0)
(0.400027 -0.000394611 0)
(0.400034 -0.00048305 0)
(0.400037 -0.000583825 0)
(0.400037 -0.000705223 0)
(0.40003 -0.000856279 0)
(0.400014 -0.00104647 0)
(0.399988 -0.00128564 0)
(0.399947 -0.00158441 0)
(0.399888 -0.00195475 0)
(0.399805 -0.00241083 0)
(0.399694 -0.00296959 0)
(0.399547 -0.00365148 0)
(0.399356 -0.00448124 0)
(0.399108 -0.00548912 0)
(0.398791 -0.00671243 0)
(0.398387 -0.00819744 0)
(0.397871 -0.0100015 0)
(0.397213 -0.0121954 0)
(0.396372 -0.0148658 0)
(0.395291 -0.0181185 0)
(0.393894 -0.0220834 0)
(0.392066 -0.0269202 0)
(0.389669 -0.0328252 0)
(0.386417 -0.040072 0)
(0.382155 -0.0488852 0)
(0.375793 -0.0603377 0)
(0.4 -5.04902e-05 0)
(0.400002 -0.000144207 0)
(0.400006 -0.000231533 0)
(0.400011 -0.000314518 0)
(0.400014 -0.000396642 0)
(0.400013 -0.000483378 0)
(0.400007 -0.000581767 0)
(0.399994 -0.000699849 0)
(0.399973 -0.000846375 0)
(0.399939 -0.00103056 0)
(0.39989 -0.00126196 0)
(0.399821 -0.0015508 0)
(0.399727 -0.00190864 0)
(0.399601 -0.00234909 0)
(0.399437 -0.00288842 0)
(0.399224 -0.0035462 0)
(0.398951 -0.00434603 0)
(0.398605 -0.0053167 0)
(0.398166 -0.00649356 0)
(0.397613 -0.00792027 0)
(0.396917 -0.00965062 0)
(0.39604 -0.0117504 0)
(0.394933 -0.0142994 0)
(0.393529 -0.0173938 0)
(0.39174 -0.0211488 0)
(0.389435 -0.0257034 0)
(0.386458 -0.0312215 0)
(0.38248 -0.037925 0)
(0.377352 -0.0459762 0)
(0.369715 -0.0562233 0)
(0.4 -5.10239e-05 0)
(0.400001 -0.00014578 0)
(0.400004 -0.00023332 0)
(0.400006 -0.000315269 0)
(0.400004 -0.000395368 0)
(0.399996 -0.000479415 0)
(0.39998 -0.000574347 0)
(0.399956 -0.000687828 0)
(0.39992 -0.000828235 0)
(0.399869 -0.00100444 0)
(0.399799 -0.00122561 0)
(0.399703 -0.00150149 0)
(0.399575 -0.00184307 0)
(0.399409 -0.00226325 0)
(0.399193 -0.00277746 0)
(0.398917 -0.0034042 0)
(0.398567 -0.00416575 0)
(0.398125 -0.00508915 0)
(0.397571 -0.00620748 0)
(0.396878 -0.00756138 0)
(0.396011 -0.00920059 0)
(0.394929 -0.0111854 0)
(0.393573 -0.013588 0)
(0.391871 -0.0164939 0)
(0.389724 -0.0200031 0)
(0.38699 -0.0242318 0)
(0.383502 -0.02931 0)
(0.378907 -0.0354027 0)
(0.373061 -0.0426079 0)
(0.364451 -0.0515086 0)
(0.4 -5.14534e-05 0)
(0.400001 -0.000146973 0)
(0.400003 -0.000234087 0)
(0.400002 -0.000314017 0)
(0.399996 -0.000391067 0)
(0.399981 -0.000471462 0)
(0.399957 -0.000561899 0)
(0.399922 -0.000669522 0)
(0.399873 -0.000802274 0)
(0.399806 -0.000968618 0)
(0.399715 -0.00117721 0)
(0.399594 -0.00143719 0)
(0.399435 -0.00175889 0)
(0.399229 -0.00215443 0)
(0.398965 -0.00263821 0)
(0.39863 -0.00322749 0)
(0.398207 -0.00394298 0)
(0.397676 -0.00480975 0)
(0.397014 -0.00585833 0)
(0.396189 -0.00712605 0)
(0.395164 -0.00865822 0)
(0.39389 -0.0105092 0)
(0.392307 -0.0127433 0)
(0.390332 -0.0154349 0)
(0.387864 -0.0186681 0)
(0.384753 -0.0225367 0)
(0.380827 -0.0271363 0)
(0.37573 -0.0325747 0)
(0.369322 -0.0388872 0)
(0.36006 -0.0463752 0)
(0.4 -5.19619e-05 0)
(0.400002 -0.000148234 0)
(0.400004 -0.000234288 0)
(0.400002 -0.000311086 0)
(0.399992 -0.000384016 0)
(0.399971 -0.000459844 0)
(0.399939 -0.000544803 0)
(0.399894 -0.00064539 0)
(0.399833 -0.000769056 0)
(0.399751 -0.00092375 0)
(0.39964 -0.00111751 0)
(0.399495 -0.0013588 0)
(0.399307 -0.00165718 0)
(0.399065 -0.00202383 0)
(0.398756 -0.00247203 0)
(0.398366 -0.00301762 0)
(0.397875 -0.00367961 0)
(0.397262 -0.0044809 0)
(0.396499 -0.00544927 0)
(0.395553 -0.00661849 0)
(0.394382 -0.00802923 0)
(0.392935 -0.00972974 0)
(0.391144 -0.0117761 0)
(0.388927 -0.0142317 0)
(0.386175 -0.0171654 0)
(0.382739 -0.0206491 0)
(0.37845 -0.0247464 0)
(0.372964 -0.029511 0)
(0.366151 -0.0349228 0)
(0.35655 -0.0410088 0)
(0.400001 -5.28225e-05 0)
(0.400003 -0.000150175 0)
(0.400007 -0.000234449 0)
(0.400005 -0.000306853 0)
(0.399992 -0.000374584 0)
(0.399966 -0.000444908 0)
(0.399927 -0.000523344 0)
(0.399873 -0.000615722 0)
(0.399801 -0.000729016 0)
(0.399704 -0.000870587 0)
(0.399576 -0.00104774 0)
(0.39941 -0.00126813 0)
(0.399195 -0.00154043 0)
(0.398919 -0.00187473 0)
(0.398569 -0.00228303 0)
(0.398128 -0.0027797 0)
(0.397575 -0.00338187 0)
(0.396887 -0.00411006 0)
(0.396033 -0.00498912 0)
(0.394977 -0.00604905 0)
(0.393675 -0.0073257 0)
(0.392071 -0.00886112 0)
(0.390097 -0.0107033 0)
(0.387665 -0.0129051 0)
(0.384668 -0.015521 0)
(0.38096 -0.0186031 0)
(0.376376 -0.0221873 0)
(0.370609 -0.0262801 0)
(0.363535 -0.0308181 0)
(0.353877 -0.0355853 0)
(0.400001 -5.44777e-05 0)
(0.400006 -0.000153634 0)
(0.400014 -0.000235069 0)
(0.400013 -0.000301678 0)
(0.399997 -0.000363391 0)
(0.399966 -0.000427448 0)
(0.399921 -0.000498223 0)
(0.39986 -0.000580891 0)
(0.399777 -0.000682018 0)
(0.399668 -0.000808333 0)
(0.399525 -0.000966285 0)
(0.399339 -0.00116268 0)
(0.399099 -0.00140533 0)
(0.398794 -0.00170318 0)
(0.398407 -0.00206681 0)
(0.39792 -0.00250892 0)
(0.397312 -0.0030447 0)
(0.396556 -0.00369228 0)
(0.395621 -0.00447346 0)
(0.394467 -0.00541435 0)
(0.393048 -0.00654592 0)
(0.391306 -0.00790406 0)
(0.389171 -0.00952899 0)
(0.386555 -0.0114636 0)
(0.38335 -0.0137499 0)
(0.379418 -0.0164225 0)
(0.374606 -0.0194955 0)
(0.368648 -0.0229382 0)
(0.361437 -0.0266596 0)
(0.35195 -0.0302547 0)
(0.400002 -5.77043e-05 0)
(0.400012 -0.000159909 0)
(0.400026 -0.000236485 0)
(0.400028 -0.000295205 0)
(0.40001 -0.000350241 0)
(0.399975 -0.000408137 0)
(0.399925 -0.000471598 0)
(0.399857 -0.000545006 0)
(0.399766 -0.000634347 0)
(0.399645 -0.000745517 0)
(0.399488 -0.000883988 0)
(0.399285 -0.00105559 0)
(0.399024 -0.00126715 0)
(0.398693 -0.00152646 0)
(0.398273 -0.00184271 0)
(0.397747 -0.00222678 0)
(0.39709 -0.00269162 0)
(0.396275 -0.00325279 0)
(0.395268 -0.00392897 0)
(0.394029 -0.00474239 0)
(0.392509 -0.00571915 0)
(0.390649 -0.00688913 0)
(0.388376 -0.00828515 0)
(0.385603 -0.00994116 0)
(0.382226 -0.0118881 0)
(0.378115 -0.0141474 0)
(0.37313 -0.016717 0)
(0.367056 -0.0195414 0)
(0.359801 -0.0225217 0)
(0.350642 -0.0251335 0)
(0.400005 -6.3803e-05 0)
(0.400023 -0.000171203 0)
(0.400047 -0.000240377 0)
(0.400052 -0.000287942 0)
(0.400031 -0.000332729 0)
(0.399992 -0.000380315 0)
(0.399938 -0.000432388 0)
(0.399864 -0.000492889 0)
(0.399766 -0.000567117 0)
(0.399636 -0.00065989 0)
(0.399467 -0.000775575 0)
(0.399249 -0.000919131 0)
(0.398971 -0.0010963 0)
(0.398617 -0.00131316 0)
(0.39817 -0.00157749 0)
(0.39761 -0.00189869 0)
(0.396912 -0.0022876 0)
(0.396047 -0.00275702 0)
(0.39498 -0.00332235 0)
(0.393669 -0.00400181 0)
(0.392064 -0.00481669 0)
(0.390105 -0.00579108 0)
(0.387718 -0.00695097 0)
(0.384817 -0.0083223 0)
(0.381302 -0.00992719 0)
(0.377054 -0.0117768 0)
(0.371945 -0.0138602 0)
(0.365812 -0.0161075 0)
(0.358581 -0.0184374 0)
(0.349834 -0.0202843 0)
(0.400009 -7.462e-05 0)
(0.400042 -0.00018801 0)
(0.400082 -0.000250448 0)
(0.400091 -0.000292897 0)
(0.400069 -0.000333817 0)
(0.400027 -0.000375469 0)
(0.399969 -0.000419349 0)
(0.399891 -0.000469384 0)
(0.399786 -0.000530173 0)
(0.399648 -0.00060565 0)
(0.39947 -0.000698901 0)
(0.399241 -0.000813755 0)
(0.398947 -0.000955668 0)
(0.398575 -0.00112926 0)
(0.398106 -0.0013402 0)
(0.397519 -0.00159577 0)
(0.396788 -0.00190471 0)
(0.395883 -0.00227733 0)
(0.394768 -0.00272585 0)
(0.3934 -0.00326463 0)
(0.391729 -0.0039102 0)
(0.389693 -0.00468106 0)
(0.387219 -0.00559685 0)
(0.384223 -0.00667654 0)
(0.380609 -0.0079354 0)
(0.376269 -0.00937819 0)
(0.371092 -0.0109915 0)
(0.364957 -0.0126959 0)
(0.357809 -0.0144549 0)
(0.349508 -0.0157442 0)
(0.400016 -9.83893e-05 0)
(0.400073 -0.000194224 0)
(0.400129 -0.000226601 0)
(0.400141 -0.000252323 0)
(0.400118 -0.000282068 0)
(0.400075 -0.000312345 0)
(0.400015 -0.000344247 0)
(0.399934 -0.000381645 0)
(0.399825 -0.00042739 0)
(0.399682 -0.000483704 0)
(0.399497 -0.000553509 0)
(0.399258 -0.000639672 0)
(0.398953 -0.000744534 0)
(0.398567 -0.000872153 0)
(0.398081 -0.00102741 0)
(0.397473 -0.00121565 0)
(0.396717 -0.00144315 0)
(0.395782 -0.00171734 0)
(0.394632 -0.00204703 0)
(0.393223 -0.00244263 0)
(0.391505 -0.00291611 0)
(0.389416 -0.00348076 0)
(0.386887 -0.0041505 0)
(0.383836 -0.00493848 0)
(0.380174 -0.00585504 0)
(0.375804 -0.00690287 0)
(0.370637 -0.00807232 0)
(0.364557 -0.00927457 0)
(0.357571 -0.0105309 0)
(0.349468 -0.0113076 0)
(0.400026 -0.00016337 0)
(0.400174 -0.000315019 0)
(0.400241 -0.000306946 0)
(0.400226 -0.000313662 0)
(0.400189 -0.000330557 0)
(0.400139 -0.000348531 0)
(0.400068 -0.000368204 0)
(0.39997 -0.000390432 0)
(0.39984 -0.000419109 0)
(0.399669 -0.000455354 0)
(0.399451 -0.000498115 0)
(0.399174 -0.000549417 0)
(0.398825 -0.000616297 0)
(0.398389 -0.00069705 0)
(0.397846 -0.000794429 0)
(0.397176 -0.000911976 0)
(0.396351 -0.00105411 0)
(0.395341 -0.00122611 0)
(0.394109 -0.00143398 0)
(0.392611 -0.00168452 0)
(0.390796 -0.00198542 0)
(0.388603 -0.00234517 0)
(0.385961 -0.00277259 0)
(0.38279 -0.00327581 0)
(0.378998 -0.00386072 0)
(0.37449 -0.00452557 0)
(0.369134 -0.00526236 0)
(0.362782 -0.00600128 0)
(0.355718 -0.00681819 0)
(0.34637 -0.00683819 0)
(0.399646 -0.000111922 0)
(0.39935 -0.000187454 0)
(0.398892 -0.000203425 0)
(0.398358 -0.000212521 0)
(0.397807 -0.000222522 0)
(0.397242 -0.000231342 0)
(0.396656 -0.000239592 0)
(0.39604 -0.000248894 0)
(0.39539 -0.0002596 0)
(0.394698 -0.00027203 0)
(0.393953 -0.000288017 0)
(0.393146 -0.000308169 0)
(0.392259 -0.000331404 0)
(0.391274 -0.000359458 0)
(0.390172 -0.000394363 0)
(0.388926 -0.000437345 0)
(0.387507 -0.000489614 0)
(0.385876 -0.000552753 0)
(0.38399 -0.000628863 0)
(0.381795 -0.000720614 0)
(0.379229 -0.000831166 0)
(0.376217 -0.000963991 0)
(0.372672 -0.00112264 0)
(0.368498 -0.00131029 0)
(0.363585 -0.001529 0)
(0.35783 -0.00177529 0)
(0.351139 -0.0020469 0)
(0.34344 -0.00230329 0)
(0.334831 -0.00269466 0)
(0.322372 -0.00206544 0)
(0.471473 -0.00735948 1.10654e-20)
(0.477963 -0.0114097 -1.49485e-17)
(0.483659 -0.015894 1.50281e-17)
(0.4882 -0.0207754 7.55792e-18)
(0.492103 -0.0260168 5.71121e-18)
(0.495667 -0.0316207 1.1531e-17)
(0.498987 -0.0376335 5.79777e-18)
(0.502127 -0.0441176 1.56278e-17)
(0.505161 -0.0511221 7.89628e-18)
(0.508134 -0.0586796 3.9714e-18)
(0.511057 -0.0668187 -4.02061e-18)
(0.513919 -0.0755743 8.09014e-18)
(0.516703 -0.0849926 4.12334e-18)
(0.519399 -0.0951331 4.14877e-18)
(0.522003 -0.10607 8.37423e-18)
(0.524519 -0.117895 4.25318e-18)
(0.526953 -0.130721 1.28192e-17)
(0.529314 -0.144682 0)
(0.531612 -0.159949 0)
(0.533861 -0.176728 4.37356e-18)
(0.536074 -0.195279 -3.78384e-20)
(0.538272 -0.215929 4.4795e-18)
(0.540473 -0.239093 0)
(0.54271 -0.26531 8.97248e-18)
(0.545029 -0.295218 4.48963e-18)
(0.547226 -0.330043 -4.55921e-18)
(0.550699 -0.369186 4.46891e-18)
(0.549278 -0.423321 4.48571e-18)
(0.563814 -0.458835 1.30856e-17)
(0.532636 -0.587403 -4.18295e-18)
(0.47785 -0.0154898 -7.51641e-18)
(0.481781 -0.0193947 8.51096e-18)
(0.484956 -0.0240955 -8.58117e-18)
(0.487535 -0.0292071 0)
(0.489962 -0.0346457 -7.78318e-18)
(0.492429 -0.0404571 -7.83873e-18)
(0.494929 -0.0467066 -1.9785e-18)
(0.497432 -0.0534323 -1.40006e-17)
(0.499922 -0.0606503 -8.06768e-18)
(0.502374 -0.0683771 -8.17971e-18)
(0.50475 -0.0766426 4.11895e-18)
(0.507015 -0.0854909 -4.17428e-18)
(0.50915 -0.0949776 -8.40762e-18)
(0.511147 -0.105169 -8.49991e-18)
(0.513002 -0.116143 -8.59491e-18)
(0.51471 -0.127992 -8.69232e-18)
(0.516266 -0.140828 -1.76451e-17)
(0.51766 -0.154787 4.45346e-18)
(0.518882 -0.170034 -4.52495e-18)
(0.519916 -0.186773 -1.37317e-17)
(0.520741 -0.205259 2.73889e-20)
(0.521338 -0.225804 -5.51237e-20)
(0.521661 -0.248811 -3.91433e-20)
(0.521684 -0.274782 -1.43511e-17)
(0.521297 -0.304346 -9.64957e-18)
(0.520386 -0.338517 -4.76272e-18)
(0.519389 -0.377328 1.0352e-19)
(0.514205 -0.427935 -1.28658e-19)
(0.521052 -0.467213 -1.41944e-17)
(0.484953 -0.584703 0)
(0.475559 -0.0231013 0)
(0.4782 -0.0270288 0)
(0.480516 -0.0318068 0)
(0.482762 -0.0370282 -9.83008e-19)
(0.485056 -0.0425796 8.93737e-18)
(0.487377 -0.0484872 -2.00577e-18)
(0.489653 -0.0547919 2.03086e-18)
(0.491832 -0.0615176 8.18851e-18)
(0.493893 -0.0686885 -2.07048e-18)
(0.495821 -0.0763421 1.04666e-17)
(0.497601 -0.0845264 4.23564e-18)
(0.499226 -0.0932942 -4.29585e-18)
(0.500689 -0.102702 4.33769e-18)
(0.501983 -0.112814 -4.40274e-18)
(0.503095 -0.123706 -8.93591e-18)
(0.504007 -0.135467 9.05445e-18)
(0.504695 -0.148207 9.11008e-18)
(0.505132 -0.162061 0)
(0.505286 -0.177188 0)
(0.505116 -0.193788 9.47449e-18)
(0.504569 -0.212103 0)
(0.503581 -0.232435 1.46813e-17)
(0.502052 -0.255164 4.96577e-18)
(0.499892 -0.280756 9.95258e-18)
(0.49687 -0.309824 1.50915e-17)
(0.492875 -0.343195 5.18258e-18)
(0.487685 -0.381338 0)
(0.478847 -0.428883 2.06584e-17)
(0.47725 -0.470941 0)
(0.438158 -0.576708 1.0199e-17)
(0.472977 -0.0310156 0)
(0.475099 -0.0351205 0)
(0.476961 -0.0399719 0)
(0.478886 -0.0452085 -8.05703e-18)
(0.480817 -0.0507491 0)
(0.482652 -0.0566305 0)
(0.484355 -0.0629005 0)
(0.485926 -0.0695913 8.43147e-18)
(0.487367 -0.0767331 0)
(0.48867 -0.0843623 0)
(0.489822 -0.0925199 0)
(0.490806 -0.10125 -8.86994e-18)
(0.491604 -0.110605 -8.991e-18)
(0.492191 -0.120646 -4.53884e-18)
(0.49254 -0.131447 -5.19014e-20)
(0.492622 -0.143098 -9.30619e-18)
(0.4924 -0.155708 1.19772e-20)
(0.491832 -0.169405 1.44976e-17)
(0.490866 -0.184342 4.88311e-18)
(0.489437 -0.200709 -4.97605e-18)
(0.487461 -0.218735 -5.03673e-18)
(0.484835 -0.238699 -5.05855e-18)
(0.481409 -0.260954 -5.1959e-18)
(0.477036 -0.285921 1.59805e-17)
(0.471385 -0.314176 0)
(0.464342 -0.346373 -1.64125e-17)
(0.455157 -0.383227 -5.56814e-18)
(0.442729 -0.427674 2.88723e-19)
(0.433036 -0.470358 -1.7064e-17)
(0.392181 -0.564423 5.79024e-19)
(0.469475 -0.0385501 0)
(0.471068 -0.0426927 8.05505e-18)
(0.472387 -0.0475137 -1.01642e-18)
(0.473845 -0.0527184 1.74951e-17)
(0.475315 -0.0582488 0)
(0.476651 -0.0641327 0)
(0.477835 -0.0704038 8.55285e-18)
(0.478885 -0.0770849 -8.62571e-18)
(0.479798 -0.0842 0)
(0.480549 -0.0917814 0)
(0.481113 -0.0998686 0)
(0.481468 -0.108508 9.10256e-18)
(0.481589 -0.117752 9.23483e-18)
(0.481446 -0.127663 -4.6976e-18)
(0.481008 -0.138317 1.42961e-17)
(0.480235 -0.149798 0)
(0.47908 -0.162208 9.90668e-18)
(0.477485 -0.175669 -1.50574e-17)
(0.47538 -0.190325 -5.10972e-18)
(0.472676 -0.20635 0)
(0.46926 -0.223956 0)
(0.464995 -0.243397 0)
(0.45969 -0.264992 0)
(0.453143 -0.289114 -5.54131e-18)
(0.444948 -0.316282 -5.73745e-18)
(0.434968 -0.347007 5.75742e-18)
(0.422063 -0.382135 5.98742e-18)
(0.406204 -0.423319 -1.20064e-17)
(0.388987 -0.465297 1.22541e-17)
(0.347415 -0.547949 -1.22028e-17)
(0.465143 -0.0456939 -8.13627e-18)
(0.46625 -0.049885 -7.69731e-18)
(0.467066 -0.0547145 -1.56091e-18)
(0.468084 -0.0599189 -6.30904e-18)
(0.469119 -0.0654435 -1.33541e-21)
(0.469985 -0.0713062 -3.24326e-18)
(0.470666 -0.0775344 4.25356e-20)
(0.471189 -0.0841516 -8.90929e-18)
(0.471547 -0.0911847 -6.78532e-18)
(0.471712 -0.0986684 9.17511e-18)
(0.471654 -0.106643 0)
(0.47135 -0.115153 1.18197e-17)
(0.470772 -0.12425 -1.20148e-17)
(0.469883 -0.133992 -9.77944e-18)
(0.468643 -0.144448 1.49018e-17)
(0.467002 -0.155697 -1.51749e-17)
(0.4649 -0.167835 -5.09583e-18)
(0.462265 -0.180973 -5.33444e-18)
(0.459008 -0.195244 -5.33161e-18)
(0.455019 -0.210806 1.63995e-17)
(0.450164 -0.227848 0)
(0.444272 -0.246596 5.67529e-18)
(0.437118 -0.26733 -1.1624e-17)
(0.428455 -0.290371 1.20167e-17)
(0.417824 -0.31617 6.11214e-18)
(0.405054 -0.345114 1.26388e-17)
(0.388731 -0.378077 0)
(0.369649 -0.41576 1.33897e-17)
(0.345697 -0.455856 0)
(0.304261 -0.52744 -1.4137e-17)
(0.459993 -0.0523828 8.29308e-18)
(0.460627 -0.0566002 4.21549e-18)
(0.460951 -0.0614105 -4.27376e-18)
(0.461518 -0.066576 3.25195e-18)
(0.462103 -0.0720493 1.06882e-21)
(0.462486 -0.0778472 9.96394e-22)
(0.462653 -0.0839962 -7.86785e-18)
(0.46264 -0.0905199 2.25306e-18)
(0.462439 -0.0974448 1.39153e-17)
(0.462017 -0.104803 -1.17756e-17)
(0.461342 -0.112632 2.39816e-18)
(0.460383 -0.120973 -1.21679e-17)
(0.459107 -0.129874 9.89553e-18)
(0.457471 -0.139388 1.00725e-17)
(0.455426 -0.149579 -5.08799e-18)
(0.452911 -0.160522 1.04559e-17)
(0.449858 -0.172301 0)
(0.446181 -0.185019 5.41867e-18)
(0.441776 -0.198793 5.59002e-18)
(0.436517 -0.213762 -1.13687e-17)
(0.430246 -0.230091 0)
(0.422771 -0.247974 -5.99465e-18)
(0.413837 -0.267649 9.82686e-21)
(0.403159 -0.289382 -1.25503e-17)
(0.390244 -0.313548 1.30316e-17)
(0.374881 -0.340428 -2.0056e-17)
(0.355498 -0.37084 0)
(0.333469 -0.404815 -1.41276e-17)
(0.303709 -0.44209 8.38256e-20)
(0.263138 -0.5031 1.52898e-17)
(0.454041 -0.0585078 4.25867e-18)
(0.454213 -0.0627291 -3.76316e-18)
(0.454055 -0.0674958 3.81759e-18)
(0.454174 -0.0725966 -8.87427e-18)
(0.454309 -0.077992 -4.51323e-18)
(0.454214 -0.0836978 -1.1422e-18)
(0.453873 -0.0897378 4.65564e-18)
(0.453331 -0.0961337 1.06142e-17)