/*--------------------------------*- C++ -*----------------------------------*\
  =========                 |
  \\      /  F ield         | OpenFOAM: The Open Source CFD Toolbox
   \\    /   O peration     | Website:  https://openfoam.org
    \\  /    A nd           | Version:  11
     \\/     M anipulation  |
\*---------------------------------------------------------------------------*/
FoamFile
{
    format      ascii;
    class       volVectorField;
    location    "4.8";
    object      U;
}
// * * * * * * * * * * * * * * * * * * * * * * * * * * * * * * * * * * * * * //

dimensions      [0 1 -1 0 0 0 0];

internalField   nonuniform List<vector> 
12600
(
(0.412295 5.55168e-05 0)
(0.412229 0.000109231 0)
(0.412115 0.000107248 0)
(0.411981 0.000106665 0)
(0.411865 0.000103801 0)
(0.411776 9.82013e-05 0)
(0.411709 9.15617e-05 0)
(0.411661 8.38828e-05 0)
(0.411637 7.4859e-05 0)
(0.411641 6.3033e-05 0)
(0.411683 4.70697e-05 0)
(0.411773 2.51358e-05 0)
(0.411923 -2.92902e-06 0)
(0.41215 -3.79829e-05 0)
(0.412473 -7.91775e-05 0)
(0.412915 -0.000129179 0)
(0.413501 -0.000192209 0)
(0.414261 -0.000268853 0)
(0.415225 -0.000360111 0)
(0.416433 -0.000470765 0)
(0.417929 -0.000600685 0)
(0.419764 -0.000744952 0)
(0.421992 -0.00090386 0)
(0.424683 -0.00108532 0)
(0.427916 -0.00129908 0)
(0.431775 -0.00154891 0)
(0.43635 -0.00184728 0)
(0.441719 -0.0021447 0)
(0.448025 -0.00265805 0)
(0.455922 -0.00233978 0)
(0.412482 6.09908e-05 0)
(0.412603 0.000102803 0)
(0.412758 7.38154e-05 0)
(0.412944 4.77676e-05 0)
(0.413135 2.80954e-05 0)
(0.413334 1.03645e-05 0)
(0.413553 -9.47355e-06 0)
(0.413787 -3.33421e-05 0)
(0.41404 -6.27983e-05 0)
(0.414318 -9.95279e-05 0)
(0.414628 -0.000145582 0)
(0.414977 -0.000203418 0)
(0.415375 -0.000276551 0)
(0.415835 -0.000368696 0)
(0.416371 -0.000483616 0)
(0.417001 -0.000624559 0)
(0.417748 -0.000794347 0)
(0.418618 -0.000997014 0)
(0.419685 -0.00123802 0)
(0.420957 -0.00152291 0)
(0.422469 -0.00185978 0)
(0.424289 -0.00226149 0)
(0.42649 -0.00274073 0)
(0.42914 -0.00330484 0)
(0.432311 -0.00395827 0)
(0.436071 -0.00470312 0)
(0.440505 -0.00555451 0)
(0.445666 -0.00645926 0)
(0.451751 -0.0076699 0)
(0.458425 -0.00786378 0)
(0.412477 -4.25956e-06 0)
(0.412549 -3.42191e-05 0)
(0.412681 -8.78515e-05 0)
(0.41284 -0.000138857 0)
(0.413012 -0.000174448 0)
(0.413205 -0.000201439 0)
(0.41342 -0.000230514 0)
(0.413653 -0.000266191 0)
(0.413904 -0.000310303 0)
(0.414175 -0.000365337 0)
(0.414474 -0.000435017 0)
(0.414808 -0.000523981 0)
(0.415186 -0.000636726 0)
(0.415623 -0.000777639 0)
(0.416134 -0.000951523 0)
(0.416739 -0.0011644 0)
(0.417463 -0.00142281 0)
(0.418333 -0.00173889 0)
(0.419379 -0.00212221 0)
(0.420637 -0.00257544 0)
(0.422154 -0.00311368 0)
(0.42397 -0.00376342 0)
(0.426134 -0.00454196 0)
(0.428705 -0.00545435 0)
(0.431758 -0.00650615 0)
(0.435378 -0.00770636 0)
(0.439649 -0.00907719 0)
(0.444709 -0.0105734 0)
(0.450532 -0.0124406 0)
(0.457755 -0.0133773 0)
(0.412474 -3.48682e-05 0)
(0.412532 -9.73673e-05 0)
(0.412649 -0.000159908 0)
(0.412797 -0.000220036 0)
(0.412962 -0.000270895 0)
(0.413145 -0.000315013 0)
(0.413349 -0.000358908 0)
(0.413571 -0.000407796 0)
(0.413811 -0.000466272 0)
(0.414072 -0.000539007 0)
(0.414358 -0.000630777 0)
(0.414677 -0.000747338 0)
(0.415038 -0.000895803 0)
(0.415454 -0.00108424 0)
(0.41594 -0.00132115 0)
(0.416516 -0.00161544 0)
(0.417204 -0.00197634 0)
(0.418032 -0.00241513 0)
(0.419027 -0.00294356 0)
(0.420222 -0.00357428 0)
(0.42166 -0.00432519 0)
(0.423385 -0.00521656 0)
(0.425446 -0.00626694 0)
(0.427899 -0.00749571 0)
(0.430814 -0.0089261 0)
(0.434282 -0.0105788 0)
(0.438387 -0.0124853 0)
(0.443295 -0.0145987 0)
(0.448963 -0.0171749 0)
(0.456167 -0.0189476 0)
(0.412471 -6.01342e-05 0)
(0.41252 -0.000164117 0)
(0.412621 -0.000257188 0)
(0.412756 -0.000340769 0)
(0.412912 -0.00041214 0)
(0.413086 -0.000473696 0)
(0.413277 -0.00053247 0)
(0.413487 -0.000595468 0)
(0.413714 -0.00066872 0)
(0.413961 -0.000758481 0)
(0.41423 -0.000871855 0)
(0.414531 -0.00101683 0)
(0.414871 -0.00120211 0)
(0.415262 -0.00143712 0)
(0.415719 -0.00173198 0)
(0.41626 -0.00209778 0)
(0.416904 -0.00254678 0)
(0.417677 -0.00309306 0)
(0.418604 -0.00375211 0)
(0.419718 -0.00454034 0)
(0.421056 -0.00547775 0)
(0.422661 -0.0065897 0)
(0.424578 -0.00790429 0)
(0.426866 -0.00944981 0)
(0.429594 -0.0112563 0)
(0.432857 -0.0133527 0)
(0.436736 -0.0157807 0)
(0.441423 -0.0185127 0)
(0.446852 -0.0217925 0)
(0.453947 -0.0244963 0)
(0.41247 -8.16185e-05 0)
(0.412512 -0.000221827 0)
(0.412602 -0.000340698 0)
(0.412726 -0.000441655 0)
(0.412871 -0.000526801 0)
(0.413033 -0.00060052 0)
(0.413212 -0.000670092 0)
(0.413407 -0.000743636 0)
(0.413618 -0.000828949 0)
(0.413847 -0.000933642 0)
(0.414098 -0.00106578 0)
(0.414377 -0.00123457 0)
(0.414691 -0.00145065 0)
(0.415052 -0.00172592 0)
(0.415472 -0.00207314 0)
(0.415967 -0.00250579 0)
(0.416557 -0.00303828 0)
(0.417262 -0.0036864 0)
(0.418108 -0.00446785 0)
(0.419123 -0.00540285 0)
(0.42034 -0.00651589 0)
(0.421798 -0.00783638 0)
(0.423542 -0.0093972 0)
(0.425627 -0.0112346 0)
(0.428121 -0.0133902 0)
(0.431117 -0.0159083 0)
(0.434698 -0.0188452 0)
(0.439075 -0.0221997 0)
(0.444168 -0.0262017 0)
(0.451053 -0.0298914 0)
(0.412469 -0.000100165 0)
(0.412506 -0.000272347 0)
(0.412586 -0.000416084 0)
(0.412698 -0.000535829 0)
(0.412831 -0.000636348 0)
(0.41298 -0.000723726 0)
(0.413144 -0.000805895 0)
(0.413322 -0.000891622 0)
(0.413515 -0.000989736 0)
(0.413724 -0.0011092 0)
(0.413953 -0.00125963 0)
(0.414206 -0.00145175 0)
(0.414491 -0.00169777 0)
(0.414816 -0.00201118 0)
(0.415194 -0.00240647 0)
(0.415638 -0.00289895 0)
(0.416165 -0.00350497 0)
(0.416793 -0.00424252 0)
(0.417544 -0.00513197 0)
(0.418443 -0.00619688 0)
(0.419519 -0.00746519 0)
(0.420806 -0.00897035 0)
(0.422345 -0.0107518 0)
(0.424188 -0.0128552 0)
(0.426396 -0.0153343 0)
(0.429063 -0.0182483 0)
(0.432269 -0.0216702 0)
(0.436243 -0.0256324 0)
(0.440888 -0.0303536 0)
(0.447434 -0.0350821 0)
(0.412468 -0.000116457 0)
(0.412501 -0.000317119 0)
(0.412571 -0.000483902 0)
(0.412671 -0.00062145 0)
(0.412791 -0.000736008 0)
(0.412926 -0.000835099 0)
(0.413073 -0.000927429 0)
(0.413234 -0.00102261 0)
(0.413407 -0.00113085 0)
(0.413594 -0.0012625 0)
(0.413798 -0.00142804 0)
(0.414023 -0.00163908 0)
(0.414275 -0.00190924 0)
(0.414561 -0.00225391 0)
(0.414892 -0.00268947 0)
(0.415278 -0.00323291 0)
(0.415735 -0.00390217 0)
(0.416276 -0.00471688 0)
(0.416922 -0.00569937 0)
(0.417691 -0.00687569 0)
(0.418608 -0.00827706 0)
(0.419702 -0.00994127 0)
(0.421007 -0.0119139 0)
(0.42257 -0.0142495 0)
(0.424446 -0.0170137 0)
(0.42672 -0.0202828 0)
(0.429469 -0.0241507 0)
(0.432933 -0.0286905 0)
(0.436999 -0.0341154 0)
(0.443026 -0.0399254 0)
(0.412467 -0.000130761 0)
(0.412495 -0.000356495 0)
(0.412557 -0.000543879 0)
(0.412645 -0.00069761 0)
(0.412751 -0.000824867 0)
(0.41287 -0.000934352 0)
(0.413 -0.00103571 0)
(0.413141 -0.00113943 0)
(0.413293 -0.00125684 0)
(0.413456 -0.00139925 0)
(0.413633 -0.00157795 0)
(0.413828 -0.00180541 0)
(0.414044 -0.00209651 0)
(0.414288 -0.00246804 0)
(0.414567 -0.00293775 0)
(0.414891 -0.00352385 0)
(0.415271 -0.00424546 0)
(0.41572 -0.00512353 0)
(0.41625 -0.00618196 0)
(0.416878 -0.00744892 0)
(0.417622 -0.00895835 0)
(0.418503 -0.0107518 0)
(0.41955 -0.0128804 0)
(0.420799 -0.0154069 0)
(0.422295 -0.0184089 0)
(0.424116 -0.0219807 0)
(0.426326 -0.0262386 0)
(0.429164 -0.0313023 0)
(0.432505 -0.0373853 0)
(0.437787 -0.0442843 0)
(0.412466 -0.000143143 0)
(0.41249 -0.00039059 0)
(0.412544 -0.000595967 0)
(0.412619 -0.000763987 0)
(0.41271 -0.000902438 0)
(0.412812 -0.00102094 0)
(0.412924 -0.00112993 0)
(0.413045 -0.00124069 0)
(0.413174 -0.00136543 0)
(0.413312 -0.00151639 0)
(0.413461 -0.00170538 0)
(0.413623 -0.00194548 0)
(0.413801 -0.00225245 0)
(0.414 -0.00264434 0)
(0.414225 -0.00314006 0)
(0.414484 -0.00375876 0)
(0.414784 -0.00452034 0)
(0.415134 -0.00544653 0)
(0.415542 -0.00656223 0)
(0.41602 -0.00789694 0)
(0.416579 -0.0094865 0)
(0.417234 -0.0113753 0)
(0.418002 -0.0136189 0)
(0.418909 -0.0162872 0)
(0.419987 -0.0194688 0)
(0.421297 -0.0232748 0)
(0.422887 -0.0278454 0)
(0.42498 -0.0333495 0)
(0.427441 -0.040007 0)
(0.431705 -0.0479458 0)
(0.412465 -0.000153611 0)
(0.412485 -0.000419394 0)
(0.412529 -0.00064004 0)
(0.412592 -0.000820279 0)
(0.412668 -0.000968244 0)
(0.412753 -0.00109421 0)
(0.412846 -0.00120932 0)
(0.412945 -0.00132552 0)
(0.413051 -0.00145585 0)
(0.413163 -0.00161318 0)
(0.413283 -0.0018097 0)
(0.413411 -0.00205885 0)
(0.41355 -0.00237715 0)
(0.413703 -0.00278356 0)
(0.413872 -0.00329775 0)
(0.414063 -0.00393933 0)
(0.414281 -0.00472847 0)
(0.414528 -0.00568721 0)
(0.414812 -0.00684077 0)
(0.415134 -0.00821917 0)
(0.415502 -0.00985917 0)
(0.415919 -0.0118068 0)
(0.416394 -0.0141204 0)
(0.416938 -0.0168751 0)
(0.417567 -0.0201681 0)
(0.418319 -0.0241253 0)
(0.41922 -0.0289085 0)
(0.420453 -0.0347352 0)
(0.421881 -0.0418355 0)
(0.424821 -0.0506841 0)
(0.412464 -0.000162149 0)
(0.41248 -0.00044288 0)
(0.412515 -0.000675981 0)
(0.412565 -0.000866191 0)
(0.412625 -0.00102185 0)
(0.412693 -0.00115371 0)
(0.412766 -0.00127344 0)
(0.412844 -0.00139353 0)
(0.412925 -0.0015276 0)
(0.413011 -0.00168903 0)
(0.413101 -0.00189022 0)
(0.413195 -0.00214478 0)
(0.413294 -0.00246965 0)
(0.413399 -0.00288436 0)
(0.413513 -0.00340897 0)
(0.413636 -0.00406317 0)
(0.41377 -0.00486696 0)
(0.413915 -0.00584208 0)
(0.414072 -0.00701336 0)
(0.414238 -0.00841041 0)
(0.414412 -0.0100697 0)
(0.414589 -0.0120371 0)
(0.414764 -0.0143721 0)
(0.414934 -0.0171519 0)
(0.415094 -0.020479 0)
(0.415255 -0.0244896 0)
(0.415414 -0.0293626 0)
(0.415691 -0.0353568 0)
(0.415949 -0.0427136 0)
(0.417256 -0.05224 0)
(0.412463 -0.000168741 0)
(0.412475 -0.000460991 0)
(0.412501 -0.000703698 0)
(0.412538 -0.000901594 0)
(0.412582 -0.0010631 0)
(0.412632 -0.00119924 0)
(0.412685 -0.00132202 0)
(0.412741 -0.00144435 0)
(0.412799 -0.00158032 0)
(0.412857 -0.00174364 0)
(0.412917 -0.00194672 0)
(0.412977 -0.0022031 0)
(0.413036 -0.00252985 0)
(0.413095 -0.00294678 0)
(0.413153 -0.00347399 0)
(0.413209 -0.00413081 0)
(0.41326 -0.0049366 0)
(0.413305 -0.00591216 0)
(0.413337 -0.00708121 0)
(0.413349 -0.0084719 0)
(0.413332 -0.010119 0)
(0.413271 -0.0120667 0)
(0.41315 -0.0143726 0)
(0.412946 -0.0171131 0)
(0.412634 -0.0203909 0)
(0.412191 -0.024346 0)
(0.41158 -0.0291663 0)
(0.410836 -0.0351389 0)
(0.409826 -0.0425114 0)
(0.409228 -0.0523695 0)
(0.412462 -0.00017337 0)
(0.41247 -0.000473711 0)
(0.412487 -0.000723155 0)
(0.412511 -0.000926394 0)
(0.412539 -0.00109184 0)
(0.412571 -0.00123058 0)
(0.412604 -0.00135491 0)
(0.412638 -0.00147801 0)
(0.412672 -0.00161418 0)
(0.412704 -0.00177718 0)
(0.412734 -0.00197932 0)
(0.41276 -0.00223399 0)
(0.412781 -0.00255818 0)
(0.412794 -0.00297158 0)
(0.412798 -0.00349386 0)
(0.412789 -0.00414361 0)
(0.412761 -0.00493911 0)
(0.412709 -0.00589969 0)
(0.412622 -0.00704714 0)
(0.412487 -0.00840716 0)
(0.412287 -0.0100114 0)
(0.411998 -0.0119004 0)
(0.411591 -0.0141271 0)
(0.411027 -0.0167629 0)
(0.410257 -0.0199053 0)
(0.409223 -0.0236899 0)
(0.407847 -0.0283018 0)
(0.406065 -0.0340367 0)
(0.403748 -0.0411382 0)
(0.401065 -0.0508733 0)
(0.412461 -0.000176041 0)
(0.412465 -0.000481074 0)
(0.412472 -0.000734367 0)
(0.412483 -0.000940595 0)
(0.412497 -0.00110811 0)
(0.412511 -0.00124788 0)
(0.412524 -0.0013723 0)
(0.412536 -0.00149469 0)
(0.412547 -0.00162935 0)
(0.412553 -0.00178994 0)
(0.412554 -0.00198854 0)
(0.412547 -0.00223825 0)
(0.41253 -0.00255573 0)
(0.412501 -0.00296015 0)
(0.412453 -0.00347044 0)
(0.412382 -0.00410408 0)
(0.41228 -0.00487784 0)
(0.412137 -0.00580905 0)
(0.411939 -0.00691686 0)
(0.411667 -0.00822355 0)
(0.411297 -0.00975632 0)
(0.410798 -0.0115498 0)
(0.410128 -0.0136499 0)
(0.409232 -0.0161186 0)
(0.408038 -0.0190419 0)
(0.406451 -0.0225414 0)
(0.404357 -0.0267862 0)
(0.401581 -0.0320558 0)
(0.397996 -0.0385727 0)
(0.393196 -0.0476501 0)
(0.41246 -0.000176775 0)
(0.412459 -0.000483121 0)
(0.412458 -0.000737441 0)
(0.412457 -0.000944446 0)
(0.412455 -0.00111213 0)
(0.412451 -0.00125121 0)
(0.412446 -0.00137436 0)
(0.412437 -0.00149489 0)
(0.412424 -0.00162658 0)
(0.412406 -0.00178271 0)
(0.412379 -0.0019752 0)
(0.412341 -0.0022169 0)
(0.412289 -0.00252393 0)
(0.412218 -0.00291453 0)
(0.412123 -0.00340648 0)
(0.411996 -0.00401581 0)
(0.411825 -0.00475747 0)
(0.411599 -0.00564636 0)
(0.4113 -0.00669838 0)
(0.410905 -0.00793151 0)
(0.410384 -0.00936726 0)
(0.409699 -0.0110328 0)
(0.408797 -0.0129639 0)
(0.407609 -0.0152093 0)
(0.406044 -0.0178376 0)
(0.403974 -0.0209469 0)
(0.40125 -0.0246756 0)
(0.397593 -0.0292602 0)
(0.392872 -0.0348813 0)
(0.386118 -0.0427405 0)
(0.412459 -0.000175613 0)
(0.412454 -0.000479987 0)
(0.412445 -0.00073261 0)
(0.412431 -0.000938093 0)
(0.412414 -0.00110407 0)
(0.412394 -0.0012411 0)
(0.41237 -0.00136173 0)
(0.412341 -0.00147898 0)
(0.412306 -0.00160623 0)
(0.412264 -0.00175626 0)
(0.412211 -0.00194062 0)
(0.412144 -0.00217174 0)
(0.412059 -0.00246495 0)
(0.411951 -0.00283737 0)
(0.411813 -0.00330533 0)
(0.411634 -0.00388322 0)
(0.411402 -0.00458383 0)
(0.411103 -0.00541929 0)
(0.410716 -0.0064018 0)
(0.410214 -0.00754436 0)
(0.409564 -0.00886184 0)
(0.408722 -0.0103724 0)
(0.407627 -0.0120997 0)
(0.4062 -0.014076 0)
(0.404335 -0.0163468 0)
(0.401878 -0.0189787 0)
(0.398652 -0.0220659 0)
(0.394296 -0.0257771 0)
(0.388666 -0.0302298 0)
(0.380333 -0.036358 0)
(0.412458 -0.000172617 0)
(0.41245 -0.00047186 0)
(0.412432 -0.000720148 0)
(0.412406 -0.000921954 0)
(0.412375 -0.00108456 0)
(0.412339 -0.00121812 0)
(0.412297 -0.00133494 0)
(0.412249 -0.00144775 0)
(0.412194 -0.00156932 0)
(0.412129 -0.00171176 0)
(0.412051 -0.00188618 0)
(0.411958 -0.00210448 0)
(0.411843 -0.00238105 0)
(0.411702 -0.00273162 0)
(0.411525 -0.00317091 0)
(0.411301 -0.00371141 0)
(0.411017 -0.00436363 0)
(0.410655 -0.0051367 0)
(0.410193 -0.00603883 0)
(0.409604 -0.00707765 0)
(0.408851 -0.00826077 0)
(0.407885 -0.00959648 0)
(0.406643 -0.0110948 0)
(0.405039 -0.0127692 0)
(0.402958 -0.0146385 0)
(0.400231 -0.0167314 0)
(0.396664 -0.0190889 0)
(0.391846 -0.0217919 0)
(0.385619 -0.0248786 0)
(0.376271 -0.0288902 0)
(0.412457 -0.000167872 0)
(0.412445 -0.000458991 0)
(0.412419 -0.000700475 0)
(0.412383 -0.000896488 0)
(0.412339 -0.00105401 0)
(0.412287 -0.00118285 0)
(0.412229 -0.00129487 0)
(0.412163 -0.00140219 0)
(0.412088 -0.00151693 0)
(0.412002 -0.00165054 0)
(0.411903 -0.00181355 0)
(0.411785 -0.00201718 0)
(0.411644 -0.00227478 0)
(0.411473 -0.00260058 0)
(0.411262 -0.00300749 0)
(0.411 -0.00350599 0)
(0.410672 -0.00410422 0)
(0.410259 -0.00480826 0)
(0.409739 -0.00562226 0)
(0.409082 -0.00654838 0)
(0.408252 -0.00758681 0)
(0.407198 -0.00873567 0)
(0.405858 -0.00999089 0)
(0.404143 -0.011346 0)
(0.401939 -0.0127917 0)
(0.399073 -0.0143161 0)
(0.395346 -0.0159019 0)
(0.390341 -0.0175325 0)
(0.383882 -0.0191599 0)
(0.374211 -0.0208634 0)
(0.412456 -0.000161497 0)
(0.412441 -0.000441703 0)
(0.412408 -0.000674056 0)
(0.412362 -0.000862356 0)
(0.412305 -0.00101328 0)
(0.412239 -0.00113613 0)
(0.412165 -0.00124225 0)
(0.412083 -0.00134317 0)
(0.41199 -0.0014502 0)
(0.411886 -0.00157399 0)
(0.411766 -0.00172445 0)
(0.411627 -0.00191209 0)
(0.411462 -0.00214906 0)
(0.411266 -0.00244788 0)
(0.411027 -0.00281961 0)
(0.410733 -0.00327275 0)
(0.41037 -0.00381313 0)
(0.409917 -0.00444389 0)
(0.409354 -0.00516523 0)
(0.40865 -0.00597408 0)
(0.407769 -0.00686349 0)
(0.406665 -0.00782178 0)
(0.405276 -0.00883123 0)
(0.403519 -0.00986615 0)
(0.401284 -0.0108898 0)
(0.398413 -0.0118502 0)
(0.394713 -0.012674 0)
(0.389801 -0.0132474 0)
(0.383494 -0.0134385 0)
(0.374221 -0.0128657 0)
(0.412456 -0.000153641 0)
(0.412437 -0.000420432 0)
(0.412398 -0.000641515 0)
(0.412342 -0.000820244 0)
(0.412274 -0.000963089 0)
(0.412196 -0.00107882 0)
(0.412108 -0.00117815 0)
(0.41201 -0.00127199 0)
(0.411901 -0.00137059 0)
(0.41178 -0.0014837 0)
(0.411642 -0.00162065 0)
(0.411484 -0.0017913 0)
(0.4113 -0.00200649 0)
(0.411082 -0.00227693 0)
(0.41082 -0.00261175 0)
(0.410502 -0.00301756 0)
(0.410111 -0.00349805 0)
(0.409631 -0.00405366 0)
(0.409038 -0.00468102 0)
(0.408307 -0.00537235 0)
(0.407402 -0.00611433 0)
(0.406282 -0.00688653 0)
(0.40489 -0.00765906 0)
(0.403155 -0.00838903 0)
(0.400979 -0.00901531 0)
(0.398226 -0.00945018 0)
(0.394728 -0.00956969 0)
(0.390173 -0.00917722 0)
(0.384379 -0.00806448 0)
(0.376153 -0.0054644 0)
(0.412455 -0.000144494 0)
(0.412434 -0.000395688 0)
(0.412389 -0.00060362 0)
(0.412326 -0.000771062 0)
(0.412248 -0.000904331 0)
(0.412158 -0.00101189 0)
(0.412057 -0.00110367 0)
(0.411946 -0.00118961 0)
(0.411823 -0.00127915 0)
(0.411686 -0.00138125 0)
(0.411533 -0.00150443 0)
(0.411359 -0.00165747 0)
(0.411158 -0.00184989 0)
(0.410923 -0.00209081 0)
(0.410643 -0.00238767 0)
(0.410306 -0.0027453 0)
(0.409897 -0.0031654 0)
(0.409398 -0.003646 0)
(0.40879 -0.00418077 0)
(0.408048 -0.00475801 0)
(0.407143 -0.0053592 0)
(0.406037 -0.00595686 0)
(0.404685 -0.00651128 0)
(0.403027 -0.00696579 0)
(0.400987 -0.00723974 0)
(0.39846 -0.00721753 0)
(0.395315 -0.00673363 0)
(0.391336 -0.00553135 0)
(0.386348 -0.00334585 0)
(0.379668 0.00083293 0)
(0.412455 -0.000134317 0)
(0.412432 -0.000368139 0)
(0.412383 -0.000561281 0)
(0.412313 -0.000715845 0)
(0.412227 -0.000838085 0)
(0.412127 -0.000936341 0)
(0.412015 -0.00101978 0)
(0.411891 -0.00109732 0)
(0.411755 -0.00117747 0)
(0.411606 -0.00126831 0)
(0.411439 -0.00137752 0)
(0.411252 -0.00151289 0)
(0.411038 -0.00168254 0)
(0.410789 -0.00189403 0)
(0.410495 -0.00215316 0)
(0.410145 -0.00246315 0)
(0.409724 -0.00282401 0)
(0.409217 -0.00323194 0)
(0.408605 -0.00367833 0)
(0.407868 -0.00414864 0)
(0.40698 -0.00462063 0)
(0.405914 -0.0050618 0)
(0.404635 -0.0054256 0)
(0.4031 -0.00564633 0)
(0.401256 -0.00563016 0)
(0.399039 -0.00524334 0)
(0.396357 -0.00429648 0)
(0.39311 -0.00249438 0)
(0.38912 0.000455393 0)
(0.384306 0.00567508 0)
(0.412454 -0.000123463 0)
(0.41243 -0.000338693 0)
(0.412379 -0.000515576 0)
(0.412305 -0.000655648 0)
(0.412212 -0.000765521 0)
(0.412103 -0.00085349 0)
(0.411981 -0.000927764 0)
(0.411846 -0.000996153 0)
(0.4117 -0.00106628 0)
(0.411539 -0.00114538 0)
(0.411361 -0.00124016 0)
(0.411163 -0.0013573 0)
(0.410938 -0.00150361 0)
(0.410678 -0.00168528 0)
(0.410375 -0.00190671 0)
(0.410017 -0.00216968 0)
(0.409591 -0.00247289 0)
(0.409082 -0.00281118 0)
(0.408476 -0.00317449 0)
(0.407755 -0.00354659 0)
(0.4069 -0.00390324 0)
(0.405893 -0.00420945 0)
(0.404709 -0.0044153 0)
(0.403327 -0.00445045 0)
(0.401719 -0.00421475 0)
(0.399861 -0.00356899 0)
(0.39771 -0.00231542 0)
(0.395276 -0.000150935 0)
(0.392398 0.00323554 0)
(0.389554 0.0089329 0)
(0.412454 -0.000112504 0)
(0.41243 -0.000308677 0)
(0.412379 -0.000467719 0)
(0.412302 -0.000591201 0)
(0.412204 -0.000687309 0)
(0.412088 -0.000764642 0)
(0.411958 -0.000829939 0)
(0.411814 -0.000889653 0)
(0.411658 -0.000950478 0)
(0.411488 -0.00101874 0)
(0.411302 -0.00110025 0)
(0.411094 -0.00120054 0)
(0.410861 -0.00132507 0)
(0.410594 -0.00147861 0)
(0.410285 -0.00166426 0)
(0.409923 -0.00188272 0)
(0.409496 -0.00213177 0)
(0.408992 -0.00240562 0)
(0.408398 -0.00269372 0)
(0.407701 -0.0029794 0)
(0.406889 -0.00323808 0)
(0.405951 -0.0034346 0)
(0.404877 -0.00351946 0)
(0.403665 -0.00342344 0)
(0.40231 -0.00304888 0)
(0.400829 -0.00225886 0)
(0.399226 -0.000859169 0)
(0.397619 0.00143372 0)
(0.395862 0.00493839 0)
(0.394904 0.0105611 0)
(0.412455 -0.000102302 0)
(0.412433 -0.000280263 0)
(0.412385 -0.000420284 0)
(0.412308 -0.000524345 0)
(0.412206 -0.000603219 0)
(0.412083 -0.000666427 0)
(0.411946 -0.000719748 0)
(0.411795 -0.000768486 0)
(0.411631 -0.000818254 0)
(0.411453 -0.000874331 0)
(0.411259 -0.000941369 0)
(0.411045 -0.00102364 0)
(0.410806 -0.00112543 0)
(0.410534 -0.00125044 0)
(0.410222 -0.00140064 0)
(0.409859 -0.00157576 0)
(0.409435 -0.001773 0)
(0.408939 -0.00198633 0)
(0.408361 -0.0022055 0)
(0.407692 -0.00241475 0)
(0.406927 -0.00259113 0)
(0.406062 -0.00270187 0)
(0.405101 -0.00270071 0)
(0.404055 -0.00252375 0)
(0.402948 -0.00208336 0)
(0.401835 -0.00125608 0)
(0.400759 0.000132648 0)
(0.39993 0.00233431 0)
(0.39922 0.00565062 0)
(0.399924 0.0107264 0)
(0.412457 -9.44341e-05 0)
(0.412441 -0.000254464 0)
(0.412401 -0.000375323 0)
(0.412329 -0.000462408 0)
(0.412224 -0.000528468 0)
(0.412097 -0.000581506 0)
(0.411953 -0.000625483 0)
(0.411797 -0.000665045 0)
(0.411626 -0.000705364 0)
(0.411442 -0.000750862 0)
(0.411242 -0.000805236 0)
(0.411023 -0.000871598 0)
(0.410779 -0.000952903 0)
(0.410505 -0.00105185 0)
(0.410191 -0.00116942 0)
(0.40983 -0.00130449 0)
(0.409411 -0.00145423 0)
(0.408926 -0.00161329 0)
(0.408366 -0.00177262 0)
(0.407727 -0.0019182 0)
(0.407008 -0.0020299 0)
(0.406214 -0.00207961 0)
(0.405358 -0.00202869 0)
(0.404468 -0.00182355 0)
(0.403584 -0.00138999 0)
(0.402794 -0.000626218 0)
(0.402184 0.000618028 0)
(0.402027 0.00254966 0)
(0.40222 0.005434 0)
(0.404272 0.00958528 0)
(0.412461 -9.4601e-05 0)
(0.412457 -0.000229982 0)
(0.412428 -0.000312072 0)
(0.41236 -0.000367462 0)
(0.412254 -0.000411971 0)
(0.412123 -0.00044971 0)
(0.411976 -0.000480491 0)
(0.411815 -0.00050919 0)
(0.41164 -0.000539678 0)
(0.411452 -0.000574961 0)
(0.411248 -0.000617274 0)
(0.411026 -0.000668129 0)
(0.41078 -0.000729304 0)
(0.410505 -0.00080234 0)
(0.410192 -0.000887736 0)
(0.409831 -0.000983907 0)
(0.409417 -0.00108793 0)
(0.408942 -0.0011955 0)
(0.4084 -0.0012993 0)
(0.407789 -0.00138825 0)
(0.407112 -0.00144658 0)
(0.406379 -0.00145115 0)
(0.405612 -0.00137081 0)
(0.404851 -0.001167 0)
(0.404155 -0.000792993 0)
(0.403636 -0.000189074 0)
(0.403418 0.000765008 0)
(0.403802 0.00225881 0)
(0.404701 0.00450449 0)
(0.407718 0.00747409 0)
(0.41247 -0.000125612 0)
(0.412523 -0.000269028 0)
(0.412498 -0.000332797 0)
(0.41242 -0.000360302 0)
(0.412306 -0.000381647 0)
(0.412175 -0.000399577 0)
(0.412031 -0.000416009 0)
(0.411872 -0.000432541 0)
(0.411698 -0.000450974 0)
(0.411506 -0.00047278 0)
(0.411294 -0.000499558 0)
(0.411057 -0.000533105 0)
(0.41079 -0.000574461 0)
(0.410487 -0.000622533 0)
(0.410143 -0.000676436 0)
(0.409751 -0.000736731 0)
(0.409308 -0.000801563 0)
(0.40881 -0.000866108 0)
(0.408256 -0.000924421 0)
(0.407651 -0.000969386 0)
(0.407006 -0.000991736 0)
(0.406342 -0.000978454 0)
(0.40569 -0.000909716 0)
(0.405098 -0.000753589 0)
(0.404639 -0.000469666 0)
(0.404396 -2.02323e-05 0)
(0.404369 0.000654995 0)
(0.404895 0.00164767 0)
(0.406347 0.00314358 0)
(0.409503 0.00475423 0)
(0.412267 -7.93136e-05 0)
(0.412102 -0.000157356 0)
(0.411809 -0.000182818 0)
(0.411431 -0.000197252 0)
(0.411026 -0.000211988 0)
(0.410608 -0.000225202 0)
(0.410175 -0.000235803 0)
(0.409725 -0.000244783 0)
(0.409259 -0.000253338 0)
(0.408773 -0.000262301 0)
(0.408266 -0.000272201 0)
(0.407732 -0.000283342 0)
(0.407166 -0.000296118 0)
(0.40656 -0.000311409 0)
(0.405909 -0.000330147 0)
(0.405206 -0.000351892 0)
(0.404445 -0.000375172 0)
(0.403625 -0.000399068 0)
(0.402747 -0.000422184 0)
(0.401819 -0.000441773 0)
(0.400858 -0.000453286 0)
(0.399889 -0.000448322 0)
(0.398957 -0.000417549 0)
(0.398129 -0.000357663 0)
(0.397501 -0.000251317 0)
(0.397222 -5.21771e-05 0)
(0.397511 0.00025185 0)
(0.39861 0.000630734 0)
(0.400818 0.00120932 0)
(0.405396 0.00164103 0)
(0.459769 -0.00508531 -1.03227e-19)
(0.463476 -0.00768218 -1.03005e-19)
(0.466496 -0.010725 -1.46635e-18)
(0.46873 -0.013999 -4.22577e-19)
(0.470579 -0.0174613 4.29229e-19)
(0.472215 -0.0211073 0)
(0.473682 -0.0249597 0)
(0.475029 -0.0290522 4.41218e-19)
(0.476318 -0.0334145 -4.49147e-19)
(0.477592 -0.0380715 -9.03904e-19)
(0.478869 -0.0430511 9.20882e-19)
(0.48015 -0.0483899 0)
(0.48143 -0.0541362 -9.38904e-19)
(0.482705 -0.0603524 9.57743e-19)
(0.483977 -0.0671157 0)
(0.485246 -0.0745212 1.94714e-18)
(0.486516 -0.0826851 9.88551e-19)
(0.487785 -0.0917502 9.84831e-19)
(0.489048 -0.101894 1.01214e-18)
(0.490292 -0.113339 1.0027e-18)
(0.491494 -0.126367 -1.03157e-18)
(0.49262 -0.14134 3.12468e-18)
(0.493599 -0.158732 0)
(0.494376 -0.17914 -2.07204e-18)
(0.49466 -0.20346 1.03028e-18)
(0.494573 -0.232588 -2.06629e-18)
(0.492725 -0.268464 -2.9876e-18)
(0.490124 -0.313705 0)
(0.484271 -0.361688 0)
(0.467917 -0.46502 -3.34761e-19)
(0.463596 -0.0111272 -1.69036e-18)
(0.465612 -0.0137997 0)
(0.467133 -0.0169696 0)
(0.468261 -0.0203561 -1.7442e-18)
(0.469285 -0.0239083 1.76556e-18)
(0.470321 -0.0276556 1.7877e-18)
(0.471365 -0.0316331 -4.49655e-19)
(0.472412 -0.0358634 4.57858e-19)
(0.473466 -0.0403622 1.39921e-18)
(0.47452 -0.0451506 2.35783e-18)
(0.475555 -0.0502613 -9.49232e-19)
(0.476554 -0.0557399 1.94922e-18)
(0.477505 -0.0616432 9.82684e-19)
(0.478403 -0.0680394 1.01339e-18)
(0.479245 -0.0750088 1.01336e-18)
(0.480024 -0.0826472 2.07134e-18)
(0.480728 -0.0910704 0)
(0.481338 -0.10042 -1.05464e-18)
(0.481825 -0.110871 -1.09699e-18)
(0.482147 -0.122641 0)
(0.482244 -0.136005 1.10105e-18)
(0.482036 -0.151307 1.15361e-18)
(0.481389 -0.168996 -2.31605e-18)
(0.480162 -0.189626 0)
(0.477962 -0.214022 1.13828e-18)
(0.474785 -0.242937 1.21033e-18)
(0.468897 -0.278345 -2.38077e-18)
(0.461936 -0.321045 1.08125e-18)
(0.448832 -0.370209 -1.12773e-18)
(0.426931 -0.461813 4.6094e-19)
(0.462248 -0.0168626 1.72178e-18)
(0.46345 -0.0195058 0)
(0.464436 -0.0226729 -2.20072e-19)
(0.465392 -0.0260954 3.80052e-18)
(0.46638 -0.029705 -1.35297e-18)
(0.467382 -0.0335141 -2.74541e-18)
(0.468354 -0.0375448 2.33666e-18)
(0.469274 -0.041814 -4.70838e-19)
(0.470131 -0.0463444 -1.42596e-18)
(0.470919 -0.0511703 -4.61301e-19)
(0.471629 -0.0563359 4.95102e-19)
(0.472258 -0.0618922 -2.99788e-18)
(0.472802 -0.0678963 2.04265e-18)
(0.473254 -0.0744139 -3.10386e-18)
(0.473602 -0.0815222 0)
(0.473826 -0.0893147 -2.13467e-18)
(0.473897 -0.0979049 0)
(0.473776 -0.107432 0)
(0.473413 -0.118065 2.25216e-18)
(0.472741 -0.130015 0)
(0.471665 -0.143543 0)
(0.470062 -0.158973 -2.37586e-18)
(0.467745 -0.176724 2.41609e-18)
(0.464495 -0.197303 0)
(0.459838 -0.221452 0)
(0.453636 -0.249828 -2.51336e-18)
(0.443976 -0.284262 1.09664e-18)
(0.432782 -0.324633 -6.99696e-19)
(0.41256 -0.373876 -6.70409e-19)
(0.38602 -0.45406 0)
(0.460602 -0.0228837 -5.50873e-20)
(0.461495 -0.0256149 -5.56443e-20)
(0.462209 -0.0288248 1.71061e-18)
(0.463 -0.0322672 -3.68186e-18)
(0.463808 -0.0358864 2.33816e-19)
(0.464547 -0.0397013 4.72885e-19)
(0.465197 -0.0437428 -4.59444e-19)
(0.465766 -0.0480377 0)
(0.466256 -0.0526152 2.49844e-18)
(0.466665 -0.0575108 -4.55293e-18)
(0.466984 -0.0627652 2.0753e-18)
(0.467202 -0.068424 1.04639e-18)
(0.467304 -0.07454 -3.22617e-18)
(0.467269 -0.0811765 0)
(0.467069 -0.08841 0)
(0.466672 -0.0963328 2.29598e-18)
(0.466033 -0.105056 2.34801e-18)
(0.465099 -0.114713 1.18312e-18)
(0.463798 -0.125467 -4.60577e-21)
(0.462037 -0.137513 -1.24428e-18)
(0.459692 -0.151095 0)
(0.456596 -0.16651 0)
(0.452513 -0.184135 -1.40265e-18)
(0.447159 -0.204421 -4.19896e-18)
(0.439994 -0.228015 0)
(0.430764 -0.255461 -1.55716e-18)
(0.417441 -0.288383 2.85582e-18)
(0.402146 -0.326143 -5.50057e-18)
(0.375161 -0.37356 7.97018e-19)
(0.34558 -0.442247 0)
(0.458225 -0.0288034 0)
(0.458793 -0.0315539 1.85109e-18)
(0.459166 -0.0347522 -1.62878e-18)
(0.45968 -0.038188 1.65281e-18)
(0.460218 -0.0418199 2.40919e-19)
(0.460656 -0.0456665 -2.45586e-19)
(0.460987 -0.0497546 -1.98337e-18)
(0.46123 -0.0541072 0)
(0.461384 -0.0587494 3.21411e-20)
(0.461433 -0.0637131 2.09239e-18)
(0.461357 -0.0690368 -2.66977e-18)
(0.461136 -0.0747657 2.76592e-18)
(0.460748 -0.0809535 2.78047e-18)
(0.460162 -0.0876637 -5.73313e-19)
(0.459345 -0.0949715 3.54395e-18)
(0.458252 -0.102966 -2.34159e-18)
(0.45683 -0.111751 -2.46517e-18)
(0.455006 -0.121452 -1.2634e-18)
(0.452692 -0.132219 0)
(0.449768 -0.144231 0)
(0.446081 -0.157709 0)
(0.441429 -0.172916 1.41701e-18)
(0.435537 -0.190182 4.40353e-18)
(0.428063 -0.209896 1.45101e-18)
(0.418424 -0.232599 3.15039e-18)
(0.40626 -0.258727 -1.8414e-18)
(0.389518 -0.289666 3.54148e-18)
(0.370343 -0.324449 -2.85153e-19)
(0.337408 -0.368751 2.99896e-18)
(0.306026 -0.42643 5.12158e-18)
(0.45512 -0.0345855 -1.87999e-18)
(0.455376 -0.0373728 -1.89046e-18)
(0.455413 -0.0405915 -1.94734e-18)
(0.455644 -0.0440512 0)
(0.455906 -0.0477136 0)
(0.45604 -0.0515928 -2.05404e-18)
(0.456035 -0.0557124 0)
(0.455917 -0.0600949 1.60738e-18)
(0.455683 -0.0647666 -3.78273e-18)
(0.455308 -0.0697604 2.22822e-18)
(0.454767 -0.0751154 1.71526e-18)
(0.454037 -0.0808766 -4.61492e-18)
(0.45309 -0.0870958 3.42827e-22)
(0.45189 -0.0938331 -1.84568e-18)
(0.450393 -0.101158 6.32842e-20)
(0.448545 -0.109154 -2.51804e-18)
(0.446276 -0.117915 -7.60404e-20)
(0.4435 -0.127556 2.74676e-18)
(0.44011 -0.138211 -1.44236e-18)
(0.435964 -0.150041 -1.43994e-18)
(0.430886 -0.163237 3.04537e-18)
(0.424644 -0.178027 0)
(0.41693 -0.194687 -3.15541e-18)
(0.40736 -0.213537 0)
(0.395324 -0.235009 -3.62801e-18)
(0.380375 -0.259431 3.60537e-18)
(0.360505 -0.287928 2.62983e-19)
(0.337765 -0.31932 4.02505e-18)
(0.299869 -0.359446 -5.38826e-18)
(0.267735 -0.406716 1.70776e-18)
(0.45121 -0.0401686 1.8598e-18)
(0.451138 -0.0429863 -6.14451e-20)
(0.450817 -0.0462147 2.3676e-18)
(0.450731 -0.0496801 7.74561e-19)
(0.45068 -0.0533477 0)
(0.450469 -0.0572315 2.10588e-18)
(0.450085 -0.0613546 1.63572e-18)
(0.449562 -0.0657402 -2.74765e-18)
(0.448895 -0.0704142 1.09809e-18)
(0.448054 -0.0754082 -1.12181e-18)
(0.447008 -0.0807591 -2.34751e-18)
(0.445728 -0.0865085 2.40559e-18)
(0.44418 -0.0927042 -6.40677e-19)
(0.442321 -0.0994013 1.89322e-18)
(0.440096 -0.106664 -6.05328e-19)
(0.437441 -0.114566 -6.79877e-19)
(0.434275 -0.123193 4.19643e-18)
(0.4305 -0.132647 -4.33839e-18)
(0.425991 -0.143044 2.96029e-18)
(0.420592 -0.154521 8.11382e-19)
(0.414104 -0.167238 -2.38118e-18)
(0.406275 -0.181382 1.73909e-18)
(0.396774 -0.197174 0)
(0.385187 -0.214861 -9.40744e-19)
(0.370896 -0.234768 4.84881e-18)
(0.353386 -0.257116 0)
(0.330762 -0.282752 -7.83307e-18)
(0.304887 -0.310395 1.21413e-18)
(0.263163 -0.345583 0)
(0.231104 -0.383231 -5.58736e-18)
(0.446408 -0.0454087 -1.00932e-18)
(0.445987 -0.0482475 -1.27703e-19)
(0.445287 -0.0514701 -7.91957e-19)
(0.444856 -0.0549209 -1.18845e-18)
(0.444462 -0.0585704 2.71508e-19)
(0.443876 -0.0624325 -2.7745e-19)
(0.443084 -0.0665293 -1.12403e-18)