/*--------------------------------*- C++ -*----------------------------------*\
  =========                 |
  \\      /  F ield         | OpenFOAM: The Open Source CFD Toolbox
   \\    /   O peration     | Website:  https://openfoam.org
    \\  /    A nd           | Version:  11
     \\/     M anipulation  |
\*---------------------------------------------------------------------------*/
FoamFile
{
    format      ascii;
    class       volScalarField;
    location    "4.9";
    object      p;
}
// * * * * * * * * * * * * * * * * * * * * * * * * * * * * * * * * * * * * * //

dimensions      [0 2 -2 0 0 0 0];

internalField   nonuniform List<scalar> 
12600
(
0.0783725
0.0782356
0.0781722
0.0781544
0.0781391
0.0781183
0.0780954
0.0780722
0.0780483
0.0780227
0.0779948
0.0779638
0.0779291
0.0778898
0.0778449
0.0777931
0.0777328
0.077662
0.0775781
0.0774785
0.0773595
0.0772164
0.0770431
0.0768327
0.0765769
0.0762639
0.0758789
0.0754
0.0747957
0.0739777
0.0782956
0.0782268
0.0781747
0.0781533
0.0781371
0.078117
0.0780947
0.0780717
0.0780479
0.0780226
0.0779949
0.0779642
0.0779298
0.0778908
0.0778463
0.077795
0.0777353
0.0776652
0.0775823
0.0774838
0.0773662
0.077225
0.0770542
0.0768471
0.0765946
0.0762856
0.0759079
0.0754416
0.0749002
0.0743018
0.0782607
0.078228
0.0781827
0.0781552
0.0781375
0.0781182
0.0780965
0.0780737
0.07805
0.0780249
0.0779975
0.0779671
0.0779331
0.0778947
0.077851
0.0778005
0.077742
0.0776735
0.0775926
0.0774962
0.0773811
0.0772427
0.0770759
0.0768737
0.0766274
0.0763269
0.0759607
0.0755142
0.0749893
0.0743569
0.0782356
0.0782152
0.0781797
0.0781526
0.0781345
0.0781163
0.0780955
0.0780733
0.0780502
0.0780257
0.0779988
0.0779691
0.0779359
0.0778985
0.0778558
0.0778067
0.0777496
0.0776833
0.0776049
0.0775117
0.0774002
0.0772665
0.0771055
0.0769106
0.0766736
0.076385
0.0760332
0.0756053
0.0750885
0.0744594
0.0782173
0.078204
0.0781777
0.0781533
0.0781349
0.0781173
0.0780972
0.0780756
0.0780531
0.078029
0.0780028
0.0779739
0.0779417
0.0779054
0.0778642
0.0778169
0.0777619
0.0776976
0.0776223
0.077533
0.0774265
0.0772989
0.0771454
0.0769598
0.0767345
0.0764603
0.076126
0.0757189
0.0752194
0.0746102
0.0782038
0.0781945
0.0781744
0.0781526
0.0781342
0.0781168
0.0780977
0.0780768
0.0780548
0.0780314
0.0780061
0.0779781
0.077947
0.077912
0.0778724
0.0778271
0.0777749
0.0777138
0.0776423
0.0775578
0.0774572
0.077337
0.0771925
0.0770182
0.076807
0.0765502
0.0762369
0.0758545
0.075381
0.0748008
0.0781936
0.0781867
0.0781708
0.0781517
0.0781341
0.0781172
0.078099
0.0780791
0.0780579
0.0780353
0.0780109
0.0779841
0.0779544
0.077921
0.0778833
0.0778404
0.0777911
0.0777337
0.0776667
0.0775877
0.077494
0.0773822
0.0772484
0.0770872
0.0768922
0.0766555
0.0763666
0.0760135
0.0755734
0.0750325
0.0781858
0.0781804
0.0781675
0.0781509
0.0781343
0.0781179
0.0781005
0.0780815
0.0780611
0.0780394
0.0780159
0.0779902
0.0779619
0.0779305
0.077895
0.0778548
0.0778087
0.0777555
0.0776935
0.0776207
0.0775348
0.0774327
0.0773107
0.0771643
0.0769877
0.0767737
0.0765125
0.0761933
0.0757939
0.0753017
0.07818
0.0781756
0.0781648
0.0781502
0.0781347
0.078119
0.0781023
0.0780842
0.0780647
0.078044
0.0780216
0.0779974
0.0779707
0.0779412
0.0779082
0.077871
0.0778287
0.07778
0.0777235
0.0776577
0.0775803
0.0774887
0.0773799
0.0772497
0.0770933
0.0769044
0.0766743
0.0763933
0.0760409
0.0756064
0.0781757
0.078172
0.0781628
0.0781498
0.0781353
0.0781204
0.0781045
0.0780872
0.0780687
0.078049
0.0780279
0.078005
0.0779801
0.0779528
0.0779224
0.0778885
0.07785
0.0778062
0.0777558
0.0776974
0.0776292
0.077549
0.0774543
0.0773417
0.0772071
0.0770453
0.0768491
0.0766103
0.076311
0.0759421
0.0781728
0.0781695
0.0781615
0.0781498
0.0781363
0.0781221
0.0781069
0.0780906
0.078073
0.0780544
0.0780345
0.0780133
0.0779903
0.0779652
0.0779377
0.0779071
0.0778729
0.0778343
0.0777903
0.0777398
0.0776814
0.0776133
0.0775335
0.0774396
0.0773281
0.0771953
0.0770354
0.0768421
0.0766009
0.0763049
0.0781711
0.0781681
0.0781609
0.0781502
0.0781377
0.0781241
0.0781097
0.0780942
0.0780776
0.0780601
0.0780416
0.0780219
0.0780009
0.0779783
0.0779537
0.0779267
0.077897
0.0778638
0.0778265
0.0777843
0.077736
0.0776805
0.0776164
0.0775418
0.0774546
0.077352
0.0772302
0.0770851
0.0769061
0.076689
0.0781703
0.0781676
0.078161
0.0781511
0.0781393
0.0781265
0.0781127
0.0780981
0.0780825
0.0780661
0.078049
0.078031
0.078012
0.0779918
0.0779703
0.0779471
0.0779219
0.0778944
0.077864
0.0778303
0.0777925
0.07775
0.077702
0.0776473
0.077585
0.0775136
0.0774311
0.077336
0.077222
0.0770881
0.0781705
0.078168
0.0781618
0.0781525
0.0781414
0.0781291
0.078116
0.0781022
0.0780876
0.0780724
0.0780566
0.0780403
0.0780234
0.0780058
0.0779873
0.0779679
0.0779474
0.0779257
0.0779024
0.0778773
0.0778503
0.077821
0.0777892
0.0777548
0.0777176
0.0776777
0.0776352
0.0775908
0.0775431
0.077495
0.0781716
0.0781692
0.0781633
0.0781544
0.0781437
0.078132
0.0781196
0.0781065
0.0780928
0.0780787
0.0780644
0.0780498
0.078035
0.0780199
0.0780046
0.0779891
0.0779733
0.0779573
0.0779412
0.0779249
0.0779086
0.0778925
0.077877
0.0778628
0.0778508
0.0778423
0.0778395
0.0778455
0.0778641
0.0779017
0.0781735
0.0781711
0.0781654
0.0781568
0.0781464
0.0781352
0.0781233
0.0781109
0.0780981
0.0780852
0.0780722
0.0780593
0.0780466
0.0780341
0.078022
0.0780103
0.0779993
0.0779891
0.07798
0.0779724
0.0779668
0.0779638
0.0779645
0.0779702
0.0779829
0.0780052
0.0780411
0.0780963
0.0781791
0.0783001
0.0781761
0.0781738
0.0781681
0.0781596
0.0781494
0.0781385
0.0781271
0.0781154
0.0781035
0.0780917
0.07808
0.0780688
0.0780582
0.0780482
0.0780392
0.0780314
0.078025
0.0780205
0.0780184
0.0780194
0.0780242
0.0780341
0.0780506
0.0780757
0.0781122
0.0781642
0.0782372
0.0783391
0.0784827
0.0786819
0.0781797
0.0781773
0.0781714
0.0781627
0.0781527
0.078142
0.0781311
0.07812
0.0781089
0.0780981
0.0780878
0.0780782
0.0780696
0.0780621
0.0780562
0.078052
0.0780502
0.0780513
0.0780561
0.0780653
0.0780804
0.0781027
0.0781343
0.078178
0.0782374
0.0783175
0.0784254
0.0785707
0.0787697
0.0790398
0.078184
0.0781815
0.0781753
0.0781663
0.0781561
0.0781456
0.0781351
0.0781245
0.0781142
0.0781044
0.0780953
0.0780874
0.0780807
0.0780756
0.0780726
0.0780721
0.0780747
0.0780812
0.0780925
0.0781098
0.0781346
0.0781687
0.0782149
0.0782762
0.078357
0.0784632
0.0786031
0.0787878
0.079036
0.0793673
0.0781892
0.0781865
0.0781797
0.0781702
0.0781597
0.0781493
0.0781391
0.0781291
0.0781194
0.0781104
0.0781026
0.0780962
0.0780913
0.0780886
0.0780884
0.0780913
0.0780982
0.0781098
0.0781273
0.0781522
0.0781862
0.0782316
0.0782913
0.0783691
0.0784698
0.0785999
0.0787687
0.078988
0.0792781
0.0796597
0.0781955
0.0781923
0.0781847
0.0781743
0.0781634
0.078153
0.0781431
0.0781334
0.0781243
0.0781163
0.0781096
0.0781045
0.0781015
0.0781009
0.0781033
0.0781095
0.0781204
0.0781368
0.0781602
0.0781922
0.0782349
0.0782907
0.078363
0.0784558
0.0785745
0.0787262
0.0789204
0.0791695
0.0794938
0.0799142
0.0782028
0.0781991
0.0781902
0.0781785
0.0781671
0.0781568
0.078147
0.0781376
0.078129
0.0781217
0.0781161
0.0781124
0.078111
0.0781124
0.0781174
0.0781266
0.0781411
0.0781621
0.0781909
0.0782295
0.0782801
0.0783455
0.0784293
0.0785357
0.0786707
0.0788413
0.0790575
0.0793314
0.0796824
0.0801302
0.0782114
0.0782069
0.0781961
0.0781827
0.0781707
0.0781604
0.0781508
0.0781416
0.0781334
0.0781268
0.0781221
0.0781196
0.0781196
0.0781229
0.0781301
0.0781421
0.07816
0.0781851
0.0782189
0.0782635
0.0783213
0.0783953
0.0784893
0.0786079
0.0787571
0.0789441
0.0791787
0.0794727
0.0798436
0.0803087
0.0782218
0.0782158
0.0782022
0.0781868
0.0781742
0.0781639
0.0781543
0.0781452
0.0781374
0.0781315
0.0781277
0.0781263
0.0781277
0.0781326
0.0781419
0.0781564
0.0781774
0.0782061
0.0782444
0.0782943
0.0783585
0.0784402
0.0785432
0.0786724
0.0788338
0.0790346
0.0792844
0.0795943
0.0799793
0.0804536
0.0782342
0.078226
0.0782084
0.0781905
0.0781775
0.0781673
0.0781574
0.0781482
0.0781407
0.0781353
0.0781322
0.0781317
0.0781343
0.0781407
0.0781518
0.0781685
0.0781921
0.078224
0.0782662
0.0783208
0.0783906
0.0784788
0.0785896
0.0787278
0.0788994
0.0791117
0.0793736
0.0796956
0.0800905
0.0805686
0.0782497
0.0782375
0.0782138
0.0781935
0.0781809
0.0781709
0.0781608
0.0781515
0.0781443
0.0781394
0.078137
0.0781372
0.0781408
0.0781485
0.0781611
0.0781796
0.0782055
0.0782402
0.0782856
0.0783441
0.0784186
0.0785124
0.0786296
0.0787752
0.0789551
0.0791763
0.0794475
0.0797784
0.0801807
0.0806608
0.0782696
0.0782503
0.0782176
0.0781948
0.0781827
0.0781727
0.0781621
0.0781528
0.0781459
0.0781415
0.0781395
0.0781405
0.078145
0.0781537
0.0781676
0.0781877
0.0782154
0.0782524
0.0783005
0.0783623
0.0784406
0.0785387
0.0786611
0.0788127
0.078999
0.0792269
0.0795047
0.0798417
0.0802508
0.0807334
0.0782959
0.0782644
0.0782219
0.0781989
0.0781874
0.0781765
0.0781653
0.0781558
0.0781491
0.0781448
0.0781432
0.0781446
0.0781496
0.0781591
0.0781738
0.0781951
0.0782242
0.0782629
0.078313
0.0783772
0.0784585
0.0785599
0.0786859
0.0788418
0.0790328
0.0792652
0.0795469
0.0798865
0.0803025
0.0807969
0.0783317
0.0782641
0.0782149
0.0781981
0.0781883
0.0781767
0.0781651
0.0781559
0.0781494
0.0781455
0.0781442
0.0781459
0.0781515
0.0781615
0.078177
0.0781991
0.0782292
0.078269
0.0783207
0.0783865
0.0784696
0.0785736
0.0787025
0.0788612
0.0790549
0.0792899
0.0795728
0.0799105
0.0803232
0.0808494
0.0784091
0.0782732
0.0782128
0.0781997
0.078191
0.0781786
0.0781666
0.0781573
0.0781509
0.078147
0.0781457
0.0781477
0.0781534
0.0781637
0.0781795
0.078202
0.0782325
0.0782729
0.0783253
0.078392
0.078476
0.0785814
0.078712
0.0788719
0.079067
0.0793031
0.0795853
0.0799183
0.0802897
0.0806825
0.0738945
0.0731342
0.0727497
0.0726812
0.0725894
0.0723956
0.072164
0.0719354
0.0717169
0.0715061
0.0713027
0.0711075
0.0709207
0.0707412
0.0705679
0.0703993
0.0702339
0.0700698
0.0699039
0.0697319
0.0695469
0.0693346
0.0690868
0.0687033
0.0683461
0.066962
0.06699
0.0590922
0.06285
0.0130942
0.0743558
0.0736564
0.0731743
0.0730113
0.0728639
0.0726525
0.0724231
0.0722178
0.0720327
0.0718576
0.0716908
0.0715338
0.0713874
0.0712513
0.0711254
0.07101
0.0709055
0.0708122
0.0707303
0.0706596
0.0705988
0.0705445
0.0704896
0.0703963
0.0703045
0.0696813
0.0697985
0.0645276
0.0674116
0.0270803
0.073965
0.0735596
0.0732679
0.0731504
0.0730302
0.0728538
0.0726696
0.0725078
0.0723616
0.0722224
0.0720915
0.0719726
0.0718672
0.071776
0.0717001
0.0716414
0.0716021
0.0715848
0.0715931
0.071631
0.0717034
0.0718156
0.0719711
0.0721646
0.0724054
0.0724472
0.0729054
0.0699153
0.0724329
0.0411047
0.073969
0.0737547
0.0735761
0.0734406
0.073304
0.0731482
0.0729974
0.0728667
0.0727509
0.0726453
0.0725518
0.0724737
0.0724127
0.0723703
0.072349
0.0723521
0.0723837
0.0724493
0.0725556
0.0727115
0.0729282
0.0732199
0.0736026
0.0740956
0.0747127
0.0753813
0.0763547
0.0753888
0.0779724
0.0549427
0.0740942
0.0739484
0.073822
0.0736986
0.0735784
0.0734608
0.0733525
0.0732587
0.0731784
0.0731105
0.0730576
0.0730228
0.0730089
0.0730185
0.0730554
0.0731248
0.0732328
0.0733875
0.0735992
0.0738816
0.0742525
0.0747353
0.0753593
0.0761647
0.0771881
0.0784618
0.080081
0.080909
0.0839459
0.0685153
0.0742951
0.0741975
0.0741183
0.0740224
0.0739259
0.0738396
0.0737654
0.0737048
0.0736587
0.0736286
0.0736171
0.0736276
0.0736632
0.0737281
0.0738273
0.0739675
0.074157
0.0744069
0.074731
0.0751479
0.0756822
0.0763666
0.0772441
0.0783748
0.0798237
0.0816952
0.0840416
0.0864712
0.0902522
0.0817176
0.074555
0.0744944
0.0744513
0.0743819
0.0743108
0.0742555
0.0742164
0.0741919
0.0741835
0.0741939
0.0742264
0.0742846
0.0743727
0.0744961
0.0746611
0.0748763
0.0751522
0.0755026
0.0759453
0.0765039
0.0772095
0.0781045
0.0792452
0.080711
0.0825972
0.085062
0.0881802
0.0920434
0.0968094
0.0943638
0.074863
0.0748348
0.0748245
0.0747838
0.0747415
0.0747186
0.0747146
0.0747265
0.0747564
0.0748081
0.0748858
0.0749935
0.0751364
0.0753208
0.0755549
0.0758487
0.0762151
0.0766706
0.077237
0.0779428
0.078826
0.0799381
0.0813486
0.0831555
0.0854834
0.0885347
0.0924382
0.0975862
0.10351
0.106284
0.0752157
0.0752173
0.0752374
0.0752256
0.075213
0.0752223
0.0752531
0.0753021
0.0753714
0.075466
0.0755904
0.0757494
0.0759491
0.076197
0.0765026
0.0768778
0.0773377
0.0779019
0.0785957
0.0794526
0.0805172
0.0818499
0.083533
0.0856819
0.0884488
0.092073
0.0967494
0.103045
0.11023
0.117319
0.0756077
0.0756373
0.0756862
0.0757035
0.0757213
0.0757632
0.0758291
0.0759156
0.0760251
0.0761632
0.0763352
0.0765466
0.0768043
0.077117
0.0774957
0.077954
0.0785092
0.0791838
0.0800068
0.0810164
0.0822635
0.083817
0.085771
0.0882568
0.091452
0.0956265
0.101041
0.108353
0.11682
0.127291
0.0760348
0.0760907
0.0761664
0.0762126
0.0762609
0.0763353
0.0764361
0.07656
0.0767098
0.0768917
0.0771115
0.0773756
0.0776917
0.0780697
0.0785219
0.0790637
0.0797145
0.0804995
0.0814512
0.0826123
0.0840396
0.0858098
0.0880278
0.0908392
0.0944434
0.0991352
0.105235
0.113431
0.123111
0.135984
0.07649
0.0765706
0.0766713
0.0767457
0.0768244
0.0769309
0.0770659
0.0772266
0.0774163
0.0776414
0.0779086
0.0782248
0.0785987
0.0790412
0.0795659
0.0801898
0.0809346
0.0818277
0.0829049
0.0842132
0.0858146
0.087793
0.0902625
0.093381
0.0973662
0.102532
0.109246
0.118193
0.128928
0.143227
0.076966
0.0770691
0.0771926
0.0772942
0.0774026
0.0775402
0.0777082
0.0779046
0.0781329
0.0783999
0.0787129
0.0790795
0.0795092
0.080014
0.0806086
0.0813116
0.0821464
0.0831429
0.0843397
0.0857874
0.0875529
0.0897259
0.0924285
0.0958285
0.100158
0.105743
0.112989
0.122545
0.134128
0.149093
0.0774531
0.0775767
0.0777205
0.0778477
0.0779847
0.0781518
0.0783509
0.0785809
0.0788457
0.0791523
0.0795085
0.0799226
0.0804049
0.0809682
0.0816283
0.0824052
0.0833239
0.0844163
0.0857236
0.0872995
0.0892147
0.0915639
0.0944752
0.098124
0.102753
0.108694
0.116377
0.126396
0.138616
0.153825
0.0779409
0.0780826
0.0782441
0.0783949
0.0785583
0.0787527
0.0789804
0.0792412
0.0795393
0.0798822
0.0802779
0.0807353
0.0812654
0.0818817
0.0826011
0.0834447
0.0844388
0.0856171
0.0870227
0.0887118
0.0907583
0.0932603
0.0963505
0.100209
0.105084
0.111308
0.119324
0.129658
0.142313
0.157197
0.0784181
0.0785754
0.0787517
0.0789234
0.0791107
0.0793294
0.0795823
0.0798701
0.0801977
0.0805724
0.0810026
0.0814978
0.0820695
0.0827319
0.0835026
0.0844036
0.0854623
0.0867137
0.0882025
0.0899866
0.0921419
0.0947691
0.0980032
0.102026
0.107088
0.113516
0.121752
0.132244
0.145082
0.159006
0.0788735
0.0790435
0.0792316
0.0794211
0.0796289
0.0798682
0.0801422
0.0804527
0.0808047
0.0812058
0.0816646
0.0821909
0.0827966
0.0834965
0.0843088
0.085256
0.0863665
0.087676
0.0892302
0.0910881
0.0933268
0.0960477
0.0993865
0.103524
0.108708
0.115254
0.12359
0.134066
0.146757
0.159389
0.0792964
0.0794762
0.0796731
0.0798768
0.080101
0.0803567
0.0806471
0.080975
0.0813458
0.081767
0.0822473
0.0827969
0.083428
0.0841556
0.0849983
0.0859791
0.0871267
0.0884774
0.0900773
0.0919856
0.0942795
0.09706
0.100461
0.104661
0.109898
0.116471
0.124783
0.135056
0.147278
0.158399
0.0796777
0.0798644
0.080067
0.0802809
0.0805171
0.0807842
0.0810859
0.0814255
0.0818087
0.082243
0.0827371
0.0833014
0.0839482
0.0846928
0.0855538
0.0865544
0.0877233
0.089097
0.0907212
0.0926549
0.0949744
0.0977787
0.101199
0.105405
0.110626
0.117134
0.125293
0.13518
0.14676
0.1559
0.0800109
0.0802015
0.0804068
0.0806267
0.08087
0.0811434
0.0814507
0.081796
0.0821848
0.0826248
0.0831245
0.0836943
0.0843467
0.0850968
0.0859633
0.0869691
0.0881429
0.0895205
0.0911471
0.0930806
0.0953952
0.098187
0.101582
0.105741
0.110878
0.117233
0.125125
0.134452
0.145317
0.151776
0.080292
0.0804835
0.0806885
0.0809101
0.0811555
0.0814299
0.0817373
0.0820819
0.0824696
0.0829076
0.0834046
0.0839707
0.0846184
0.0853626
0.0862216
0.0872182
0.0883803
0.0897431
0.0913506
0.0932588
0.0955393
0.0982839
0.101612
0.105672
0.110662
0.116778
0.124304
0.13291
0.143009
0.146335
0.0805214
0.080711
0.0809128
0.081132
0.0813744
0.0816446
0.0819464
0.0822842
0.0826638
0.0830923
0.0835782
0.0841315
0.0847643
0.0854913
0.0863304
0.0873036
0.0884382
0.0897681
0.0913358
0.0931949
0.0954135
0.098078
0.101299
0.105213
0.109996
0.115794
0.122872
0.130608
0.139908
0.13975
0.0807009
0.0808858
0.0810816
0.0812943
0.0815292
0.0817903
0.0820814
0.0824068
0.0827721
0.0831842
0.0836512
0.0841831
0.0847914
0.0854904
0.0862975
0.0872339
0.0883259
0.0896059
0.0911145
0.0929022
0.095033
0.097587
0.100666
0.104389
0.108913
0.114326
0.12089
0.127621
0.136106
0.131737
0.0808383
0.0810158
0.0812022
0.0814042
0.0816271
0.0818744
0.0821495
0.0824566
0.0828013
0.0831904
0.0836315
0.0841341
0.0847093
0.0853708
0.0861353
0.087023
0.0880589
0.0892738
0.0907059
0.0924024
0.0944227
0.0968398
0.0997452
0.10324
0.107463
0.112435
0.118437
0.124021
0.131711
0.12235
0.0809411
0.0811085
0.0812816
0.0814693
0.0816774
0.0819084
0.0821642
0.0824487
0.0827676
0.0831274
0.0835356
0.0840013
0.0845352
0.0851502
0.0858623
0.0866905
0.0876585
0.0887952
0.090136
0.0917247
0.0936156
0.095874
0.0985809
0.101818
0.105706
0.110189
0.115594
0.119879
0.126836
0.111861
0.0810258
0.081179
0.0813303
0.0814969
0.0816858
0.081896
0.0821282
0.0823866
0.0826768
0.0830042
0.0833753
0.0837989
0.0842853
0.0848467
0.0854982
0.0862579
0.0871478
0.0881948
0.0894318
0.0908988
0.0926447
0.0947268
0.0972155
0.100172
0.1037
0.107656
0.11245
0.115313
0.121586
0.100462
0.0811115
0.0812455
0.0813641
0.0815102
0.0816852
0.0818736
0.0820759
0.0823011
0.0825558
0.0828444
0.0831728
0.0835491
0.0839826
0.0844846
0.0850692
0.0857536
0.086558
0.0875073
0.0886315
0.0899668
0.0915567
0.0934502
0.095707
0.0983665
0.101519
0.104915
0.109106
0.110372
0.116076
0.0884078
0.081241
0.0813017
0.0813433
0.0814605
0.0816273
0.0818035
0.0819845
0.0821823
0.0824032
0.0826511
0.0829328
0.0832579
0.0836335
0.0840703
0.0845819
0.0851839
0.0858952
0.0867385
0.0877413
0.0889358
0.0903603
0.0920557
0.0940714
0.0964228
0.0991947
0.102003
0.105638
0.105118
0.110477
0.0759173
0.0816333
0.0815363
0.0814292
0.0814884
0.0816232
0.081767
0.0819168
0.0820855
0.0822729
0.0824779
0.0827124
0.0829867
0.083303
0.0836727
0.08411
0.0846289
0.0852462
0.0859828
0.0868632
0.087916
0.0891738
0.0906695
0.0924422
0.0944822
0.0968757
0.0990703
0.102216
0.0997163
0.104931
0.0632159
0.0815831
0.0812571
0.0811499
0.0812922
0.0814846
0.0816435
0.0817781
0.0819106
0.0820561
0.082217
0.0823999
0.0826148
0.0828661
0.0831621
0.0835148
0.0839385
0.0844491
0.0850656
0.0858104
0.086709
0.0877896
0.089077
0.0906031
0.0923252
0.094364
0.095897
0.0987271
0.0939926
0.099339
0.0505489
0.0394417
0.027774
0.0146503
0.00113829
-0.0119977
-0.02443
-0.0358601
-0.0458875
-0.0539966
-0.0595931
-0.0621265
-0.0612675
-0.0574629
-0.0519821
-0.0465835
-0.0421355
-0.0388488
-0.0367631
-0.0346499
-0.0324608
-0.0319881
-0.0328923
-0.0333378
-0.0329925
-0.0323344
-0.0316973
-0.0310273
-0.0303983
-0.0298441
-0.0299313
0.0935762
0.0850137
0.0757788
0.0667021
0.0572755
0.0473042
0.0371297
0.0270688
0.0173379
0.00824201
2.2453e-05
-0.0065015
-0.0110065
-0.0140074
-0.0164508
-0.019442
-0.0226029
-0.0256984
-0.0285008
-0.0305687
-0.0327003
-0.0338465
-0.0322201
-0.0285675
-0.0243466
-0.0205364
-0.0177234
-0.0153697
-0.0128314
-0.0113356
0.0893797
0.0838212
0.077311
0.070049
0.0618642
0.0528509
0.0431731
0.033212
0.0236859
0.0151772
0.00780454
0.00162449
-0.0031185
-0.00668111
-0.00985625
-0.0133164
-0.0170731
-0.0208547
-0.0240535
-0.0260729
-0.0272029
-0.0271321
-0.0252567
-0.022125
-0.0188474
-0.0161327
-0.0142518
-0.0134618
-0.0150417
-0.0186841
0.0960228
0.092257
0.0873841
0.0818269
0.0754745
0.0681912
0.0600499
0.0512909
0.0422313
0.033221
0.0246004
0.0168272
0.0102387
0.0048671
0.00037465
-0.00363487
-0.00720731
-0.0100557
-0.0119815
-0.0130553
-0.0134129
-0.0132653
-0.0127535
-0.0124225
-0.0130434
-0.0149392
-0.0183581
-0.0236208
-0.0313176
-0.0402223
0.0937282
0.0913057
0.0883128
0.0844782
0.0797478
0.0741182
0.0675742
0.0601511
0.0520211
0.0435218
0.0350762
0.0271269
0.0200394
0.0140053
0.00895664
0.00468464
0.00111727
-0.00165675
-0.00363799
-0.00497454
-0.00577178
-0.00628333
-0.0068874
-0.00803208
-0.0100775
-0.0132118
-0.0174851
-0.0228146
-0.028951
-0.0349314
0.0928041
0.0912177
0.0890499
0.0860952
0.0823043
0.0776264
0.0720139
0.0654697
0.0581046
0.0501704
0.0420363
0.0341266
0.0268466
0.0204811
0.0151035
0.0106233
0.00696598
0.00411721
0.00202218
0.000549017
-0.000499053
-0.00143691
-0.00261825
-0.00433556
-0.00673039
-0.00974447
-0.0131625
-0.0166371
-0.0197393
-0.0222886
0.091097
0.0900265
0.088519
0.0863647
0.0834448
0.0796856
0.0750094
0.0693734
0.0628231
0.055528
0.0477926
0.0400257
0.0326651
0.026068
0.0204148
0.0157133
0.0119133
0.00896562
0.00678139
0.00519366
0.00395387
0.00276356
0.00136718
-0.00035246
-0.0023236
-0.00433108
-0.00599897
-0.00692541
-0.00669811
-0.00522205
0.0896427
0.0889427
0.0878921
0.0862491
0.0839259
0.0808443
0.0769003
0.0720141
0.0661807
0.0595063
0.0522328
0.0447305
0.0374379
0.0307558
0.024943
0.0200881
0.0161762
0.0131481
0.0108895
0.00921255
0.00787536
0.00664594
0.0053877
0.00411306
0.00299919
0.00233788
0.00246615
0.00360407
0.00588396
0.00884556
0.0883094
0.0878407
0.0870896
0.0858256
0.0839655
0.0814195
0.0780651
0.073798
0.0685784
0.0624651
0.0556465
0.0484508
0.0413034
0.0346299
0.028746
0.0238038
0.0198255
0.0167545
0.0144677
0.0127814
0.0114885
0.0104233
0.00953239
0.00891112
0.00877396
0.00935969
0.0108473
0.0131962
0.0162977
0.0193782
0.0871727
0.0868612
0.0863173
0.0853282
0.0838135
0.0816806
0.0787978
0.0750449
0.0703549
0.064746
0.0583585
0.0514791
0.0445139
0.0379015
0.0320001
0.0270144
0.0230033
0.0199228
0.0176547
0.0160322
0.014885
0.014103
0.0136928
0.0137797
0.0145407
0.0160972
0.0184542
0.0213851
0.0247083
0.0275981
0.0862117
0.0860029
0.0855965
0.0848037
0.0835541
0.081746
0.0792434
0.0759174
0.0716808
0.0665189
0.0605309
0.0539636
0.0471995
0.0406814
0.0347991
0.0298021
0.0257854
0.0227242
0.0205149
0.0190121
0.0180807
0.0176524
0.0177624
0.0185191
0.0200206
0.0222631
0.0251189
0.0282777
0.0315823
0.034236
0.0854104
0.0852707
0.0849586
0.0843105
0.08326
0.0817054
0.0795083
0.0765347
0.072683
0.0679122
0.0622863
0.0560156
0.0494575
0.0430527
0.0372146
0.0322309
0.0282319
0.0252167
0.0231007
0.0217611
0.0210916
0.0210478
0.0216646
0.023005
0.0250764
0.0277713
0.0308786
0.0340775
0.0372543
0.0396562
0.0847461
0.0846534
0.0844056
0.0838639
0.0829661
0.0816112
0.0796611
0.0769795
0.0734547
0.0690248
0.0637239
0.0577294
0.0513735
0.0450909
0.0393125
0.0343599
0.0303967
0.0274488
0.0254518
0.0243048
0.02392
0.0242611
0.025342
0.0271664
0.0296564
0.0326299
0.0358333
0.0389766
0.0419759
0.0441582
0.0841975
0.084138
0.0839354
0.0834734
0.0826945
0.0814981
0.0797482
0.0773087
0.0740613
0.0699278
0.0649165
0.0591754
0.0530123
0.0468537
0.0411438
0.0362336
0.0323195
0.0294547
0.0275949
0.0266582
0.0265654
0.0272746
0.0287646
0.0309762
0.0337605
0.0368889
0.0400947
0.043141
0.0459568
0.047998
0.0837452
0.0837104
0.0835407
0.08314
0.0824553
0.0813863
0.0798
0.077562
0.0745502
0.0706735
0.0659187
0.0604074
0.0544244
0.0483866
0.0427487
0.0378878
0.034032
0.0312619
0.0295512
0.0288336
0.0290296
0.0300796
0.0319198
0.0344315
0.0374123
0.0406102
0.0437673
0.0467113
0.0493747
0.051376
0.0833723
0.0833572
0.083213
0.0828609
0.0822521
0.0812879
0.0798367
0.0777674
0.0749562
0.0713018
0.066773
0.0614681
0.0556503
0.0497266
0.04416
0.0393517
0.0355597
0.0328905
0.0313372
0.0308412
0.0313153
0.0326737
0.0348069
0.0375443
0.0406463
0.0438572
0.0469446
0.0498053
0.0523701
0.054424
0.0830645
0.0830663
0.082943
0.0826316
0.0820866
0.0812093
0.0798711
0.0779445
0.0753048
0.0718428
0.0675123
0.0623911
0.0567227
0.0509039
0.0454049
0.0406491
0.0369232
0.0343585
0.0329667
0.0326899
0.0334269
0.0350597
0.0374331
0.0403337
0.0435006
0.0466898
0.0497076
0.0525156
0.0550339
0.0571984
0.0828098
0.082827
0.0827222
0.0824462
0.0819565
0.0811536
0.0799118
0.0781072
0.0756149
0.0723197
0.0681626
0.0632035
0.0576678
0.0519429
0.0465053
0.0417993
0.0381393
0.0356808
0.034451
0.0343879
0.03537
0.0372434
0.0398097
0.0428224
0.0460133
0.0491624
0.0521225
0.0549067
0.0574072
0.0597117
0.0825976
0.0826299
0.0825422
0.0822985
0.0818587
0.0811217
0.0799639
0.0782652
0.0759006
0.0727502
0.0687443
0.063927
0.0585071
0.0528635
0.0474792
0.0428183
0.0392217
0.036869
0.0357995
0.0359427
0.037151
0.0392328
0.0419506
0.0450346
0.0482214
0.0513236
0.0542394
0.0570085
0.0595325
0.0619924
0.0824201
0.0824668
0.0823956
0.0821826
0.0817895
0.081113
0.08003
0.0784247
0.0761721
0.0731482
0.069274
0.0645795
0.0592584
0.0536825
0.0483415
0.0437194
0.0401833
0.0379328
0.0370207
0.0373615
0.0387768
0.0410368
0.0438702
0.046995
0.0501609
0.0532165
0.0561009
0.0588749
0.0614586
0.0640209
0.0822717
0.0823314
0.0822755
0.0820923
0.081744
0.0811252
0.0801118
0.0785908
0.0764376
0.0735247
0.0697649
0.0651754
0.0599363
0.0544134
0.0491046
0.0445129
0.041033
0.0388803
0.0381219
0.0386508
0.0402547
0.0426661
0.0455849
0.0487266
0.0518664
0.0548841
0.0577541
0.0605601
0.0631761
0.0657455
0.0821475
0.0822192
0.0821767
0.0820225
0.0817182
0.0811529
0.0802081
0.0787657
0.0767027
0.0738884
0.0702281
0.0657272
0.0605532
0.055068
0.0497788
0.0452081
0.0417755
0.0397188
0.0391097
0.0398173
0.0415914
0.0441305
0.0471134
0.0502581
0.0533688
0.0563624
0.0592407
0.0620919
0.0646873
0.0671341
0.0820429
0.0821261
0.0820949
0.0819687
0.0817086
0.0811981
0.0803176
0.0789499
0.0769711
0.074246
0.0706726
0.0662452
0.0611194
0.0556551
0.0503717
0.0458109
0.0424183
0.0404542
0.0399912
0.0408683
0.0427952
0.0454371
0.0484649
0.0516178
0.0547129
0.0576771
0.0605945
0.0634871
0.0659712
0.0681176
0.0819553
0.0820495
0.0820266
0.0819271
0.0817104
0.081255
0.0804392
0.0791441
0.0772455
0.0746024
0.0711059
0.0667397
0.0616469
0.0561879
0.0508957
0.0463312
0.0429716
0.0410956
0.0407719
0.0418083
0.0438756
0.0466072
0.049657
0.0528054
0.0559171
0.0588935
0.0618672
0.0647354
0.0669919
0.0685968
0.0818804
0.0819875
0.08197
0.0818958
0.0817202
0.0813187
0.080572
0.0793499
0.0775272
0.0749585
0.071528
0.0672086
0.0621304
0.0566585
0.051347
0.0467587
0.0434077
0.0416254
0.0414486
0.0426385
0.0448319
0.0476522
0.0507501
0.0538971
0.0569641
0.0599745
0.0630533
0.0657938
0.0677115
0.06848
0.0818117
0.0819352
0.0819227
0.081874
0.0817371
0.081382
0.0807069
0.0795704
0.0778306
0.0753393
0.0719732
0.0676949
0.0626183
0.0571132
0.0517677
0.047187
0.0438292
0.0421067
0.0420554
0.0433772
0.0456667
0.0485312
0.0516779
0.054952
0.0580894
0.0610836
0.0641832
0.0666269
0.0680495
0.0676377
0.0817434
0.0818822
0.0818809
0.081862
0.0817649
0.0814573
0.0808078
0.0797601
0.0780916
0.0756686
0.0723529
0.068099
0.0630072
0.0574508
0.0520146
0.0473143
0.0440539
0.0424329
0.0425357
0.0440139
0.0464276
0.0493435
0.0524286
0.0555821
0.058678
0.0620827
0.0651541
0.0672233
0.06808
0.0661368
0.0816851
0.0818143
0.0818319
0.0818472
0.0817937
0.0815658
0.0810528
0.0800701
0.0784799
0.0761503
0.0729065
0.0686771
0.0635475
0.0579508
0.0525123
0.0478021
0.0443174
0.0427589
0.0429859
0.044596
0.0471372
0.0502279
0.0535507
0.0568085
0.0599131
0.0632489
0.0660508
0.0673662
0.06705
0.063336
0.0816684
0.0817414
0.0817759
0.0818096
0.0817623
0.0815431
0.0810415
0.0801251
0.0786477
0.0763875
0.0731598
0.0688996
0.0636825
0.057993
0.0525427
0.0477843
0.0443769
0.0429307
0.0432711
0.044957
0.0474831
0.0504425
0.0536142
0.0569193
0.0605699
0.0640846
0.0666655
0.0676762
0.0667832
0.0610057
0.0817425
0.08173
0.0817802
0.0818467
0.0818503
0.0817226
0.0813511
0.0805746
0.0792152
0.077075
0.0739847
0.0697633
0.0644794
0.0586259
0.0529151
0.04789
0.0444347
0.0430751
0.0436379
0.0456124
0.0484387
0.0516437
0.0550961
0.058608
0.0620749
0.0652132
0.0671187
0.0664734
0.0622478
0.0547383
-0.0921246
-0.0915407
-0.0182228
0.0230364
0.0447271
0.0550607
0.0582581
0.0584665
0.0576871
0.0568913
0.0563737
0.0561844
0.0563193
0.0567163
0.057287
0.0579592
0.0586806
0.0594147
0.0601386
0.0608391
0.0615219
0.0621711
0.0628253
0.0634374
0.0641209
0.0647477
0.0655654
0.0662769
0.0675267
0.0666664
-0.093571
-0.0909181
-0.0236439
0.0244968
0.0480165
0.0580767
0.0610169
0.0607736
0.0594355
0.0581326
0.0571816
0.0566176
0.0564555
0.0566356
0.057057
0.0576317
0.0582942
0.0589963
0.0597075
0.0604062
0.0610934
0.0617501
0.0624048
0.0630125
0.0636474
0.064211
0.064867
0.0653398
0.0660554
0.0659074
-0.0947394
-0.0944992
-0.0310659
0.0245767
0.0511174
0.0615775
0.0643892
0.0636813
0.0616561
0.0597144
0.0582106
0.0571699
0.0566273
0.056531
0.0567671
0.057226
0.057823
0.0584949
0.0591994
0.0599072
0.0606091
0.0612891
0.0619573
0.062592
0.0632201
0.0638002
0.0644007
0.0649198
0.0655524
0.0660528
-0.0951385
-0.0990604
-0.0380506
0.0247115
0.0552559
0.0664278
0.0687213
0.0671488
0.0641223
0.061383
0.0592511
0.0577125
0.0568017
0.0564624
0.0565581
0.0569464
0.0575174
0.0581909
0.0589125
0.0596459
0.0603749
0.0610861
0.0617812
0.0624535
0.063114
0.0637527
0.0643977
0.0650246
0.0656895
0.0663132
-0.0942037
-0.102097
-0.0447426
0.0240785
0.0596223
0.0722558
0.0739966
0.0713299
0.0669784
0.0632938
0.0604253
0.0583013
0.0569566
0.0563331
0.0562729
0.0565907
0.0571422
0.0578255
0.0585716
0.0593368
0.0600981
0.0608419
0.0615655
0.0622665
0.0629504
0.0636167
0.0642759
0.0649237
0.0655687
0.0662151
-0.0915369
-0.103808
-0.0513597
0.0216329
0.063018
0.0784831
0.080175
0.0764327
0.0703621
0.0654962
0.0617613
0.0589349
0.0570294
0.0560259
0.0557633
0.055998
0.0565345
0.0572403
0.0580272
0.058841
0.0596515
0.060442
0.0612061
0.0619417
0.0626513
0.0633372
0.0640049
0.0646613
0.0653005
0.0659793
-0.0868765
-0.104462
-0.0574009
0.0167872
0.064242
0.0842095
0.0868623
0.081832
0.0744795
0.0679023
0.0630547
0.0595024
0.0569548
0.0554611
0.0549412
0.055092
0.0556403
0.0564045
0.0572673
0.0581617
0.0590508
0.0599133
0.0607405
0.0615303
0.0622844
0.063007
0.0637022
0.0643831
0.0650333
0.0657287
-0.081647
-0.103442
-0.063244
0.00931128
0.0619063
0.0876032
0.0931874
0.0875361
0.078865
0.0705393
0.0640821
0.0596928
0.0565496
0.0545279
0.0536891
0.0537518
0.0543494
0.0552277
0.0562212
0.057245
0.0582554
0.0592257
0.0601459
0.061015
0.0618351
0.0626116
0.0633484
0.0640616
0.0647292
0.0654385
-0.0759746
-0.10074
-0.0693234
-0.00151351
0.0539357
0.0848103
0.0953102
0.092039
0.0831155
0.0731467
0.0647131
0.0591046
0.0552261
0.0528247
0.0516819
0.0517254
0.052463
0.0535471
0.0547484