/*--------------------------------*- C++ -*----------------------------------*\
  =========                 |
  \\      /  F ield         | OpenFOAM: The Open Source CFD Toolbox
   \\    /   O peration     | Website:  https://openfoam.org
    \\  /    A nd           | Version:  11
     \\/     M anipulation  |
\*---------------------------------------------------------------------------*/
FoamFile
{
    format      ascii;
    class       surfaceScalarField;
    location    "4.9";
    object      phi;
}
// * * * * * * * * * * * * * * * * * * * * * * * * * * * * * * * * * * * * * //

dimensions      [0 3 -1 0 0 0 0];

internalField   nonuniform List<scalar> 
24840
(
1.92423e-05
5.8817e-09
1.92366e-05
5.60778e-09
1.92335e-05
3.11923e-09
1.92326e-05
9.73738e-10
1.92336e-05
-1.05834e-09
1.92366e-05
-2.99253e-09
1.92417e-05
-5.12474e-09
1.92492e-05
-7.49413e-09
1.92593e-05
-1.00925e-08
1.92723e-05
-1.2956e-08
1.92885e-05
-1.62095e-08
1.93085e-05
-2.0036e-08
1.93331e-05
-2.45921e-08
1.93631e-05
-3.00133e-08
1.93996e-05
-3.65217e-08
1.9444e-05
-4.43687e-08
1.94978e-05
-5.37578e-08
1.95627e-05
-6.49632e-08
1.9641e-05
-7.82699e-08
1.9735e-05
-9.39762e-08
1.98474e-05
-1.12433e-07
1.99814e-05
-1.34001e-07
2.01404e-05
-1.59022e-07
2.03283e-05
-1.87842e-07
2.05491e-05
-2.20846e-07
2.08073e-05
-2.5816e-07
2.11079e-05
-3.00619e-07
2.14517e-05
-3.43769e-07
2.18576e-05
-4.0596e-07
-3.9366e-07
2.22513e-05
1.9253e-05
1.00879e-09
1.926e-05
-1.39959e-09
1.92691e-05
-5.97546e-09
1.92808e-05
-1.07433e-08
1.92952e-05
-1.53862e-08
1.93122e-05
-2.0012e-08
1.93316e-05
-2.45433e-08
1.9353e-05
-2.88884e-08
1.93762e-05
-3.33503e-08
1.94017e-05
-3.84074e-08
1.94299e-05
-4.43747e-08
1.94613e-05
-5.14845e-08
1.94967e-05
-5.99864e-08
1.95369e-05
-7.02295e-08
1.95829e-05
-8.25427e-08
1.96359e-05
-9.72902e-08
1.96971e-05
-1.14971e-07
1.97682e-05
-1.36064e-07
1.9851e-05
-1.61098e-07
1.99478e-05
-1.90733e-07
2.0061e-05
-2.25632e-07
2.01934e-05
-2.66444e-07
2.03484e-05
-3.13991e-07
2.05298e-05
-3.69291e-07
2.07423e-05
-4.33321e-07
2.09907e-05
-5.06569e-07
2.12799e-05
-5.89773e-07
2.16145e-05
-6.78416e-07
2.19991e-05
-7.90522e-07
-8.21633e-07
2.2427e-05
1.92513e-05
-2.14718e-09
1.92575e-05
-7.60721e-09
1.9266e-05
-1.45227e-08
1.92771e-05
-2.17824e-08
1.92905e-05
-2.88361e-08
1.93062e-05
-3.57047e-08
1.93241e-05
-4.24225e-08
1.93443e-05
-4.90671e-08
1.93669e-05
-5.59581e-08
1.9392e-05
-6.35659e-08
1.942e-05
-7.23307e-08
1.94512e-05
-8.26544e-08
1.94861e-05
-9.49525e-08
1.95256e-05
-1.09705e-07
1.95705e-05
-1.27442e-07
1.9622e-05
-1.48756e-07
1.96814e-05
-1.74351e-07
1.97503e-05
-2.0498e-07
1.98306e-05
-2.41467e-07
1.99247e-05
-2.84785e-07
2.0035e-05
-3.3597e-07
2.01647e-05
-3.96075e-07
2.0317e-05
-4.66295e-07
2.04957e-05
-5.47998e-07
2.07049e-05
-6.42562e-07
2.09492e-05
-7.50844e-07
2.12336e-05
-8.74169e-07
2.15628e-05
-1.00762e-06
2.19431e-05
-1.17086e-06
-1.25947e-06
2.2381e-05
1.92504e-05
-4.40109e-09
1.9256e-05
-1.32032e-08
1.92641e-05
-2.26848e-08
1.92747e-05
-3.2352e-08
1.92876e-05
-4.17437e-08
1.93027e-05
-5.07887e-08
1.93199e-05
-5.96073e-08
1.93393e-05
-6.84333e-08
1.93609e-05
-7.76467e-08
1.93851e-05
-8.77337e-08
1.9412e-05
-9.92157e-08
1.9442e-05
-1.12632e-07
1.94756e-05
-1.28555e-07
1.95135e-05
-1.47615e-07
1.95566e-05
-1.70525e-07
1.96059e-05
-1.98093e-07
1.96628e-05
-2.31245e-07
1.97288e-05
-2.71004e-07
1.98059e-05
-3.18493e-07
1.9896e-05
-3.74969e-07
2.00019e-05
-4.41798e-07
2.01262e-05
-5.20459e-07
2.02726e-05
-6.12608e-07
2.04446e-05
-7.20037e-07
2.06466e-05
-8.44564e-07
2.08833e-05
-9.8756e-07
2.11601e-05
-1.15097e-06
2.14832e-05
-1.33068e-06
2.18582e-05
-1.54588e-06
-1.69919e-06
2.22979e-05
1.92499e-05
-6.16979e-09
1.92549e-05
-1.81665e-08
1.92624e-05
-3.02515e-08
1.92723e-05
-4.2266e-08
1.92845e-05
-5.39109e-08
1.92988e-05
-6.51018e-08
1.93152e-05
-7.59903e-08
1.93337e-05
-8.68962e-08
1.93543e-05
-9.8274e-08
1.93772e-05
-1.10676e-07
1.94027e-05
-1.24714e-07
1.94312e-05
-1.41044e-07
1.9463e-05
-1.60377e-07
1.94989e-05
-1.83497e-07
1.95396e-05
-2.1129e-07
1.95863e-05
-2.44761e-07
1.96401e-05
-2.85045e-07
1.97025e-05
-3.33405e-07
1.97752e-05
-3.91237e-07
1.98604e-05
-4.60098e-07
1.99603e-05
-5.41708e-07
2.00778e-05
-6.3796e-07
2.02161e-05
-7.50952e-07
2.0379e-05
-8.82971e-07
2.05709e-05
-1.03644e-06
2.07968e-05
-1.21348e-06
2.10627e-05
-1.41682e-06
2.13758e-05
-1.64375e-06
2.17421e-05
-1.91218e-06
-2.13456e-06
2.21774e-05
1.92497e-05
-7.68828e-09
1.92541e-05
-2.25929e-08
1.9261e-05
-3.72208e-08
1.92703e-05
-5.15197e-08
1.92817e-05
-6.53091e-08
1.92951e-05
-7.85331e-08
1.93105e-05
-9.13722e-08
1.93278e-05
-1.04214e-07
1.93471e-05
-1.1759e-07
1.93686e-05
-1.32129e-07
1.93924e-05
-1.48533e-07
1.94189e-05
-1.67568e-07
1.94486e-05
-1.90067e-07
1.94821e-05
-2.16949e-07
1.952e-05
-2.49249e-07
1.95634e-05
-2.88149e-07
1.96134e-05
-3.34989e-07
1.96712e-05
-3.91267e-07
1.97386e-05
-4.58642e-07
1.98175e-05
-5.38956e-07
1.99101e-05
-6.34263e-07
2.00189e-05
-7.46854e-07
2.01473e-05
-8.79304e-07
2.02988e-05
-1.03448e-06
2.04779e-05
-1.21551e-06
2.06898e-05
-1.42544e-06
2.0941e-05
-1.66795e-06
2.12395e-05
-1.94228e-06
2.15925e-05
-2.26516e-06
-2.56147e-06
2.20194e-05
1.92495e-05
-9.03487e-09
1.92534e-05
-2.65527e-08
1.92598e-05
-4.35629e-08
1.92683e-05
-6.00164e-08
1.92788e-05
-7.58041e-08
1.92912e-05
-9.09155e-08
1.93053e-05
-1.05565e-07
1.93213e-05
-1.2019e-07
1.93391e-05
-1.3539e-07
1.93589e-05
-1.51872e-07
1.93808e-05
-1.70425e-07
1.94051e-05
-1.91912e-07
1.94323e-05
-2.17276e-07
1.94629e-05
-2.47554e-07
1.94976e-05
-2.83919e-07
1.95372e-05
-3.27714e-07
1.95826e-05
-3.80463e-07
1.96352e-05
-4.43873e-07
1.96964e-05
-5.19838e-07
1.97679e-05
-6.1047e-07
1.98518e-05
-7.18139e-07
1.99505e-05
-8.45532e-07
2.00669e-05
-9.95712e-07
2.02046e-05
-1.17216e-06
2.03679e-05
-1.37878e-06
2.05622e-05
-1.61973e-06
2.07941e-05
-1.89992e-06
2.10729e-05
-2.22102e-06
2.14066e-05
-2.59891e-06
-2.97391e-06
2.1819e-05
1.92493e-05
-1.02314e-08
1.92529e-05
-3.00755e-08
1.92585e-05
-4.92531e-08
1.92662e-05
-6.76902e-08
1.92757e-05
-8.53108e-08
1.9287e-05
-1.02143e-07
1.92998e-05
-1.18435e-07
1.93143e-05
-1.34668e-07
1.93304e-05
-1.51499e-07
1.93482e-05
-1.69705e-07
1.9368e-05
-1.90157e-07
1.93899e-05
-2.13812e-07
1.94143e-05
-2.41705e-07
1.94417e-05
-2.74974e-07
1.94727e-05
-3.14905e-07
1.9508e-05
-3.62979e-07
1.95484e-05
-4.20884e-07
1.9595e-05
-4.90514e-07
1.96492e-05
-5.73972e-07
1.97123e-05
-6.7361e-07
1.97863e-05
-7.92089e-07
1.98732e-05
-9.3246e-07
1.99757e-05
-1.09826e-06
2.00972e-05
-1.2936e-06
2.02416e-05
-1.52325e-06
2.04145e-05
-1.79255e-06
2.06224e-05
-2.10789e-06
2.08753e-05
-2.47388e-06
2.11823e-05
-2.9059e-06
-3.36302e-06
2.15714e-05
1.92492e-05
-1.12822e-08
1.92523e-05
-3.31692e-08
1.92573e-05
-5.42717e-08
1.92641e-05
-7.44863e-08
1.92725e-05
-9.37471e-08
1.92825e-05
-1.1211e-07
1.92939e-05
-1.29854e-07
1.93067e-05
-1.47497e-07
1.9321e-05
-1.65747e-07
1.93367e-05
-1.85441e-07
1.93541e-05
-2.07526e-07
1.93733e-05
-2.33037e-07
1.93947e-05
-2.63087e-07
1.94186e-05
-2.98896e-07
1.94456e-05
-3.41842e-07
1.94761e-05
-3.93521e-07
1.9511e-05
-4.5576e-07
1.95511e-05
-5.30607e-07
1.95974e-05
-6.20338e-07
1.96513e-05
-7.27505e-07
1.97143e-05
-8.55017e-07
1.9788e-05
-1.00625e-06
1.9875e-05
-1.18518e-06
1.99779e-05
-1.39652e-06
2.01005e-05
-1.6459e-06
2.02479e-05
-1.93993e-06
2.04266e-05
-2.28661e-06
2.06466e-05
-2.69387e-06
2.09178e-05
-3.17707e-06
-3.71702e-06
2.12718e-05
1.9249e-05
-1.21861e-08
1.92517e-05
-3.583e-08
1.9256e-05
-5.85964e-08
1.92619e-05
-8.03553e-08
1.92692e-05
-1.0104e-07
1.92778e-05
-1.20724e-07
1.92877e-05
-1.39712e-07
1.92987e-05
-1.58554e-07
1.9311e-05
-1.77996e-07
1.93245e-05
-1.9893e-07
1.93393e-05
-2.22363e-07
1.93556e-05
-2.49396e-07
1.93738e-05
-2.81206e-07
1.93939e-05
-3.19072e-07
1.94165e-05
-3.64444e-07
1.9442e-05
-4.19007e-07
1.9471e-05
-4.84693e-07
1.9504e-05
-5.63669e-07
1.9542e-05
-6.58342e-07
1.95859e-05
-7.71417e-07
1.96369e-05
-9.05994e-07
1.96964e-05
-1.06571e-06
1.97661e-05
-1.2549e-06
1.98484e-05
-1.47883e-06
1.99464e-05
-1.74391e-06
2.00645e-05
-2.05797e-06
2.02085e-05
-2.43069e-06
2.03881e-05
-2.87346e-06
2.06131e-05
-3.40206e-06
-4.02116e-06
2.09173e-05
1.92489e-05
-1.29401e-08
1.92511e-05
-3.80488e-08
1.92547e-05
-6.22051e-08
1.92596e-05
-8.52564e-08
1.92657e-05
-1.07131e-07
1.92729e-05
-1.27912e-07
1.92811e-05
-1.47922e-07
1.92903e-05
-1.67737e-07
1.93004e-05
-1.88135e-07
1.93115e-05
-2.10047e-07
1.93237e-05
-2.34531e-07
1.93371e-05
-2.62738e-07
1.93517e-05
-2.9589e-07
1.9368e-05
-3.35308e-07
1.9386e-05
-3.82489e-07
1.94062e-05
-4.39179e-07
1.94289e-05
-5.07381e-07
1.94546e-05
-5.89341e-07
1.94838e-05
-6.87546e-07
1.95171e-05
-8.04796e-07
1.95554e-05
-9.44311e-07
1.95996e-05
-1.1099e-06
1.96509e-05
-1.30617e-06
1.97109e-05
-1.53878e-06
1.97818e-05
-1.8148e-06
1.98669e-05
-2.14311e-06
1.99711e-05
-2.53493e-06
2.01027e-05
-3.00501e-06
2.02704e-05
-3.56978e-06
-4.25838e-06
2.05076e-05
1.92487e-05
-1.35409e-08
1.92505e-05
-3.98159e-08
1.92534e-05
-6.50786e-08
1.92573e-05
-8.91574e-08
1.92621e-05
-1.11973e-07
1.92678e-05
-1.33614e-07
1.92743e-05
-1.54416e-07
1.92815e-05
-1.74971e-07
1.92895e-05
-1.96079e-07
1.92981e-05
-2.18702e-07
1.93075e-05
-2.43931e-07
1.93178e-05
-2.72953e-07
1.93289e-05
-3.07019e-07
1.93411e-05
-3.47472e-07
1.93544e-05
-3.95831e-07
1.93691e-05
-4.53873e-07
1.93853e-05
-5.23636e-07
1.94034e-05
-6.07397e-07
1.94235e-05
-7.07675e-07
1.9446e-05
-8.27293e-07
1.94712e-05
-9.69512e-07
1.94995e-05
-1.13821e-06
1.95315e-05
-1.33811e-06
1.95678e-05
-1.5751e-06
1.96096e-05
-1.85666e-06
1.9659e-05
-2.19244e-06
1.97189e-05
-2.59485e-06
1.97953e-05
-3.08143e-06
1.98949e-05
-3.66937e-06
-4.41053e-06
2.00471e-05
1.92486e-05
-1.39856e-08
1.92499e-05
-4.11235e-08
1.9252e-05
-6.72026e-08
1.92549e-05
-9.2035e-08
1.92584e-05
-1.15535e-07
1.92626e-05
-1.37791e-07
1.92674e-05
-1.59146e-07
1.92726e-05
-1.80202e-07
1.92783e-05
-2.01771e-07
1.92844e-05
-2.24833e-07
1.9291e-05
-2.50499e-07
1.9298e-05
-2.79976e-07
1.93055e-05
-3.14526e-07
1.93135e-05
-3.55493e-07
1.93221e-05
-4.04397e-07
1.93312e-05
-4.63013e-07
1.9341e-05
-5.33379e-07
1.93513e-05
-6.17755e-07
1.93623e-05
-7.18632e-07
1.93738e-05
-8.38788e-07
1.93857e-05
-9.8143e-07
1.93979e-05
-1.15037e-06
1.94101e-05
-1.35031e-06
1.94221e-05
-1.58711e-06
1.94338e-05
-1.86837e-06
1.94454e-05
-2.20403e-06
1.94577e-05
-2.60716e-06
1.94734e-05
-3.09713e-06
1.94956e-05
-3.69154e-06
-4.46056e-06
1.95456e-05
1.92484e-05
-1.4273e-08
1.92493e-05
-4.1967e-08
1.92506e-05
-6.85689e-08
1.92525e-05
-9.38764e-08
1.92547e-05
-1.17796e-07
1.92574e-05
-1.40417e-07
1.92603e-05
-1.62084e-07
1.92635e-05
-1.83399e-07
1.92669e-05
-2.05181e-07
1.92705e-05
-2.28412e-07
1.92742e-05
-2.54211e-07
1.9278e-05
-2.83787e-07
1.92819e-05
-3.18395e-07
1.92857e-05
-3.59362e-07
1.92895e-05
-4.08188e-07
1.92931e-05
-4.66619e-07
1.92964e-05
-5.36647e-07
1.92991e-05
-6.20475e-07
1.9301e-05
-7.20505e-07
1.93016e-05
-8.39398e-07
1.93004e-05
-9.80207e-07
1.92966e-05
-1.14656e-06
1.92892e-05
-1.34292e-06
1.9277e-05
-1.5749e-06
1.92584e-05
-1.8498e-06
1.92317e-05
-2.17733e-06
1.9195e-05
-2.57043e-06
1.91468e-05
-3.04895e-06
1.90854e-05
-3.63014e-06
-4.39535e-06
1.90202e-05
1.92483e-05
-1.4401e-08
1.92486e-05
-4.23478e-08
1.92493e-05
-6.91773e-08
1.92501e-05
-9.46792e-08
1.9251e-05
-1.18754e-07
1.92521e-05
-1.41489e-07
1.92532e-05
-1.63224e-07
1.92544e-05
-1.84558e-07
1.92555e-05
-2.06304e-07
1.92565e-05
-2.29441e-07
1.92574e-05
-2.5508e-07
1.9258e-05
-2.8441e-07
1.92583e-05
-3.18661e-07
1.92581e-05
-3.59132e-07
1.92572e-05
-4.0728e-07
1.92553e-05
-4.64795e-07
1.92523e-05
-5.3359e-07
1.92476e-05
-6.1576e-07
1.92406e-05
-7.13564e-07
1.92307e-05
-8.29475e-07
1.92168e-05
-9.66302e-07
1.91976e-05
-1.12735e-06
1.91713e-05
-1.31666e-06
1.91357e-05
-1.53931e-06
1.90879e-05
-1.80192e-06
1.90239e-05
-2.11336e-06
1.89389e-05
-2.48549e-06
1.88271e-05
-2.93706e-06
1.86807e-05
-3.4838e-06
-4.20895e-06
1.84943e-05
1.92481e-05
-1.43755e-08
1.9248e-05
-4.22657e-08
1.92479e-05
-6.90324e-08
1.92477e-05
-9.44519e-08
1.92473e-05
-1.18419e-07
1.92468e-05
-1.41018e-07
1.92462e-05
-1.62581e-07
1.92453e-05
-1.83697e-07
1.92442e-05
-2.05167e-07
1.92427e-05
-2.27955e-07
1.92408e-05
-2.53148e-07
1.92383e-05
-2.81901e-07
1.9235e-05
-3.15405e-07
1.92308e-05
-3.54911e-07
1.92253e-05
-4.0182e-07
1.92183e-05
-4.57737e-07
1.92092e-05
-5.24463e-07
1.91973e-05
-6.03946e-07
1.9182e-05
-6.98251e-07
1.91622e-05
-8.09603e-07
1.91363e-05
-9.40477e-07
1.91027e-05
-1.09374e-06
1.90589e-05
-1.27283e-06
1.90016e-05
-1.48205e-06
1.89266e-05
-1.72693e-06
1.88281e-05
-2.01487e-06
1.86985e-05
-2.35579e-06
1.8527e-05
-2.7656e-06
1.83003e-05
-3.25712e-06
-3.90531e-06
1.79967e-05
1.9248e-05
-1.4195e-08
1.92474e-05
-4.17355e-08
1.92465e-05
-6.81521e-08
1.92453e-05
-9.32153e-08
1.92437e-05
-1.16815e-07
1.92417e-05
-1.39031e-07
1.92393e-05
-1.60189e-07
1.92365e-05
-1.80859e-07
1.92331e-05
-2.01821e-07
1.92292e-05
-2.24015e-07
1.92245e-05
-2.4849e-07
1.9219e-05
-2.76355e-07
1.92123e-05
-3.08748e-07
1.92043e-05
-3.46861e-07
1.91945e-05
-3.92015e-07
1.91825e-05
-4.45713e-07
1.91676e-05
-5.09615e-07
1.91492e-05
-5.85487e-07
1.91261e-05
-6.75162e-07
1.9097e-05
-7.80564e-07
1.90603e-05
-9.03768e-07
1.90137e-05
-1.0471e-06
1.89541e-05
-1.21327e-06
1.88776e-05
-1.40556e-06
1.87788e-05
-1.6281e-06
1.86502e-05
-1.88633e-06
1.84818e-05
-2.18736e-06
1.8259e-05
-2.54277e-06
1.7963e-05
-2.96115e-06
-3.49971e-06
1.75574e-05
1.92478e-05
-1.38669e-08
1.92468e-05
-4.077e-08
1.92452e-05
-6.65599e-08
1.9243e-05
-9.10016e-08
1.92402e-05
-1.13982e-07
1.92367e-05
-1.35576e-07
1.92327e-05
-1.561e-07
1.92279e-05
-1.76105e-07
1.92224e-05
-1.96341e-07
1.92161e-05
-2.1771e-07
1.92088e-05
-2.41214e-07
1.92004e-05
-2.67905e-07
1.91905e-05
-2.98855e-07
1.91788e-05
-3.35186e-07
1.91649e-05
-3.78125e-07
1.91483e-05
-4.29053e-07
1.91281e-05
-4.8947e-07
1.91036e-05
-5.60934e-07
1.90734e-05
-6.45018e-07
1.90362e-05
-7.43309e-07
1.89898e-05
-8.57436e-07
1.89319e-05
-9.89119e-07
1.88588e-05
-1.14024e-06
1.87662e-05
-1.31293e-06
1.86478e-05
-1.50967e-06
1.8495e-05
-1.73359e-06
1.82961e-05
-1.98846e-06
1.80338e-05
-2.28039e-06
1.76854e-05
-2.61281e-06
-3.01812e-06
1.72038e-05
1.92477e-05
-1.3398e-08
1.92463e-05
-3.93905e-08
1.9244e-05
-6.42895e-08
1.92409e-05
-8.78548e-08
1.92369e-05
-1.09971e-07
1.9232e-05
-1.30714e-07
1.92263e-05
-1.50387e-07
1.92197e-05
-1.69518e-07
1.92122e-05
-1.88822e-07
1.92036e-05
-2.09152e-07
1.91939e-05
-2.31454e-07
1.91827e-05
-2.5671e-07
1.91697e-05
-2.85922e-07
1.91547e-05
-3.20127e-07
1.9137e-05
-3.60453e-07
1.91161e-05
-4.08142e-07
1.90911e-05
-4.64518e-07
1.90611e-05
-5.30917e-07
1.90247e-05
-6.08637e-07
1.89803e-05
-6.9891e-07
1.89258e-05
-8.029e-07
1.88584e-05
-9.21697e-07
1.87745e-05
-1.05631e-06
1.86692e-05
-1.20766e-06
1.8536e-05
-1.37652e-06
1.8366e-05
-1.56352e-06
1.81464e-05
-1.76889e-06
1.78588e-05
-1.99279e-06
1.74791e-05
-2.23315e-06
-2.49426e-06
1.69553e-05
1.92475e-05
-1.27977e-08
1.92458e-05
-3.76251e-08
1.92429e-05
-6.13847e-08
1.92388e-05
-8.38308e-08
1.92337e-05
-1.0485e-07
1.92275e-05
-1.2452e-07
1.92203e-05
-1.43137e-07
1.9212e-05
-1.61199e-07
1.92025e-05
-1.79378e-07
1.91918e-05
-1.98474e-07
1.91797e-05
-2.19365e-07
1.9166e-05
-2.42959e-07
1.91502e-05
-2.70173e-07
1.91321e-05
-3.01958e-07
1.9111e-05
-3.39333e-07
1.90862e-05
-3.83397e-07
1.9057e-05
-4.35286e-07
1.90222e-05
-4.96109e-07
1.89804e-05
-5.66888e-07
1.893e-05
-6.48504e-07
1.88688e-05
-7.41663e-07
1.87939e-05
-8.46841e-07
1.87018e-05
-9.64202e-07
1.85876e-05
-1.09349e-06
1.84449e-05
-1.23381e-06
1.82648e-05
-1.3834e-06
1.8035e-05
-1.53908e-06
1.77375e-05
-1.6953e-06
1.73492e-05
-1.84485e-06
-1.96518e-06
1.68201e-05
1.92474e-05
-1.20781e-08
1.92453e-05
-3.55096e-08
1.92418e-05
-5.79e-08
1.9237e-05
-7.89977e-08
1.92308e-05
-9.86974e-08
1.92234e-05
-1.17087e-07
1.92147e-05
-1.34453e-07
1.92048e-05
-1.51263e-07
1.91935e-05
-1.68141e-07
1.91809e-05
-1.85825e-07
1.91666e-05
-2.0512e-07
1.91505e-05
-2.26851e-07
1.91322e-05
-2.51852e-07
1.91112e-05
-2.80977e-07
1.9087e-05
-3.15129e-07
1.90589e-05
-3.55259e-07
1.90259e-05
-4.02319e-07
1.8987e-05
-4.572e-07
1.89408e-05
-5.20655e-07
1.88855e-05
-5.93239e-07
1.88191e-05
-6.75233e-07
1.87388e-05
-7.66552e-07
1.86412e-05
-8.66598e-07
1.85218e-05
-9.74066e-07
1.83746e-05
-1.0866e-06
1.81915e-05
-1.20032e-06
1.79615e-05
-1.30913e-06
1.76688e-05
-1.40263e-06
1.72935e-05
-1.46948e-06
-1.46503e-06
1.67933e-05
1.92473e-05
-1.12547e-08
1.92449e-05
-3.30897e-08
1.92409e-05
-5.39028e-08
1.92353e-05
-7.34346e-08
1.92282e-05
-9.16026e-08
1.92197e-05
-1.08516e-07
1.92097e-05
-1.24452e-07
1.91982e-05
-1.39844e-07
1.91854e-05
-1.55259e-07
1.91709e-05
-1.71371e-07
1.91547e-05
-1.88906e-07
1.91364e-05
-2.08607e-07
1.91158e-05
-2.31217e-07
1.90923e-05
-2.57488e-07
1.90654e-05
-2.88205e-07
1.90343e-05
-3.24172e-07
1.89982e-05
-3.66167e-07
1.89558e-05
-4.14873e-07
1.8906e-05
-4.70804e-07
1.8847e-05
-5.34221e-07
1.87768e-05
-6.05043e-07
1.86929e-05
-6.82709e-07
1.85923e-05
-7.65997e-07
1.8471e-05
-8.52754e-07
1.83239e-05
-9.39458e-07
1.81442e-05
-1.02061e-06
1.7923e-05
-1.08792e-06
1.76478e-05
-1.12746e-06
1.73033e-05
-1.12498e-06
-1.0217e-06
1.686e-05
1.92472e-05
-1.03478e-08
1.92446e-05
-3.04253e-08
1.92401e-05
-4.94757e-08
1.92339e-05
-6.72321e-08
1.9226e-05
-8.36649e-08
1.92164e-05
-9.89207e-08
1.92052e-05
-1.13264e-07
1.91925e-05
-1.27083e-07
1.91781e-05
-1.40889e-07
1.9162e-05
-1.55288e-07
1.9144e-05
-1.70927e-07
1.91239e-05
-1.8846e-07
1.91012e-05
-2.08535e-07
1.90755e-05
-2.31803e-07
1.90462e-05
-2.58929e-07
1.90126e-05
-2.90577e-07
1.89738e-05
-3.27362e-07
1.89287e-05
-3.69783e-07
1.88761e-05
-4.18145e-07
1.88143e-05
-4.7247e-07
1.87417e-05
-5.32385e-07
1.86559e-05
-5.96976e-07
1.85545e-05
-6.64564e-07
1.84342e-05
-7.32403e-07
1.82909e-05
-7.96198e-07
1.81197e-05
-8.49411e-07
1.79142e-05
-8.82412e-07
1.76662e-05
-8.79444e-07
1.73658e-05
-8.2463e-07
-6.53478e-07
1.69976e-05
1.92472e-05
-9.3857e-09
1.92443e-05
-2.75969e-08
1.92396e-05
-4.4718e-08
1.92328e-05
-6.04917e-08
1.92242e-05
-7.49952e-08
1.92137e-05
-8.8425e-08
1.92014e-05
-1.01023e-07
1.91875e-05
-1.13127e-07
1.91718e-05
-1.25195e-07
1.91543e-05
-1.37761e-07
1.91347e-05
-1.51389e-07
1.91129e-05
-1.66641e-07
1.90884e-05
-1.8407e-07
1.90609e-05
-2.04226e-07
1.90296e-05
-2.27656e-07
1.89939e-05
-2.54894e-07
1.89529e-05
-2.86406e-07
1.89057e-05
-3.22532e-07
1.8851e-05
-3.63407e-07
1.87874e-05
-4.08873e-07
1.87133e-05
-4.58358e-07
1.86271e-05
-5.10723e-07
1.85265e-05
-5.64028e-07
1.84094e-05
-6.15212e-07
1.82728e-05
-6.5962e-07
1.81137e-05
-6.90307e-07
1.79285e-05
-6.97226e-07
1.77135e-05
-6.64458e-07
1.74647e-05
-5.75779e-07
-3.68579e-07
1.71798e-05
1.92472e-05
-8.41498e-09
1.92443e-05
-2.47221e-08
1.92393e-05
-3.97398e-08
1.92321e-05
-5.33111e-08
1.92228e-05
-6.5711e-08
1.92116e-05
-7.71712e-08
1.91985e-05
-8.78868e-08
1.91835e-05
-9.81464e-08
1.91666e-05
-1.08356e-07
1.91479e-05
-1.18984e-07
1.9127e-05
-1.30505e-07
1.91037e-05
-1.43389e-07
1.90777e-05
-1.58092e-07
1.90486e-05
-1.75062e-07
1.90157e-05
-1.94734e-07
1.89783e-05
-2.17518e-07
1.89356e-05
-2.43755e-07
1.88868e-05
-2.73652e-07
1.88306e-05
-3.07217e-07
1.87659e-05
-3.44171e-07
1.86913e-05
-3.83838e-07
1.86056e-05
-4.24988e-07
1.85072e-05
-4.65618e-07
1.83946e-05
-5.02642e-07
1.82665e-05
-5.31448e-07
1.81214e-05
-5.45296e-07
1.79588e-05
-5.34557e-07
1.77789e-05
-4.84607e-07
1.75831e-05
-3.79928e-07
-1.66714e-07
1.73812e-05
1.92472e-05
-7.5173e-09
1.92445e-05
-2.19965e-08
1.92394e-05
-3.46722e-08
1.92319e-05
-4.5782e-08
1.92221e-05
-5.59053e-08
1.92102e-05
-6.52648e-08
1.91963e-05
-7.39798e-08
1.91804e-05
-8.22894e-08
1.91626e-05
-9.05503e-08
1.91428e-05
-9.91557e-08
1.91208e-05
-1.08493e-07
1.90963e-05
-1.1894e-07
1.90691e-05
-1.30861e-07
1.90386e-05
-1.446e-07
1.90044e-05
-1.60487e-07
1.89657e-05
-1.78819e-07
1.89218e-05
-1.99826e-07
1.88717e-05
-2.2361e-07
1.88146e-05
-2.5009e-07
1.87494e-05
-2.78932e-07
1.8675e-05
-3.09447e-07
1.85904e-05
-3.4045e-07
1.84949e-05
-3.70052e-07
1.83876e-05
-3.95395e-07
1.82684e-05
-4.12272e-07
1.81378e-05
-4.14673e-07
1.79974e-05
-3.94157e-07
1.78514e-05
-3.38558e-07
1.77058e-05
-2.34334e-07
-4.03445e-08
1.75794e-05
1.92475e-05
-6.84531e-09
1.92452e-05
-1.9691e-08
1.92401e-05
-2.96648e-08
1.92325e-05
-3.80892e-08
1.92223e-05
-4.5766e-08
1.92099e-05
-5.28773e-08
1.91954e-05
-5.94586e-08
1.91788e-05
-6.57116e-08
1.91602e-05
-7.19403e-08
1.91395e-05
-7.84546e-08
1.91166e-05
-8.5551e-08
1.90912e-05
-9.35179e-08
1.90629e-05
-1.02626e-07
1.90314e-05
-1.13122e-07
1.89962e-05
-1.25228e-07
1.89565e-05
-1.39141e-07
1.89117e-05
-1.54994e-07
1.88609e-05
-1.72811e-07
1.88032e-05
-1.92458e-07
1.87379e-05
-2.136e-07
1.86641e-05
-2.35615e-07
1.85811e-05
-2.57475e-07
1.84886e-05
-2.77582e-07
1.83868e-05
-2.93538e-07
1.82763e-05
-3.01822e-07
1.81591e-05
-2.97444e-07
1.80387e-05
-2.73764e-07
1.79222e-05
-2.22022e-07
1.78191e-05
-1.31313e-07
2.36037e-08
1.77552e-05
1.92482e-05
-6.92942e-09
1.92464e-05
-1.78847e-08
1.92414e-05
-2.46075e-08
1.92335e-05
-3.02843e-08
1.92232e-05
-3.542e-08
1.92105e-05
-4.01958e-08
1.91956e-05
-4.45345e-08
1.91785e-05
-4.86279e-08
1.91593e-05
-5.27439e-08
1.9138e-05
-5.7117e-08
1.91144e-05
-6.1947e-08
1.90883e-05
-6.74164e-08
1.90593e-05
-7.36964e-08
1.90272e-05
-8.09432e-08
1.89912e-05
-8.92857e-08
1.89509e-05
-9.88145e-08
1.89055e-05
-1.09574e-07
1.88542e-05
-1.21544e-07
1.87963e-05
-1.34598e-07
1.87312e-05
-1.48449e-07
1.86582e-05
-1.62587e-07
1.85769e-05
-1.76211e-07
1.84874e-05
-1.88116e-07
1.83904e-05
-1.96542e-07
1.82875e-05
-1.98891e-07
1.81816e-05
-1.91484e-07
1.80777e-05
-1.69931e-07
1.79843e-05
-1.2859e-07
1.79143e-05
-6.13461e-08
4.12975e-08
1.78966e-05
1.92509e-05
-9.68181e-09
1.92491e-05
-1.60999e-08
1.92437e-05
-1.91985e-08
1.92356e-05
-2.21473e-08
1.92247e-05
-2.45618e-08
1.92113e-05
-2.68161e-08
1.91957e-05
-2.89593e-08
1.91782e-05
-3.10577e-08
1.91586e-05
-3.31987e-08
1.9137e-05
-3.54772e-08
1.9113e-05
-3.79872e-08
1.90864e-05
-4.08187e-08
1.90568e-05
-4.4059e-08
1.90236e-05
-4.77913e-08
1.89864e-05
-5.20828e-08
1.89446e-05
-5.69775e-08
1.88975e-05
-6.24907e-08
1.88446e-05
-6.85965e-08
1.87852e-05
-7.52009e-08
1.87188e-05
-8.21126e-08
1.86453e-05
-8.90141e-08
1.85645e-05
-9.54257e-08
1.8477e-05
-1.00636e-07
1.8384e-05
-1.0359e-07
1.82881e-05
-1.02947e-07
1.81934e-05
-9.67826e-08
1.81057e-05
-8.22375e-08
1.80336e-05
-5.64641e-08
1.79874e-05
-1.5164e-08
5.01765e-08
1.79785e-05
1.92385e-05
1.92224e-05
1.92032e-05
1.9181e-05
1.91564e-05
1.91296e-05
1.91007e-05
1.90696e-05
1.90364e-05
1.90009e-05
1.89629e-05
1.89221e-05
1.88781e-05
1.88303e-05
1.87782e-05
1.87212e-05
1.86587e-05
1.85901e-05
1.85149e-05
1.84328e-05
1.83438e-05
1.82484e-05
1.81477e-05
1.80442e-05
1.79412e-05
1.78444e-05
1.77622e-05
1.77057e-05
1.76906e-05
1.77407e-05
2.18208e-05
-1.03259e-05
1.07564e-05
2.13769e-05
-1.04494e-05
1.08933e-05
2.0905e-05
-1.05642e-05
1.10361e-05
2.04019e-05
-1.06674e-05
1.11705e-05
1.98747e-05
-1.07683e-05
1.12956e-05
1.93296e-05
-1.0871e-05
1.1416e-05
1.8771e-05
-1.09762e-05
1.15347e-05
1.82018e-05
-1.10849e-05
1.16541e-05
1.7624e-05
-1.11985e-05
1.17763e-05
1.70382e-05
-1.13176e-05
1.19033e-05
1.64444e-05
-1.14427e-05
1.20364e-05
1.58421e-05
-1.15743e-05
1.21766e-05
1.52306e-05
-1.17132e-05
1.23247e-05
1.4609e-05
-1.18603e-05
1.24819e-05
1.39764e-05
-1.20171e-05
1.26497e-05
1.33318e-05
-1.21853e-05
1.28299e-05
1.26738e-05
-1.23667e-05
1.30248e-05
1.20003e-05
-1.25636e-05
1.32371e-05
1.1309e-05
-1.27788e-05
1.34701e-05
1.05966e-05
-1.30152e-05
1.37277e-05
9.85884e-06
-1.3277e-05
1.40147e-05
9.09009e-06
-1.35687e-05
1.43374e-05
8.28296e-06
-1.38958e-05
1.4703e-05
7.42736e-06
-1.42661e-05
1.51217e-05
6.50957e-06
-1.46859e-05
1.56037e-05
5.51017e-06
-1.51707e-05
1.61701e-05
4.40809e-06
-1.57185e-05
1.68206e-05
3.13425e-06
-1.638e-05
1.76538e-05
1.75344e-06
-1.70361e-05
1.84169e-05
-1.81912e-05
1.99446e-05
2.19598e-05
-9.85872e-06
2.14567e-05
-9.94621e-06
2.09286e-05
-1.00361e-05
2.03865e-05
-1.01253e-05
1.98351e-05
-1.02169e-05
1.92766e-05
-1.03125e-05
1.87124e-05
-1.04119e-05
1.81425e-05
-1.05151e-05
1.75664e-05
-1.06224e-05
1.69831e-05
-1.07342e-05
1.63914e-05
-1.0851e-05
1.57906e-05
-1.09735e-05
1.518e-05
-1.11025e-05
1.45588e-05
-1.12391e-05
1.39261e-05
-1.13845e-05
1.32809e-05
-1.15401e-05
1.26215e-05
-1.17073e-05
1.19459e-05
-1.18881e-05
1.12515e-05
-1.20844e-05
1.0535e-05
-1.22987e-05
9.79212e-06
-1.2534e-05
9.01725e-06
-1.27938e-05
8.2032e-06
-1.30818e-05
7.34029e-06
-1.34032e-05
6.41582e-06
-1.37615e-05
5.41267e-06
-1.41676e-05
4.30737e-06
-1.46132e-05
3.06533e-06
-1.51379e-05
1.68211e-06
-1.56529e-05
-1.65091e-05
2.1873e-05
-9.35074e-06
2.13513e-05
-9.42449e-06
2.08181e-05
-9.50299e-06
2.02788e-05
-9.58598e-06
1.97345e-05
-9.6726e-06
1.91841e-05
-9.76216e-06
1.86267e-05
-9.85449e-06
1.80615e-05
-9.94987e-06
1.74879e-05
-1.00488e-05
1.69056e-05
-1.01518e-05
1.63141e-05
-1.02595e-05
1.57132e-05
-1.03726e-05
1.51023e-05
-1.04917e-05
1.44809e-05
-1.06177e-05
1.38479e-05
-1.07515e-05
1.32019e-05
-1.08941e-05
1.25413e-05
-1.10467e-05
1.18639e-05
-1.12107e-05
1.11671e-05
-1.13876e-05
1.04476e-05
-1.15792e-05
9.70103e-06
-1.17875e-05
8.92206e-06
-1.20148e-05
8.10371e-06
-1.22634e-05
7.23684e-06
-1.25364e-05
6.30976e-06
-1.28344e-05
5.30674e-06
-1.31646e-05
4.20701e-06
-1.35135e-05
2.9858e-06
-1.39167e-05
1.61277e-06
-1.42799e-05
-1.48963e-05
2.17823e-05
-8.83513e-06
2.12586e-05
-8.90077e-06
2.07264e-05
-8.9708e-06
2.01874e-05
-9.04702e-06
1.96419e-05
-9.12708e-06
1.90891e-05
-9.20931e-06
1.85284e-05
-9.29385e-06
1.79599e-05
-9.38139e-06
1.73836e-05
-9.47242e-06
1.67991e-05
-9.56734e-06
1.62061e-05
-9.66655e-06
1.5604e-05
-9.77053e-06
1.49922e-05
-9.87982e-06
1.43695e-05
-9.99503e-06
1.37349e-05
-1.01169e-05
1.30868e-05
-1.02461e-05
1.24236e-05
-1.03835e-05
1.17432e-05
-1.05302e-05
1.10428e-05
-1.06872e-05
1.03193e-05
-1.08556e-05
9.56844e-06
-1.10367e-05
8.78513e-06
-1.12315e-05
7.96279e-06
-1.14411e-05
7.093e-06
-1.16666e-05
6.16529e-06
-1.19067e-05
5.16562e-06
-1.21649e-05
4.07689e-06
-1.24248e-05
2.87804e-06
-1.27179e-05
1.53501e-06
-1.29368e-05
-1.33613e-05
2.16563e-05
-8.314e-06
2.11283e-05
-8.37277e-06
2.05928e-05
-8.43533e-06
2.00507e-05
-8.5049e-06
1.95022e-05
-8.57854e-06
1.89469e-05
-8.654e-06
1.83845e-05
-8.73145e-06
1.78148e-05
-8.81168e-06
1.72375e-05
-8.89512e-06
1.66521e-05
-8.98197e-06
1.60581e-05
-9.0725e-06
1.54546e-05
-9.1671e-06
1.4841e-05
-9.26619e-06
1.42162e-05
-9.37023e-06
1.35791e-05
-9.47973e-06
1.29282e-05
-9.59521e-06
1.2262e-05
-9.71726e-06
1.15782e-05
-9.84643e-06
1.08743e-05
-9.98333e-06
1.01471e-05
-1.01285e-05
9.3928e-06
-1.02823e-05
8.60645e-06
-1.04451e-05
7.78209e-06
-1.06167e-05
6.91216e-06
-1.07966e-05
5.98749e-06
-1.0982e-05
4.99593e-06
-1.11733e-05
3.92369e-06
-1.13525e-05
2.75189e-06
-1.15461e-05
1.45196e-06
-1.16369e-05
-1.19093e-05
2.14937e-05
-7.78834e-06
2.0962e-05
-7.84102e-06
2.04235e-05
-7.89685e-06
1.98787e-05
-7.96012e-06
1.93277e-05
-8.02754e-06
1.87701e-05
-8.0964e-06
1.82055e-05
-8.16684e-06
1.76335e-05
-8.23973e-06
1.70539e-05
-8.31544e-06
1.6466e-05
-8.39407e-06
1.58692e-05
-8.4758e-06
1.52631e-05
-8.56091e-06
1.46466e-05
-8.64971e-06
1.40189e-05
-8.7425e-06
1.33787e-05
-8.83958e-06
1.27247e-05
-8.94124e-06
1.20552e-05
-9.04775e-06
1.13681e-05
-9.15936e-06
1.0661e-05
-9.27623e-06
9.93094e-06
-9.39838e-06
9.17422e-06
-9.52562e-06
8.38649e-06
-9.65742e-06
7.56243e-06
-9.79265e-06
6.69543e-06
-9.92965e-06
5.77771e-06
-1.00643e-05
4.79906e-06
-1.01947e-05
3.74872e-06
-1.03022e-05
2.61042e-06
-1.04078e-05
1.36423e-06
-1.03907e-05
-1.05451e-05
2.12889e-05
-7.2582e-06
2.07532e-05
-7.30527e-06
2.02111e-05
-7.35483e-06
1.9663e-05
-7.41201e-06
1.91088e-05
-7.47328e-06
1.8548e-05
-7.53562e-06
1.79803e-05
-7.59915e-06
1.74053e-05
-7.66476e-06
1.68227e-05
-7.73279e-06
1.62318e-05
-7.80324e-06
1.56322e-05
-7.87618e-06
1.50231e-05
-7.95181e-06
1.44037e-05
-8.0303e-06
1.3773e-05
-8.1118e-06
1.31299e-05
-8.19643e-06
1.24729e-05
-8.28427e-06
1.18005e-05
-8.37536e-06
1.11108e-05
-8.46964e-06
1.04015e-05
-8.56689e-06
9.6698e-06
-8.66672e-06
8.91258e-06
-8.7684e-06
8.12593e-06
-8.87077e-06
7.30525e-06
-8.97197e-06
6.44498e-06
-9.06938e-06
5.53875e-06
-9.15807e-06
4.57832e-06
-9.23427e-06
3.55581e-06
-9.27965e-06
2.45786e-06
-9.30981e-06
1.27361e-06
-9.20647e-06
-9.27149e-06
2.10366e-05
-6.72342e-06
2.04966e-05
-6.76527e-06
1.99508e-05
-6.80897e-06
1.9399e-05
-6.86026e-06
1.88412e-05
-6.91547e-06
1.8277e-05
-6.97141e-06
1.7706e-05
-7.02813e-06
1.71278e-05
-7.08655e-06
1.65419e-05
-7.14696e-06
1.5948e-05
-7.20928e-06
1.53453e-05
-7.27349e-06
1.47332e-05
-7.33969e-06
1.41108e-05
-7.40794e-06
1.34773e-05
-7.47827e-06
1.28315e-05
-7.55064e-06
1.21721e-05
-7.62494e-06
1.14978e-05
-7.70101e-06
1.08067e-05
-7.7785e-06
1.00967e-05
-7.85693e-06
9.36552e-06
-7.93554e-06
8.61031e-06
-8.01318e-06
7.82778e-06
-8.08824e-06
7.01412e-06
-8.15831e-06
6.16485e-06
-8.22011e-06
5.275e-06
-8.26822e-06
4.33829e-06
-8.29755e-06
3.34949e-06
-8.29086e-06
2.29831e-06
-8.25863e-06
1.18219e-06
-8.09035e-06
-8.0893e-06
2.07323e-05
-6.1839e-06
2.01879e-05
-6.22093e-06
1.96381e-05
-6.25917e-06
1.90826e-05
-6.30474e-06
1.85211e-05
-6.35399e-06
1.79534e-05
-6.40365e-06
1.73789e-05
-6.45371e-06
1.67975e-05
-6.50507e-06
1.62085e-05
-6.558e-06
1.56116e-05
-6.61234e-06
1.50061e-05
-6.668e-06
1.43914e-05
-6.72498e-06
1.37667e-05
-6.78325e-06
1.31312e-05
-6.84274e-06
1.24838e-05
-6.90325e-06
1.18234e-05
-6.96454e-06
1.11486e-05
-7.02624e-06
1.04579e-05
-7.08784e-06
9.74961e-06
-7.1486e-06
9.02156e-06
-7.20749e-06
8.27146e-06
-7.26309e-06
7.49666e-06
-7.31344e-06
6.69414e-06
-7.35579e-06
5.86048e-06
-7.38645e-06
4.99209e-06
-7.39983e-06
4.08454e-06
-7.39001e-06
3.13501e-06
-7.34132e-06
2.13605e-06
-7.25967e-06
1.09211e-06
-7.04641e-06
-6.99719e-06
2.03731e-05
-5.63976e-06
1.98245e-05
-5.67235e-06
1.92709e-05
-5.70558e-06
1.87119e-05
-5.74564e-06
1.81469e-05
-5.78907e-06
1.75759e-05
-5.83262e-06
1.69985e-05
-5.87625e-06
1.64142e-05
-5.9208e-06
1.58227e-05
-5.96649e-06
1.52235e-05
-6.01313e-06
1.4616e-05
-6.06055e-06
1.39997e-05
-6.10867e-06
1.33738e-05
-6.1574e-06
1.27377e-05
-6.20655e-06
1.20902e-05
-6.25584e-06
1.14306e-05
-6.30488e-06
1.07575e-05
-6.35319e-06
1.00698e-05
-6.40008e-06
9.36584e-06
-6.44467e-06
8.64409e-06