/*--------------------------------*- C++ -*----------------------------------*\
  =========                 |
  \\      /  F ield         | OpenFOAM: The Open Source CFD Toolbox
   \\    /   O peration     | Website:  https://openfoam.org
    \\  /    A nd           | Version:  11
     \\/     M anipulation  |
\*---------------------------------------------------------------------------*/
FoamFile
{
    format      ascii;
    class       volVectorField;
    location    "4.9";
    object      U;
}
// * * * * * * * * * * * * * * * * * * * * * * * * * * * * * * * * * * * * * //

dimensions      [0 1 -1 0 0 0 0];

internalField   nonuniform List<vector> 
12600
(
(0.412113 0.000109056 0)
(0.411841 0.000183513 0)
(0.411424 0.000192997 0)
(0.410948 0.00019595 0)
(0.410473 0.000200341 0)
(0.410007 0.000203534 0)
(0.409544 0.000205325 0)
(0.409082 0.000206439 0)
(0.408621 0.000207076 0)
(0.408164 0.000207214 0)
(0.407713 0.000206876 0)
(0.407267 0.000206074 0)
(0.406829 0.000204781 0)
(0.4064 0.000202874 0)
(0.405983 0.000200161 0)
(0.405579 0.000196431 0)
(0.405194 0.000191674 0)
(0.404831 0.000185686 0)
(0.404496 0.000177767 0)
(0.404195 0.000167432 0)
(0.403936 0.000154716 0)
(0.403731 0.000139114 0)
(0.403593 0.000121221 0)
(0.403537 9.97548e-05 0)
(0.403586 6.97995e-05 0)
(0.40377 2.33594e-05 0)
(0.40413 -4.22308e-05 0)
(0.404729 -0.00012314 0)
(0.405741 -0.000245823 0)
(0.406033 -0.000825349 0)
(0.412491 0.000155519 0)
(0.412639 0.000283966 0)
(0.412769 0.000266138 0)
(0.412814 0.000259746 0)
(0.412853 0.000263546 0)
(0.412897 0.000264069 0)
(0.412945 0.000262047 0)
(0.412994 0.000259114 0)
(0.413044 0.000255607 0)
(0.413098 0.000251458 0)
(0.413157 0.00024657 0)
(0.413222 0.000240799 0)
(0.413293 0.000233924 0)
(0.413372 0.000225594 0)
(0.413462 0.000215373 0)
(0.413564 0.000202668 0)
(0.413683 0.000186709 0)
(0.413822 0.000166444 0)
(0.413986 0.000143281 0)
(0.41418 0.00011586 0)
(0.414411 8.01162e-05 0)
(0.414688 3.5712e-05 0)
(0.415022 -2.03954e-05 0)
(0.415428 -9.23256e-05 0)
(0.415925 -0.000181716 0)
(0.416525 -0.000292918 0)
(0.417287 -0.000432317 0)
(0.418122 -0.000639575 0)
(0.41935 -0.000890517 0)
(0.41943 -0.00183518 0)
(0.41248 8.36896e-05 0)
(0.412553 0.000153182 0)
(0.412642 0.000161789 0)
(0.412705 0.000165766 0)
(0.41275 0.000172792 0)
(0.412793 0.00017606 0)
(0.412839 0.000175102 0)
(0.412888 0.000172354 0)
(0.41294 0.000168354 0)
(0.412995 0.000163158 0)
(0.413055 0.00015672 0)
(0.413121 0.000148826 0)
(0.413192 0.000139288 0)
(0.413271 0.000127471 0)
(0.413358 0.000112624 0)
(0.413456 9.41407e-05 0)
(0.413567 7.09456e-05 0)
(0.413696 4.25398e-05 0)
(0.413848 7.00792e-06 0)
(0.414028 -3.93738e-05 0)
(0.414243 -9.70297e-05 0)
(0.414501 -0.000166694 0)
(0.41481 -0.000252386 0)
(0.415184 -0.000358973 0)
(0.415639 -0.000492235 0)
(0.416194 -0.000663603 0)
(0.416875 -0.000881502 0)
(0.417696 -0.00117489 0)
(0.418684 -0.00154879 0)
(0.419803 -0.00190382 0)
(0.412472 5.59037e-05 0)
(0.412521 0.000134526 0)
(0.412593 0.000165214 0)
(0.412652 0.000177317 0)
(0.412695 0.000187418 0)
(0.412737 0.000193473 0)
(0.412781 0.000192114 0)
(0.412829 0.000188487 0)
(0.412879 0.000182926 0)
(0.412932 0.000175655 0)
(0.412991 0.000166747 0)
(0.413055 0.000156078 0)
(0.413125 0.000143259 0)
(0.413201 0.000127639 0)
(0.413286 0.000108378 0)
(0.413382 8.31973e-05 0)
(0.41349 5.11563e-05 0)
(0.413615 1.1697e-05 0)
(0.413762 -3.6855e-05 0)
(0.413936 -9.7121e-05 0)
(0.414144 -0.000171469 0)
(0.414392 -0.00026415 0)
(0.41469 -0.000379408 0)
(0.415049 -0.000523193 0)
(0.415484 -0.000703725 0)
(0.416015 -0.00093222 0)
(0.416661 -0.001221 0)
(0.417455 -0.00158443 0)
(0.418398 -0.00204619 0)
(0.419627 -0.0024271 0)
(0.412468 4.02096e-05 0)
(0.412501 0.000104309 0)
(0.412556 0.000133822 0)
(0.412608 0.000143152 0)
(0.41265 0.000147966 0)
(0.412691 0.000150108 0)
(0.412734 0.00014782 0)
(0.41278 0.000141293 0)
(0.412829 0.000132134 0)
(0.412882 0.000121337 0)
(0.412939 0.000108953 0)
(0.413001 9.45487e-05 0)
(0.413069 7.83047e-05 0)
(0.413143 5.8771e-05 0)
(0.413225 3.3712e-05 0)
(0.413318 2.14017e-06 0)
(0.413423 -3.82296e-05 0)
(0.413545 -8.78096e-05 0)
(0.413686 -0.000148685 0)
(0.413853 -0.000223849 0)
(0.414051 -0.000317066 0)
(0.414287 -0.000432716 0)
(0.414569 -0.000575799 0)
(0.414909 -0.000753759 0)
(0.415321 -0.000976552 0)
(0.415822 -0.00125676 0)
(0.41643 -0.00161013 0)
(0.417185 -0.00204777 0)
(0.418074 -0.00260692 0)
(0.419318 -0.00314787 0)
(0.412466 2.96245e-05 0)
(0.412489 8.09713e-05 0)
(0.412533 0.000110677 0)
(0.412579 0.000123777 0)
(0.41262 0.000131016 0)
(0.412659 0.000134956 0)
(0.412701 0.000133735 0)
(0.412746 0.000127758 0)
(0.412794 0.000118558 0)
(0.412845 0.000107113 0)
(0.412901 9.36648e-05 0)
(0.412961 7.79617e-05 0)
(0.413027 5.91829e-05 0)
(0.413099 3.63474e-05 0)
(0.413178 8.25105e-06 0)
(0.413267 -2.70314e-05 0)
(0.413367 -7.25613e-05 0)
(0.413483 -0.000130511 0)
(0.413617 -0.000202745 0)
(0.413775 -0.000292041 0)
(0.413961 -0.000402255 0)
(0.414183 -0.000538309 0)
(0.414448 -0.000706605 0)
(0.414765 -0.00091592 0)
(0.415148 -0.00117781 0)
(0.415614 -0.00150645 0)
(0.416176 -0.00192059 0)
(0.416882 -0.00243256 0)
(0.417707 -0.00309178 0)
(0.418904 -0.0037827 0)
(0.412464 2.22997e-05 0)
(0.412482 6.33424e-05 0)
(0.412517 9.09248e-05 0)
(0.412558 0.000104816 0)
(0.412597 0.000111264 0)
(0.412634 0.000113111 0)
(0.412674 0.000109725 0)
(0.412717 0.000101309 0)
(0.412764 8.91769e-05 0)
(0.412813 7.44827e-05 0)
(0.412867 5.76529e-05 0)
(0.412925 3.84765e-05 0)
(0.412988 1.61797e-05 0)
(0.413057 -1.08775e-05 0)
(0.413133 -4.46663e-05 0)
(0.413217 -8.71777e-05 0)
(0.413313 -0.000140389 0)
(0.413422 -0.000207078 0)
(0.413548 -0.000289844 0)
(0.413695 -0.000391928 0)
(0.413869 -0.000517727 0)
(0.414074 -0.000672917 0)
(0.414318 -0.000864848 0)
(0.41461 -0.0011033 0)
(0.41496 -0.00140117 0)
(0.415385 -0.00177433 0)
(0.415896 -0.00224406 0)
(0.41654 -0.00282749 0)
(0.41729 -0.00357699 0)
(0.418399 -0.00441964 0)
(0.412463 1.6888e-05 0)
(0.412477 4.93555e-05 0)
(0.412506 7.33943e-05 0)
(0.412542 8.67118e-05 0)
(0.412579 9.24769e-05 0)
(0.412615 9.3148e-05 0)
(0.412653 8.87595e-05 0)
(0.412695 7.94134e-05 0)
(0.41274 6.61759e-05 0)
(0.412788 5.01895e-05 0)
(0.41284 3.19487e-05 0)
(0.412896 1.11332e-05 0)
(0.412956 -1.29309e-05 0)
(0.413021 -4.20574e-05 0)
(0.413093 -7.8501e-05 0)
(0.413173 -0.000124718 0)
(0.413262 -0.000183157 0)
(0.413364 -0.000256776 0)
(0.413481 -0.000348505 0)
(0.413617 -0.00046181 0)
(0.413776 -0.00060133 0)
(0.413963 -0.000773196 0)
(0.414184 -0.000985495 0)
(0.414447 -0.00124898 0)
(0.41476 -0.00157787 0)
(0.415139 -0.00198983 0)
(0.415592 -0.0025087 0)
(0.416164 -0.00315669 0)
(0.416825 -0.00398794 0)
(0.417821 -0.00496741 0)
(0.412463 1.26361e-05 0)
(0.412474 3.79063e-05 0)
(0.412499 5.80006e-05 0)
(0.412531 6.9988e-05 0)
(0.412565 7.49131e-05 0)
(0.412599 7.43818e-05 0)
(0.412636 6.86542e-05 0)
(0.412676 5.78648e-05 0)
(0.412719 4.29172e-05 0)
(0.412766 2.49252e-05 0)
(0.412815 4.45705e-06 0)
(0.412869 -1.88112e-05 0)
(0.412926 -4.57803e-05 0)
(0.412988 -7.81951e-05 0)
(0.413055 -0.000118525 0)
(0.413129 -0.000169474 0)
(0.413212 -0.000233759 0)
(0.413306 -0.000314401 0)
(0.413413 -0.00041464 0)
(0.413536 -0.000538256 0)
(0.413679 -0.000690184 0)
(0.413846 -0.000876989 0)
(0.414042 -0.0011074 0)
(0.414273 -0.00139301 0)
(0.414547 -0.00174909 0)
(0.414875 -0.00219487 0)
(0.415265 -0.00275623 0)
(0.415756 -0.00346046 0)
(0.416316 -0.00436139 0)
(0.417175 -0.00546336 0)
(0.412462 9.1848e-06 0)
(0.412472 2.82469e-05 0)
(0.412493 4.43938e-05 0)
(0.412522 5.45023e-05 0)
(0.412554 5.82568e-05 0)
(0.412587 5.64058e-05 0)
(0.412623 4.92346e-05 0)
(0.412661 3.69996e-05 0)
(0.412702 2.05511e-05 0)
(0.412747 9.65013e-07 0)
(0.412794 -2.11659e-05 0)
(0.412844 -4.60438e-05 0)
(0.412898 -7.48953e-05 0)
(0.412956 -0.000109545 0)
(0.413019 -0.000152544 0)
(0.413088 -0.000206827 0)
(0.413164 -0.00027539 0)
(0.413248 -0.000361421 0)
(0.413344 -0.000468373 0)
(0.413454 -0.00060024 0)
(0.41358 -0.000762158 0)
(0.413726 -0.000960991 0)
(0.413895 -0.00120592 0)
(0.414093 -0.00150915 0)
(0.414324 -0.00188679 0)
(0.414598 -0.00235937 0)
(0.414919 -0.0029545 0)
(0.415321 -0.0037039 0)
(0.41577 -0.00466072 0)
(0.416474 -0.00586365 0)
(0.412462 6.25222e-06 0)
(0.412471 1.99053e-05 0)
(0.412489 3.22036e-05 0)
(0.412515 4.00847e-05 0)
(0.412545 4.24081e-05 0)
(0.412577 3.91979e-05 0)
(0.412611 3.06223e-05 0)
(0.412648 1.70185e-05 0)
(0.412688 -7.95402e-07 0)
(0.41273 -2.18073e-05 0)
(0.412775 -4.54378e-05 0)
(0.412823 -7.19502e-05 0)
(0.412873 -0.000102592 0)
(0.412927 -0.000139337 0)
(0.412985 -0.000184871 0)
(0.413047 -0.000242284 0)
(0.413116 -0.000314763 0)
(0.413191 -0.000405613 0)
(0.413276 -0.000518411 0)
(0.413371 -0.000657299 0)
(0.413479 -0.000827564 0)
(0.413603 -0.00103627 0)
(0.413744 -0.00129289 0)
(0.413906 -0.00161003 0)
(0.414093 -0.00200439 0)
(0.41431 -0.00249737 0)
(0.414559 -0.00311769 0)
(0.414866 -0.00390059 0)
(0.415196 -0.0048976 0)
(0.415727 -0.00617862 0)
(0.412462 3.68867e-06 0)
(0.412469 1.25008e-05 0)
(0.412486 2.1113e-05 0)
(0.41251 2.65784e-05 0)
(0.412539 2.72769e-05 0)
(0.412569 2.26769e-05 0)
(0.412602 1.27523e-05 0)
(0.412638 -2.14006e-06 0)
(0.412676 -2.11963e-05 0)
(0.412716 -4.34528e-05 0)
(0.412758 -6.83588e-05 0)
(0.412803 -9.62039e-05 0)
(0.41285 -0.00012826 0)
(0.412899 -0.000166634 0)
(0.412952 -0.000214109 0)
(0.413008 -0.000273881 0)
(0.413068 -0.000349272 0)
(0.413135 -0.000443692 0)
(0.413207 -0.000560797 0)
(0.413288 -0.000704815 0)
(0.413378 -0.000881102 0)
(0.413478 -0.0010968 0)
(0.41359 -0.00136152 0)
(0.413716 -0.00168803 0)
(0.413857 -0.00209326 0)
(0.414016 -0.00259905 0)
(0.41419 -0.00323461 0)
(0.414399 -0.00403755 0)
(0.414605 -0.00505717 0)
(0.41495 -0.00638875 0)
(0.412462 1.31666e-06 0)
(0.412469 5.86128e-06 0)
(0.412484 1.08561e-05 0)
(0.412507 1.38058e-05 0)
(0.412534 1.27717e-05 0)
(0.412563 6.77845e-06 0)
(0.412595 -4.41808e-06 0)
(0.412629 -2.04884e-05 0)
(0.412665 -4.06318e-05 0)
(0.412704 -6.39199e-05 0)
(0.412743 -8.98376e-05 0)
(0.412785 -0.000118708 0)
(0.412828 -0.000151844 0)
(0.412873 -0.000191439 0)
(0.41292 -0.000240357 0)
(0.41297 -0.000301872 0)
(0.413022 -0.000379391 0)
(0.413079 -0.000476386 0)
(0.413139 -0.000596541 0)
(0.413205 -0.000744098 0)
(0.413276 -0.000924402 0)
(0.413352 -0.00114456 0)
(0.413435 -0.00141413 0)
(0.413524 -0.00174583 0)
(0.413619 -0.00215647 0)
(0.413718 -0.00266782 0)
(0.413818 -0.00330882 0)
(0.413925 -0.00411814 0)
(0.414005 -0.00514203 0)
(0.414157 -0.00649445 0)
(0.412462 -9.15443e-07 0)
(0.412468 -3.44704e-07 0)
(0.412483 1.24211e-06 0)
(0.412504 1.61545e-06 0)
(0.41253 -1.23297e-06 0)
(0.412559 -8.59558e-06 0)
(0.41259 -2.09491e-05 0)
(0.412623 -3.80387e-05 0)
(0.412657 -5.90818e-05 0)
(0.412693 -8.31798e-05 0)
(0.41273 -0.000109853 0)
(0.412769 -0.000139455 0)
(0.412808 -0.000173332 0)
(0.412848 -0.000213728 0)
(0.41289 -0.000263561 0)
(0.412933 -0.000326145 0)
(0.412978 -0.000404925 0)
(0.413024 -0.000503389 0)
(0.413072 -0.000625204 0)
(0.413122 -0.000774562 0)
(0.413174 -0.000956717 0)
(0.413227 -0.00117863 0)
(0.413281 -0.00144964 0)
(0.413333 -0.00178216 0)
(0.413382 -0.00219252 0)
(0.413423 -0.0027019 0)
(0.413447 -0.0033382 0)
(0.413456 -0.00413969 0)
(0.413411 -0.00514874 0)
(0.413366 -0.00648989 0)
(0.412461 -2.93465e-06 0)
(0.412468 -6.23687e-06 0)
(0.412482 -8.00832e-06 0)
(0.412503 -1.01864e-05 0)
(0.412528 -1.48343e-05 0)
(0.412556 -2.35029e-05 0)
(0.412586 -3.68993e-05 0)
(0.412618 -5.48554e-05 0)
(0.41265 -7.66011e-05 0)
(0.412684 -0.000101263 0)
(0.412719 -0.000128407 0)
(0.412754 -0.000158425 0)
(0.41279 -0.000192685 0)
(0.412826 -0.000233453 0)
(0.412862 -0.000283665 0)
(0.412898 -0.000346641 0)
(0.412935 -0.000425825 0)
(0.412971 -0.00052468 0)
(0.413007 -0.000646809 0)
(0.413042 -0.000796298 0)
(0.413075 -0.000978232 0)
(0.413105 -0.00119932 0)
(0.413129 -0.00146852 0)
(0.413146 -0.0017977 0)
(0.413149 -0.0022024 0)
(0.413133 -0.00270265 0)
(0.413086 -0.00332458 0)
(0.412998 -0.00410452 0)
(0.412833 -0.00508006 0)
(0.412597 -0.00637741 0)
(0.412461 -4.90815e-06 0)
(0.412468 -1.1985e-05 0)
(0.412482 -1.70408e-05 0)
(0.412502 -2.17311e-05 0)
(0.412527 -2.81268e-05 0)
(0.412555 -3.8024e-05 0)
(0.412584 -5.2344e-05 0)
(0.412614 -7.09909e-05 0)
(0.412646 -9.32105e-05 0)
(0.412678 -0.000118173 0)
(0.41271 -0.000145501 0)
(0.412742 -0.00017562 0)
(0.412773 -0.000209903 0)
(0.412805 -0.00025061 0)
(0.412836 -0.000300666 0)
(0.412865 -0.000363363 0)
(0.412894 -0.000442107 0)
(0.41292 -0.000540292 0)
(0.412944 -0.000661415 0)
(0.412963 -0.000809398 0)
(0.412978 -0.000989088 0)
(0.412985 -0.00120683 0)
(0.412982 -0.0014711 0)
(0.412963 -0.00179297 0)
(0.412924 -0.00218689 0)
(0.412854 -0.00267127 0)
(0.412738 -0.0032697 0)
(0.41256 -0.00401516 0)
(0.412283 -0.00493955 0)
(0.41187 -0.00616154 0)
(0.412461 -6.86391e-06 0)
(0.412468 -1.77042e-05 0)
(0.412482 -2.60118e-05 0)
(0.412502 -3.31729e-05 0)
(0.412527 -4.12666e-05 0)
(0.412554 -5.23018e-05 0)
(0.412583 -6.73908e-05 0)
(0.412613 -8.65153e-05 0)
(0.412643 -0.000108957 0)
(0.412673 -0.000133942 0)
(0.412702 -0.000161156 0)
(0.412731 -0.000191051 0)
(0.412759 -0.000224994 0)
(0.412786 -0.000265216 0)
(0.412811 -0.000314595 0)
(0.412835 -0.000376365 0)
(0.412855 -0.000453847 0)
(0.412872 -0.000550329 0)
(0.412883 -0.000669161 0)
(0.412889 -0.000814057 0)
(0.412885 -0.00098957 0)
(0.41287 -0.00120161 0)
(0.41284 -0.00145801 0)
(0.412789 -0.00176893 0)
(0.412709 -0.00214742 0)
(0.412588 -0.00260984 0)
(0.41241 -0.00317668 0)
(0.412149 -0.00387622 0)
(0.411773 -0.00473389 0)
(0.411202 -0.00585206 0)
(0.412461 -8.8522e-06 0)
(0.412468 -2.3539e-05 0)
(0.412482 -3.51355e-05 0)
(0.412504 -4.47071e-05 0)
(0.412529 -5.4373e-05 0)
(0.412556 -6.64028e-05 0)
(0.412584 -8.20935e-05 0)
(0.412613 -0.00010148 0)
(0.412641 -0.000123883 0)
(0.41267 -0.000148609 0)
(0.412697 -0.00017541 0)
(0.412723 -0.000204762 0)
(0.412747 -0.000238008 0)
(0.41277 -0.000277327 0)
(0.41279 -0.000325523 0)
(0.412807 -0.000385731 0)
(0.412819 -0.000461155 0)
(0.412827 -0.000554941 0)
(0.412827 -0.000670256 0)
(0.412818 -0.00081057 0)
(0.412798 -0.000980089 0)
(0.412762 -0.00118423 0)
(0.412706 -0.00143008 0)
(0.412624 -0.00172674 0)
(0.412506 -0.00208567 0)
(0.41234 -0.00252087 0)
(0.412106 -0.00304924 0)
(0.411773 -0.00369335 0)
(0.411312 -0.00447158 0)
(0.410609 -0.00546249 0)
(0.412462 -1.09428e-05 0)
(0.412468 -2.96672e-05 0)
(0.412484 -4.46056e-05 0)
(0.412506 -5.64855e-05 0)
(0.412532 -6.7568e-05 0)
(0.412559 -8.04378e-05 0)
(0.412587 -9.65476e-05 0)
(0.412615 -0.00011596 0)
(0.412642 -0.000138052 0)
(0.412669 -0.000162229 0)
(0.412694 -0.000188318 0)
(0.412717 -0.000216808 0)
(0.412738 -0.000249005 0)
(0.412756 -0.000287013 0)
(0.412771 -0.000333534 0)
(0.412782 -0.000391572 0)
(0.412787 -0.00046418 0)
(0.412786 -0.000554334 0)
(0.412775 -0.00066499 0)
(0.412753 -0.000799345 0)
(0.412716 -0.000961226 0)
(0.412661 -0.0011555 0)
(0.412581 -0.00138846 0)
(0.412471 -0.00166804 0)
(0.412319 -0.00200397 0)
(0.412112 -0.00240772 0)
(0.41183 -0.0028923 0)
(0.411437 -0.00347388 0)
(0.410907 -0.00416362 0)
(0.410105 -0.00501078 0)
(0.412462 -1.32169e-05 0)
(0.412469 -3.62924e-05 0)
(0.412486 -5.46617e-05 0)
(0.412509 -6.87031e-05 0)
(0.412536 -8.09834e-05 0)
(0.412564 -9.45033e-05 0)
(0.412592 -0.000110833 0)
(0.412619 -0.00013002 0)
(0.412646 -0.000151517 0)
(0.412671 -0.00017486 0)
(0.412694 -0.000199953 0)
(0.412714 -0.000227281 0)
(0.412731 -0.000258094 0)
(0.412746 -0.000294401 0)
(0.412756 -0.000338771 0)
(0.412761 -0.000394044 0)
(0.412759 -0.00046309 0)
(0.412749 -0.000548686 0)
(0.412728 -0.000653555 0)
(0.412693 -0.000780602 0)
(0.412641 -0.000933252 0)
(0.412568 -0.0011158 0)
(0.412467 -0.00133371 0)
(0.412331 -0.00159371 0)
(0.412149 -0.00190377 0)
(0.411907 -0.00227271 0)
(0.411584 -0.00270968 0)
(0.411144 -0.00322421 0)
(0.410562 -0.00382047 0)
(0.409696 -0.00451554 0)
(0.412462 -1.57838e-05 0)
(0.41247 -4.36905e-05 0)
(0.412489 -6.55878e-05 0)
(0.412515 -8.15405e-05 0)
(0.412543 -9.47323e-05 0)
(0.412571 -0.000108707 0)
(0.412599 -0.000125056 0)
(0.412626 -0.000143747 0)
(0.412652 -0.00016434 0)
(0.412675 -0.000186543 0)
(0.412696 -0.000210341 0)
(0.412714 -0.000236213 0)
(0.412728 -0.000265342 0)
(0.412739 -0.000299624 0)
(0.412745 -0.000341467 0)
(0.412744 -0.000393517 0)
(0.412736 -0.000458442 0)
(0.412718 -0.000538794 0)
(0.412687 -0.000637041 0)
(0.412641 -0.00075578 0)
(0.412575 -0.000898028 0)
(0.412485 -0.00106749 0)
(0.412364 -0.00126878 0)
(0.412206 -0.00150745 0)
(0.411998 -0.00178969 0)
(0.411726 -0.0021218 0)
(0.41137 -0.0025092 0)
(0.410896 -0.00295504 0)
(0.410281 -0.00345721 0)
(0.409387 -0.00400091 0)
(0.412462 -1.88034e-05 0)
(0.412472 -5.22361e-05 0)
(0.412494 -7.7714e-05 0)
(0.412522 -9.51739e-05 0)
(0.412552 -0.000108919 0)
(0.412581 -0.000123143 0)
(0.412609 -0.000139305 0)
(0.412636 -0.000157249 0)
(0.412661 -0.000176676 0)
(0.412683 -0.000197461 0)
(0.412702 -0.000219643 0)
(0.412718 -0.000243676 0)
(0.412729 -0.000270673 0)
(0.412736 -0.000302408 0)
(0.412738 -0.000341103 0)
(0.412732 -0.000389182 0)
(0.412718 -0.000449083 0)
(0.412692 -0.000523135 0)
(0.412653 -0.000613549 0)
(0.412596 -0.000722613 0)
(0.412517 -0.000852941 0)
(0.412412 -0.00100767 0)
(0.412275 -0.00119061 0)
(0.412096 -0.00140617 0)
(0.411866 -0.00165892 0)
(0.41157 -0.00195278 0)
(0.41119 -0.00228989 0)
(0.410693 -0.00266771 0)
(0.410061 -0.00307922 0)
(0.40917 -0.00348097 0)
(0.412463 -2.25204e-05 0)
(0.412475 -6.24548e-05 0)
(0.412501 -9.14337e-05 0)
(0.412533 -0.000109797 0)
(0.412565 -0.000123684 0)
(0.412594 -0.000137889 0)
(0.412623 -0.00015353 0)
(0.41265 -0.000170392 0)
(0.412674 -0.000188445 0)
(0.412695 -0.000207749 0)
(0.412712 -0.000228358 0)
(0.412726 -0.000250672 0)
(0.412735 -0.000275703 0)
(0.412738 -0.000305053 0)
(0.412736 -0.000340729 0)
(0.412726 -0.000384925 0)
(0.412706 -0.000439821 0)
(0.412674 -0.000507467 0)
(0.412626 -0.000589805 0)
(0.41256 -0.000688833 0)
(0.41247 -0.00080677 0)
(0.412352 -0.000946177 0)
(0.412199 -0.0011101 0)
(0.412004 -0.00130192 0)
(0.411755 -0.00152471 0)
(0.41144 -0.00178029 0)
(0.411043 -0.0020681 0)
(0.410534 -0.00238101 0)
(0.409898 -0.00270899 0)
(0.40904 -0.00298603 0)
(0.412464 -2.73426e-05 0)
(0.41248 -7.50779e-05 0)
(0.412511 -0.000107106 0)
(0.412548 -0.000125563 0)
(0.412581 -0.00013935 0)
(0.412612 -0.000153399 0)
(0.412641 -0.000168064 0)
(0.412668 -0.000183113 0)
(0.412692 -0.000198896 0)
(0.412712 -0.000215693 0)
(0.412727 -0.000233606 0)
(0.412739 -0.000253024 0)
(0.412745 -0.000274886 0)
(0.412746 -0.000300628 0)
(0.41274 -0.000332033 0)
(0.412726 -0.00037104 0)
(0.412701 -0.000419554 0)
(0.412663 -0.000479343 0)
(0.412608 -0.000552082 0)
(0.412533 -0.000639512 0)
(0.412434 -0.000743499 0)
(0.412304 -0.00086606 0)
(0.412138 -0.00100956 0)
(0.411929 -0.00117651 0)
(0.411666 -0.00136874 0)
(0.411337 -0.00158624 0)
(0.410928 -0.00182649 0)
(0.410415 -0.00207891 0)
(0.409787 -0.00233309 0)
(0.40898 -0.00250861 0)
(0.412465 -3.40155e-05 0)
(0.412487 -9.12241e-05 0)
(0.412527 -0.000124869 0)
(0.412568 -0.000142015 0)
(0.412604 -0.000155617 0)
(0.412635 -0.000170081 0)
(0.412665 -0.000184654 0)
(0.412692 -0.000199095 0)
(0.412716 -0.000214028 0)
(0.412735 -0.000229782 0)
(0.41275 -0.000246434 0)
(0.412759 -0.000264348 0)
(0.412764 -0.000284336 0)
(0.412762 -0.000307627 0)
(0.412753 -0.000335761 0)
(0.412735 -0.000370401 0)
(0.412706 -0.000413193 0)
(0.412663 -0.000465652 0)
(0.412602 -0.000529187 0)
(0.41252 -0.000605263 0)
(0.412412 -0.000695411 0)
(0.412272 -0.000801147 0)
(0.412096 -0.000924226 0)
(0.411875 -0.00106636 0)
(0.4116 -0.0012283 0)
(0.411261 -0.00140869 0)
(0.410846 -0.00160385 0)
(0.410335 -0.00180086 0)
(0.409721 -0.00199234 0)
(0.408974 -0.00209242 0)
(0.412467 -4.39072e-05 0)
(0.412499 -0.000112961 0)
(0.41255 -0.000145843 0)
(0.412597 -0.000158849 0)
(0.412633 -0.000169398 0)
(0.412665 -0.000180789 0)
(0.412695 -0.000191587 0)
(0.412723 -0.000202106 0)
(0.412747 -0.000213197 0)
(0.412765 -0.000225147 0)
(0.412778 -0.000237973 0)
(0.412786 -0.000252068 0)
(0.412789 -0.000268175 0)
(0.412785 -0.000287274 0)
(0.412774 -0.00031056 0)
(0.412753 -0.00033935 0)
(0.41272 -0.000374992 0)
(0.412673 -0.000418665 0)
(0.412607 -0.000471529 0)
(0.412519 -0.000534896 0)
(0.412403 -0.000609922 0)
(0.412256 -0.000697591 0)
(0.412071 -0.000799505 0)
(0.411841 -0.000916955 0)
(0.411558 -0.00104956 0)
(0.411212 -0.00119453 0)
(0.410794 -0.00134776 0)
(0.410289 -0.00149398 0)
(0.409692 -0.00163532 0)
(0.408996 -0.00168211 0)
(0.412472 -5.87915e-05 0)
(0.412519 -0.000141566 0)
(0.412586 -0.000174848 0)
(0.41264 -0.00018993 0)
(0.412677 -0.000203979 0)
(0.412709 -0.000216941 0)
(0.412741 -0.000227751 0)
(0.41277 -0.000237687 0)
(0.412793 -0.000247862 0)
(0.41281 -0.000258526 0)
(0.412823 -0.000269735 0)
(0.412829 -0.000281766 0)
(0.41283 -0.000295228 0)
(0.412824 -0.000310989 0)
(0.412811 -0.000330043 0)
(0.412788 -0.000353414 0)
(0.412752 -0.000382286 0)
(0.412701 -0.000417558 0)
(0.412631 -0.000459933 0)
(0.412538 -0.000510667 0)
(0.412417 -0.000570932 0)
(0.412263 -0.000640618 0)
(0.412071 -0.000720398 0)
(0.411834 -0.000811885 0)
(0.411545 -0.000914803 0)
(0.411197 -0.0010254 0)
(0.410781 -0.00113919 0)
(0.410281 -0.00123705 0)
(0.409705 -0.0013345 0)
(0.409028 -0.0013485 0)
(0.412479 -8.59127e-05 0)
(0.41255 -0.000158176 0)
(0.412635 -0.000169099 0)
(0.412692 -0.00017593 0)
(0.41273 -0.000186644 0)
(0.412765 -0.000196159 0)
(0.412798 -0.00020352 0)
(0.412828 -0.000210257 0)
(0.412851 -0.000217235 0)
(0.412868 -0.000224513 0)
(0.41288 -0.000232392 0)
(0.412886 -0.000241582 0)
(0.412886 -0.000252241 0)
(0.412879 -0.000264787 0)
(0.412864 -0.000279797 0)
(0.412839 -0.000297915 0)
(0.412801 -0.000319719 0)
(0.412747 -0.000345988 0)
(0.412674 -0.00037763 0)
(0.412576 -0.000415155 0)
(0.412451 -0.000459273 0)
(0.412293 -0.000511642 0)
(0.412096 -0.000572847 0)
(0.411854 -0.000641765 0)
(0.411561 -0.000717329 0)
(0.411211 -0.000796492 0)
(0.4108 -0.000874837 0)
(0.410303 -0.000927508 0)
(0.409753 -0.000980089 0)
(0.408994 -0.000891065 0)
(0.41249 -0.000156817 0)
(0.412636 -0.000287765 0)
(0.412761 -0.000270785 0)
(0.4128 -0.000266204 0)
(0.41283 -0.000271697 0)
(0.412861 -0.000276811 0)
(0.41289 -0.000280139 0)
(0.412913 -0.000283199 0)
(0.412929 -0.000286552 0)
(0.41294 -0.00029023 0)
(0.412945 -0.000294376 0)
(0.412944 -0.000299219 0)
(0.412936 -0.000305068 0)
(0.412919 -0.00031226 0)
(0.412891 -0.000321162 0)
(0.412851 -0.000332003 0)
(0.412795 -0.000346238 0)
(0.412722 -0.000362981 0)
(0.412626 -0.000382257 0)
(0.412504 -0.00040668 0)
(0.412351 -0.000436912 0)
(0.412161 -0.00046732 0)
(0.41193 -0.00050134 0)
(0.411651 -0.000544469 0)
(0.411318 -0.000592833 0)
(0.410926 -0.00064271 0)
(0.410473 -0.000690464 0)
(0.409946 -0.000704945 0)
(0.409328 -0.000717782 0)
(0.407882 -0.000195652 0)
(0.412112 -0.000109615 0)
(0.411837 -0.000184435 0)
(0.411415 -0.000194656 0)
(0.410931 -0.000198288 0)
(0.410447 -0.000203587 0)
(0.409968 -0.000207709 0)
(0.409485 -0.000210841 0)
(0.408996 -0.000213788 0)
(0.408501 -0.000216742 0)
(0.407999 -0.000219655 0)
(0.407492 -0.000222533 0)
(0.406978 -0.000225497 0)
(0.406457 -0.00022867 0)
(0.405925 -0.000232156 0)
(0.405383 -0.000236064 0)
(0.404827 -0.000240535 0)
(0.404255 -0.0002455 0)
(0.403662 -0.00025135 0)
(0.403046 -0.00025859 0)
(0.402401 -0.000266804 0)
(0.40172 -0.000276005 0)
(0.400999 -0.000288338 0)
(0.400232 -0.000303906 0)
(0.399412 -0.000320507 0)
(0.398531 -0.000337949 0)
(0.397585 -0.000354676 0)
(0.396575 -0.000374325 0)
(0.39553 -0.000359065 0)
(0.394538 -0.000418357 0)
(0.392326 0.000299452 0)
(0.411595 -0.00161519 -1.12246e-18)
(0.416672 -0.00205405 -8.66042e-21)
(0.420223 -0.00232653 1.15922e-18)
(0.421964 -0.00275233 2.3306e-18)
(0.422885 -0.00337284 1.19033e-18)
(0.42352 -0.00416275 -1.18241e-18)
(0.423985 -0.00508797 1.20608e-18)
(0.424343 -0.00613954 0)
(0.424648 -0.00731624 1.22515e-18)
(0.424924 -0.00861711 -5.63311e-21)
(0.425172 -0.0100459 8.63496e-20)
(0.425382 -0.0116141 0)
(0.425539 -0.0133401 -1.45616e-18)
(0.425636 -0.0152479 0)
(0.425665 -0.0173676 0)
(0.425618 -0.0197379 -1.6092e-18)
(0.425483 -0.0224087 -1.54725e-18)
(0.425247 -0.0254463 -2.52491e-22)
(0.42489 -0.0289394 1.54761e-18)
(0.424389 -0.0330099 2.30659e-19)
(0.423714 -0.0378262 -2.1458e-18)
(0.422824 -0.0436388 2.49271e-19)
(0.421668 -0.0507691 -1.29979e-19)
(0.420163 -0.0599182 2.00193e-18)
(0.418256 -0.0713552 2.79838e-19)
(0.415712 -0.0885523 -1.45215e-19)
(0.412634 -0.107766 0)
(0.408423 -0.151563 -2.16104e-18)
(0.403239 -0.183928 -2.25994e-18)
(0.400476 -0.339841 0)
(0.420771 -0.00198928 1.12613e-18)
(0.422251 -0.00219154 -2.65938e-20)
(0.422982 -0.00266613 2.21953e-20)
(0.422985 -0.00335218 -1.17889e-18)
(0.423056 -0.0041818 -3.77491e-20)
(0.423199 -0.00511394 1.27482e-18)
(0.423428 -0.00613638 1.19096e-18)
(0.423674 -0.00725508 1.62468e-19)
(0.423914 -0.00847626 -8.3454e-20)
(0.424133 -0.00980613 1.36629e-18)
(0.424312 -0.0112566 1.49993e-18)
(0.424436 -0.0128452 1.36292e-18)
(0.424497 -0.0145932 1.59135e-18)
(0.424488 -0.0165255 1.44953e-18)
(0.424402 -0.0186728 1.59723e-18)
(0.424228 -0.0210744 3.3934e-18)
(0.423949 -0.0237819 1.60564e-18)
(0.423545 -0.0268631 -1.88716e-18)
(0.422992 -0.030409 1.96158e-18)
(0.422256 -0.0345437 -1.19304e-19)
(0.421294 -0.0394394 1.24428e-19)
(0.420046 -0.0453455 2.09568e-18)
(0.418423 -0.0526058 0)
(0.416318 -0.0618522 -1.41793e-19)
(0.413531 -0.0735889 2.56101e-18)
(0.409824 -0.0906029 0)
(0.404763 -0.110817 2.64995e-18)
(0.397638 -0.152832 -2.50124e-18)
(0.386813 -0.187611 -2.41234e-20)
(0.375279 -0.336134 1.24173e-18)
(0.420463 -0.00206029 -8.78045e-21)
(0.421006 -0.00245771 -8.90544e-21)
(0.42144 -0.00324894 -1.15219e-18)
(0.42175 -0.00416466 -3.74415e-20)
(0.422001 -0.00509263 3.84178e-20)
(0.422323 -0.00604146 -3.92683e-20)
(0.422645 -0.00705205 -1.24696e-18)
(0.422907 -0.00814925 0)
(0.423105 -0.00934639 0)
(0.423247 -0.0106552 0)
(0.423334 -0.0120896 -1.43355e-18)
(0.423361 -0.0136663 -8.28256e-20)
(0.423321 -0.0154043 -1.33162e-18)
(0.423207 -0.0173275 -1.57217e-18)
(0.423005 -0.0194666 -1.72733e-18)
(0.422701 -0.0218616 -1.68269e-18)
(0.422273 -0.0245646 1.27666e-19)
(0.421697 -0.0276441 1.69812e-18)
(0.420941 -0.0311915 -1.76648e-18)
(0.419961 -0.0353312 -1.2359e-19)
(0.418699 -0.0402364 0)
(0.417074 -0.0461533 -4.46797e-18)
(0.414968 -0.0534394 1.41897e-19)
(0.412218 -0.0626636 -2.42251e-18)
(0.408556 -0.0745393 7.66975e-20)
(0.403569 -0.0911484 0)
(0.396643 -0.112255 -5.69371e-18)
(0.386383 -0.151733 5.67871e-18)
(0.370275 -0.189857 -3.1631e-18)
(0.349124 -0.328907 -1.37833e-18)
(0.420442 -0.00306192 0)
(0.420844 -0.0036669 -1.18359e-18)
(0.421202 -0.00444582 3.96786e-23)
(0.421453 -0.00525273 1.90567e-20)
(0.421661 -0.00606955 0)
(0.421864 -0.00695129 0)
(0.422038 -0.00793486 -1.31585e-18)
(0.422165 -0.00902535 0)
(0.422248 -0.0102221 8.6543e-20)
(0.422291 -0.0115313 -1.78247e-19)
(0.422286 -0.0129649 1.08539e-22)
(0.42222 -0.0145383 -1.41507e-18)
(0.422081 -0.016271 9.77605e-20)
(0.421856 -0.018188 1.52417e-18)
(0.42153 -0.0203211 1.04742e-19)
(0.421085 -0.022711 1.6391e-18)
(0.420497 -0.0254101 -1.79683e-18)
(0.419734 -0.028487 -1.89314e-18)
(0.418758 -0.0320332 0)
(0.417513 -0.0361731 1.94035e-18)
(0.415927 -0.0410793 1.34276e-19)
(0.413896 -0.0469961 2.3821e-18)
(0.411269 -0.0542804 -1.48693e-19)
(0.407836 -0.0634752 2.49041e-18)
(0.403226 -0.0753655 -2.63644e-18)
(0.396942 -0.0916487 0)
(0.38796 -0.113151 3.06499e-18)
(0.374714 -0.150328 -3.12643e-18)
(0.352952 -0.190598 3.22265e-18)
(0.322695 -0.318937 8.91104e-20)
(0.420117 -0.00390425 0)
(0.420369 -0.00447802 1.17898e-18)
(0.420571 -0.00518081 0)
(0.420743 -0.00595501 0)
(0.420895 -0.00679143 0)
(0.421033 -0.00770964 0)
(0.421146 -0.00871966 1.33373e-18)
(0.421218 -0.00982025 4.29207e-20)
(0.421242 -0.0110146 -4.42115e-20)
(0.421215 -0.0123142 0)
(0.421125 -0.0137347 0)
(0.420963 -0.0152935 9.69273e-20)
(0.420717 -0.0170112 -2.89947e-24)
(0.420373 -0.018913 -1.75721e-18)
(0.419916 -0.0210306 0)
(0.419321 -0.0234044 -1.7805e-18)
(0.418562 -0.0260864 0)
(0.417601 -0.0291448 2.05361e-18)
(0.416389 -0.0326706 -2.54249e-19)
(0.414863 -0.0367868 -1.98254e-18)
(0.41293 -0.0416639 1.13228e-18)
(0.410468 -0.047542 0)
(0.407288 -0.054772 0)
(0.403132 -0.0638751 0)
(0.397534 -0.0756563 1.45084e-18)
(0.389898 -0.0915514 -1.56341e-18)
(0.378808 -0.113058 0)
(0.362609 -0.147892 -1.82177e-18)
(0.335143 -0.189612 -2.016e-18)
(0.296192 -0.306114 1.7337e-18)
(0.419647 -0.00464053 5.77147e-19)
(0.41981 -0.00523995 6.09711e-19)
(0.419928 -0.00595228 6.34497e-19)
(0.42005 -0.00673591 5.91579e-19)
(0.420158 -0.0075794 7.07868e-19)
(0.420233 -0.0084917 6.2336e-19)
(0.420268 -0.00948356 6.83432e-19)
(0.420257 -0.0105621 -7.0329e-19)
(0.420193 -0.0117361 4.51123e-20)
(0.420071 -0.0130176 6.54214e-19)
(0.419882 -0.0144209 7.71723e-19)
(0.419615 -0.015962 7.48396e-19)
(0.419256 -0.0176603 1.02803e-19)
(0.418789 -0.0195407 -8.57529e-19)
(0.418193 -0.0216344 1.10885e-19)
(0.417442 -0.0239814 -2.30655e-19)
(0.416502 -0.0266333 -8.48582e-19)
(0.41533 -0.0296575 -1.01358e-18)
(0.413869 -0.0331433 0)
(0.412043 -0.0372116 -1.39182e-19)
(0.409745 -0.0420286 2.16964e-20)
(0.406827 -0.0478281 1.54409e-19)
(0.403068 -0.0549501 1.17174e-18)
(0.398155 -0.0638937 2.64679e-19)
(0.391536 -0.0754469 -4.2722e-20)
(0.382508 -0.090869 1.72384e-18)
(0.369287 -0.111994 -1.11246e-19)
(0.350183 -0.144465 1.90681e-18)
(0.317093 -0.186469 2.25481e-18)
(0.27016 -0.290616 -1.99782e-18)
(0.419068 -0.0053382 -5.92905e-19)
(0.419159 -0.00594099 -5.97817e-19)
(0.419202 -0.00664191 -6.32452e-19)
(0.41926 -0.00741062 2.32754e-20)
(0.419304 -0.00824133 -1.29428e-18)
(0.419307 -0.00914171 -6.73591e-19)
(0.419264 -0.0101213 -1.47675e-18)
(0.419172 -0.0111874 8.45184e-20)
(0.419027 -0.0123476 -4.6107e-20)
(0.418819 -0.0136123 -1.52313e-18)
(0.418536 -0.0149948 6.72571e-21)
(0.418165 -0.016511 -7.60099e-19)
(0.417692 -0.0181809 7.96163e-19)
(0.417096 -0.0200291 -9.37707e-21)
(0.416355 -0.0220868 1.14252e-19)
(0.415439 -0.0243932 -1.18794e-19)
(0.41431 -0.0269988 9.88183e-19)
(0.412917 -0.0299691 1.03498e-18)
(0.411195 -0.0333911 1.37497e-19)