/*--------------------------------*- C++ -*----------------------------------*\
  =========                 |
  \\      /  F ield         | OpenFOAM: The Open Source CFD Toolbox
   \\    /   O peration     | Website:  https://openfoam.org
    \\  /    A nd           | Version:  11
     \\/     M anipulation  |
\*---------------------------------------------------------------------------*/
FoamFile
{
    format      ascii;
    class       surfaceScalarField;
    location    "3.1";
    object      phi;
}
// * * * * * * * * * * * * * * * * * * * * * * * * * * * * * * * * * * * * * //

dimensions      [0 3 -1 0 0 0 0];

internalField   nonuniform List<scalar> 
24840
(
1.53201e-05
1.31944e-08
1.53027e-05
1.74039e-08
1.52869e-05
1.57928e-08
1.5272e-05
1.49566e-08
1.52574e-05
1.45461e-08
1.52435e-05
1.3934e-08
1.52305e-05
1.30484e-08
1.52185e-05
1.19334e-08
1.5208e-05
1.0569e-08
1.51991e-05
8.85205e-09
1.51925e-05
6.57934e-09
1.51887e-05
3.80747e-09
1.51883e-05
3.86093e-10
1.51922e-05
-3.87555e-09
1.52014e-05
-9.19678e-09
1.52171e-05
-1.57334e-08
1.5241e-05
-2.38238e-08
1.52747e-05
-3.37421e-08
1.53207e-05
-4.59916e-08
1.5382e-05
-6.13021e-08
1.54615e-05
-7.95176e-08
1.55632e-05
-1.01696e-07
1.5693e-05
-1.29822e-07
1.58576e-05
-1.64534e-07
1.60646e-05
-2.07068e-07
1.63237e-05
-2.59031e-07
1.66466e-05
-3.22969e-07
1.70433e-05
-3.96685e-07
1.75491e-05
-5.05744e-07
-5.28164e-07
1.80772e-05
1.53395e-05
7.06751e-09
1.5344e-05
1.28517e-08
1.53486e-05
1.12448e-08
1.53532e-05
1.03224e-08
1.53581e-05
9.61001e-09
1.53637e-05
8.40828e-09
1.537e-05
6.71705e-09
1.53773e-05
4.61295e-09
1.53859e-05
2.00672e-09
1.5396e-05
-1.23949e-09
1.54081e-05
-5.54275e-09
1.54227e-05
-1.07666e-08
1.54403e-05
-1.72512e-08
1.54617e-05
-2.52676e-08
1.54876e-05
-3.51404e-08
1.55191e-05
-4.72298e-08
1.55573e-05
-6.19656e-08
1.56036e-05
-8.00294e-08
1.56599e-05
-1.02316e-07
1.57279e-05
-1.29361e-07
1.5812e-05
-1.63602e-07
1.59172e-05
-2.06893e-07
1.60468e-05
-2.59413e-07
1.62056e-05
-3.23292e-07
1.64005e-05
-4.01964e-07
1.66407e-05
-4.99273e-07
1.69374e-05
-6.19679e-07
1.73045e-05
-7.63734e-07
1.77559e-05
-9.57191e-07
-1.08055e-06
1.83083e-05
1.53364e-05
4.04773e-09
1.53405e-05
8.69e-09
1.5344e-05
7.75291e-09
1.53482e-05
6.16814e-09
1.53529e-05
4.83705e-09
1.53583e-05
3.05638e-09
1.53644e-05
5.97852e-10
1.53714e-05
-2.40897e-09
1.53796e-05
-6.13496e-09
1.53892e-05
-1.08553e-08
1.54005e-05
-1.68935e-08
1.54142e-05
-2.4419e-08
1.54307e-05
-3.3797e-08
1.54509e-05
-4.54248e-08
1.54755e-05
-5.97684e-08
1.55057e-05
-7.73845e-08
1.55427e-05
-9.89522e-08
1.5588e-05
-1.25407e-07
1.56437e-05
-1.57986e-07
1.57123e-05
-1.97943e-07
1.57963e-05
-2.47561e-07
1.58988e-05
-3.09438e-07
1.60248e-05
-3.85433e-07
1.618e-05
-4.78501e-07
1.63713e-05
-5.93225e-07
1.66069e-05
-7.34905e-07
1.68976e-05
-9.10368e-07
1.72554e-05
-1.12151e-06
1.76973e-05
-1.39915e-06
-1.63128e-06
1.82481e-05
1.53352e-05
2.19671e-09
1.53388e-05
5.05708e-09
1.53422e-05
4.352e-09
1.5346e-05
2.35732e-09
1.53505e-05
3.3989e-10
1.53557e-05
-2.11226e-09
1.53616e-05
-5.27625e-09
1.53683e-05
-9.17961e-09
1.53762e-05
-1.40344e-08
1.53855e-05
-2.01507e-08
1.53966e-05
-2.79042e-08
1.54098e-05
-3.76473e-08
1.54258e-05
-4.98116e-08
1.54453e-05
-6.49184e-08
1.54691e-05
-8.35773e-08
1.54982e-05
-1.06523e-07
1.5534e-05
-1.34667e-07
1.55778e-05
-1.69205e-07
1.56314e-05
-2.1168e-07
1.56974e-05
-2.63889e-07
1.57782e-05
-3.28394e-07
1.58771e-05
-4.08334e-07
1.59985e-05
-5.06797e-07
1.61478e-05
-6.27861e-07
1.63319e-05
-7.77299e-07
1.65589e-05
-9.619e-07
1.68391e-05
-1.19056e-06
1.71854e-05
-1.46778e-06
1.76124e-05
-1.82619e-06
-2.1707e-06
1.81518e-05
1.53346e-05
9.62399e-10
1.53374e-05
2.17679e-09
1.53406e-05
1.19686e-09
1.53442e-05
-1.20623e-09
1.53484e-05
-3.92685e-09
1.53534e-05
-7.0619e-09
1.5359e-05
-1.09172e-08
1.53655e-05
-1.56856e-08
1.53731e-05
-2.16135e-08
1.5382e-05
-2.90551e-08
1.53926e-05
-3.84641e-08
1.54052e-05
-5.03161e-08
1.54206e-05
-6.51384e-08
1.54392e-05
-8.35614e-08
1.5462e-05
-1.0633e-07
1.54898e-05
-1.34348e-07
1.55239e-05
-1.68741e-07
1.55656e-05
-2.10948e-07
1.56167e-05
-2.62813e-07
1.56794e-05
-3.26585e-07
1.57563e-05
-4.05207e-07
1.58503e-05
-5.02353e-07
1.59656e-05
-6.22149e-07
1.61075e-05
-7.6977e-07
1.62824e-05
-9.52117e-07
1.6498e-05
-1.17751e-06
1.67642e-05
-1.45684e-06
1.70943e-05
-1.79788e-06
1.75016e-05
-2.2335e-06
-2.68871e-06
1.80197e-05
1.53342e-05
7.07384e-11
1.53366e-05
-1.50953e-10
1.53395e-05
-1.74098e-09
1.53429e-05
-4.57386e-09
1.53469e-05
-7.93068e-09
1.53515e-05
-1.17337e-08
1.53569e-05
-1.62792e-08
1.53631e-05
-2.18647e-08
1.53703e-05
-2.87982e-08
1.53787e-05
-3.74928e-08
1.53887e-05
-4.84708e-08
1.54007e-05
-6.23035e-08
1.54152e-05
-7.96197e-08
1.54328e-05
-1.01155e-07
1.54542e-05
-1.2778e-07
1.54804e-05
-1.60554e-07
1.55125e-05
-2.00792e-07
1.55517e-05
-2.50167e-07
1.55997e-05
-3.10805e-07
1.56585e-05
-3.85346e-07
1.57304e-05
-4.77147e-07
1.58184e-05
-5.90406e-07
1.59264e-05
-7.30107e-07
1.60591e-05
-9.02446e-07
1.62224e-05
-1.11547e-06
1.6424e-05
-1.37903e-06
1.66731e-05
-1.70593e-06
1.69826e-05
-2.10741e-06
1.73652e-05
-2.61608e-06
-3.17891e-06
1.78554e-05
1.5334e-05
-6.37679e-10
1.5336e-05
-2.07112e-09
1.53386e-05
-4.38868e-09
1.53417e-05
-7.70777e-09
1.53455e-05
-1.16412e-08
1.53498e-05
-1.60861e-08
1.53548e-05
-2.13058e-08
1.53606e-05
-2.7658e-08
1.53674e-05
-3.5526e-08
1.53753e-05
-4.53862e-08
1.53846e-05
-5.78232e-08
1.53958e-05
-7.34918e-08
1.54093e-05
-9.31146e-08
1.54257e-05
-1.17525e-07
1.54456e-05
-1.47708e-07
1.54699e-05
-1.84863e-07
1.54996e-05
-2.3048e-07
1.55359e-05
-2.86445e-07
1.55802e-05
-3.55142e-07
1.56344e-05
-4.39553e-07
1.57007e-05
-5.43432e-07
1.57818e-05
-6.7147e-07
1.5881e-05
-8.29393e-07
1.60029e-05
-1.02433e-06
1.61529e-05
-1.26542e-06
1.63378e-05
-1.56396e-06
1.65665e-05
-1.93459e-06
1.68511e-05
-2.39204e-06
1.72037e-05
-2.96868e-06
-3.63457e-06
1.76594e-05
1.53339e-05
-1.21499e-09
1.53355e-05
-3.68791e-09
1.53379e-05
-6.74922e-09
1.53408e-05
-1.05934e-08
1.53442e-05
-1.50631e-08
1.53482e-05
-2.01047e-08
1.53529e-05
-2.59608e-08
1.53582e-05
-3.30251e-08
1.53645e-05
-4.17495e-08
1.53718e-05
-5.26727e-08
1.53804e-05
-6.64384e-08
1.53907e-05
-8.37736e-08
1.5403e-05
-1.05486e-07
1.5418e-05
-1.32498e-07
1.54362e-05
-1.65902e-07
1.54583e-05
-2.0702e-07
1.54854e-05
-2.57495e-07
1.55183e-05
-3.19398e-07
1.55585e-05
-3.95347e-07
1.56076e-05
-4.8862e-07
1.56675e-05
-6.03332e-07
1.57406e-05
-7.44623e-07
1.58301e-05
-9.18853e-07
1.59397e-05
-1.13397e-06
1.60744e-05
-1.40009e-06
1.62403e-05
-1.72988e-06
1.64455e-05
-2.13971e-06
1.67011e-05
-2.64768e-06
1.70184e-05
-3.28601e-06
-4.04848e-06
1.74323e-05
1.53338e-05
-1.69429e-09
1.53352e-05
-5.06909e-09
1.53373e-05
-8.83708e-09
1.53399e-05
-1.32139e-08
1.5343e-05
-1.81856e-08
1.53467e-05
-2.37694e-08
1.53509e-05
-3.02086e-08
1.53558e-05
-3.79201e-08
1.53615e-05
-4.74119e-08
1.53681e-05
-5.92814e-08
1.53759e-05
-7.42279e-08
1.53852e-05
-9.30427e-08
1.53963e-05
-1.16608e-07
1.54097e-05
-1.45927e-07
1.5426e-05
-1.82181e-07
1.54458e-05
-2.26799e-07
1.54698e-05
-2.81556e-07
1.54991e-05
-3.48683e-07
1.55348e-05
-4.30997e-07
1.55782e-05
-5.3203e-07
1.56311e-05
-6.56206e-07
1.56955e-05
-8.09054e-07
1.57741e-05
-9.9746e-07
1.58702e-05
-1.23006e-06
1.59879e-05
-1.51784e-06
1.61327e-05
-1.87465e-06
1.63114e-05
-2.31843e-06
1.65342e-05
-2.87044e-06
1.6811e-05
-3.56284e-06
-4.413e-06
1.71755e-05
1.53337e-05
-2.1e-09
1.53349e-05
-6.25362e-09
1.53368e-05
-1.0669e-08
1.53391e-05
-1.55592e-08
1.53419e-05
-2.09961e-08
1.53452e-05
-2.70642e-08
1.5349e-05
-3.40224e-08
1.53534e-05
-4.2306e-08
1.53585e-05
-5.24672e-08
1.53643e-05
-6.51563e-08
1.53712e-05
-8.11244e-08
1.53794e-05
-1.01218e-07
1.53892e-05
-1.26381e-07
1.54009e-05
-1.57686e-07
1.54152e-05
-1.96387e-07
1.54324e-05
-2.44004e-07
1.54532e-05
-3.0242e-07
1.54785e-05
-3.74001e-07
1.55093e-05
-4.61725e-07
1.55466e-05
-5.69332e-07
1.55919e-05
-7.01496e-07
1.56469e-05
-8.64061e-07
1.57137e-05
-1.06433e-06
1.57952e-05
-1.31148e-06
1.58946e-05
-1.61722e-06
1.60163e-05
-1.99638e-06
1.6166e-05
-2.46819e-06
1.63523e-05
-3.05675e-06
1.65837e-05
-3.79416e-06
-4.72037e-06
1.6891e-05
1.53337e-05
-2.44564e-09
1.53347e-05
-7.26809e-09
1.53363e-05
-1.22617e-08
1.53384e-05
-1.7626e-08
1.53408e-05
-2.34832e-08
1.53438e-05
-2.99731e-08
1.53471e-05
-3.73778e-08
1.5351e-05
-4.615e-08
1.53554e-05
-5.68763e-08
1.53605e-05
-7.02515e-08
1.53664e-05
-8.70715e-08
1.53734e-05
-1.08229e-07
1.53818e-05
-1.34717e-07
1.53917e-05
-1.67662e-07
1.54037e-05
-2.08382e-07
1.54182e-05
-2.58466e-07
1.54357e-05
-3.19883e-07
1.54568e-05
-3.95101e-07
1.54823e-05
-4.87226e-07
1.55131e-05
-6.00151e-07
1.55503e-05
-7.38741e-07
1.55953e-05
-9.09072e-07
1.56497e-05
-1.11875e-06
1.57156e-05
-1.37734e-06
1.57955e-05
-1.69707e-06
1.58926e-05
-2.09349e-06
1.60112e-05
-2.58685e-06
1.6158e-05
-3.20352e-06
1.63393e-05
-3.97547e-06
-4.96314e-06
1.65821e-05
1.53336e-05
-2.73902e-09
1.53345e-05
-8.13156e-09
1.53359e-05
-1.36298e-08
1.53377e-05
-1.94155e-08
1.53398e-05
-2.56397e-08
1.53423e-05
-3.24844e-08
1.53452e-05
-4.02572e-08
1.53485e-05
-4.94277e-08
1.53522e-05
-6.06086e-08
1.53565e-05
-7.45293e-08
1.53614e-05
-9.20218e-08
1.53672e-05
-1.14015e-07
1.53741e-05
-1.4154e-07
1.53822e-05
-1.75767e-07
1.53918e-05
-2.18056e-07
1.54034e-05
-2.7005e-07
1.54173e-05
-3.33779e-07
1.5434e-05
-4.11784e-07
1.5454e-05
-5.07258e-07
1.54781e-05
-6.24196e-07
1.55069e-05
-7.67587e-07
1.55415e-05
-9.43651e-07
1.55829e-05
-1.16017e-06
1.56325e-05
-1.42695e-06
1.5692e-05
-1.75651e-06
1.57633e-05
-2.16482e-06
1.58492e-05
-2.67275e-06
1.5954e-05
-3.3083e-06
1.60815e-05
-4.10301e-06
-5.13468e-06
1.62531e-05
1.53336e-05
-2.98545e-09
1.53343e-05
-8.858e-09
1.53355e-05
-1.47855e-08
1.5337e-05
-2.09314e-08
1.53388e-05
-2.7462e-08
1.53409e-05
-3.4591e-08
1.53433e-05
-4.26493e-08
1.5346e-05
-5.21221e-08
1.5349e-05
-6.36407e-08
1.53525e-05
-7.79598e-08
1.53564e-05
-9.59381e-08
1.53609e-05
-1.1853e-07
1.53662e-05
-1.46796e-07
1.53723e-05
-1.81929e-07
1.53796e-05
-2.25323e-07
1.53882e-05
-2.78653e-07
1.53984e-05
-3.43986e-07
1.54105e-05
-4.23903e-07
1.54249e-05
-5.21645e-07
1.5442e-05
-6.41259e-07
1.54622e-05
-7.87786e-07
1.5486e-05
-9.67501e-07
1.55141e-05
-1.18825e-06
1.5547e-05
-1.45988e-06
1.55855e-05
-1.79498e-06
1.56303e-05
-2.20963e-06
1.56824e-05
-2.72484e-06
1.57435e-05
-3.36944e-06
1.58146e-05
-4.17408e-06
-5.22972e-06
1.59096e-05
1.53335e-05
-3.18906e-09
1.53341e-05
-9.45856e-09
1.53351e-05
-1.57408e-08
1.53363e-05
-2.21802e-08
1.53378e-05
-2.89507e-08
1.53395e-05
-3.62892e-08
1.53414e-05
-4.45472e-08
1.53435e-05
-5.42221e-08
1.53458e-05
-6.59573e-08
1.53484e-05
-8.05229e-08
1.53513e-05
-9.8795e-08
1.53545e-05
-1.21744e-07
1.53581e-05
-1.50443e-07
1.53623e-05
-1.86103e-07
1.53671e-05
-2.30128e-07
1.53727e-05
-2.84209e-07
1.53791e-05
-3.50424e-07
1.53866e-05
-4.31367e-07
1.53952e-05
-5.30283e-07
1.54052e-05
-6.51218e-07
1.54166e-05
-7.99202e-07
1.54296e-05
-9.80471e-07
1.54441e-05
-1.2028e-06
1.54602e-05
-1.47594e-06
1.54775e-05
-1.81227e-06
1.54955e-05
-2.22765e-06
1.55134e-05
-2.74271e-06
1.55301e-05
-3.38621e-06
1.55433e-05
-4.18729e-06
-5.245e-06
1.55586e-05
1.53335e-05
-3.35346e-09
1.5334e-05
-9.94328e-09
1.53348e-05
-1.65073e-08
1.53357e-05
-2.31706e-08
1.53369e-05
-3.01096e-08
1.53382e-05
-3.75797e-08
1.53396e-05
-4.59491e-08
1.53411e-05
-5.57233e-08
1.53427e-05
-6.75505e-08
1.53444e-05
-8.22078e-08
1.53462e-05
-1.00578e-07
1.53481e-05
-1.23638e-07
1.53501e-05
-1.52462e-07
1.53522e-05
-1.88262e-07
1.53545e-05
-2.32442e-07
1.5357e-05
-2.86685e-07
1.53597e-05
-3.53058e-07
1.53624e-05
-4.34136e-07
1.53653e-05
-5.33131e-07
1.53681e-05
-6.5404e-07
1.53707e-05
-8.01809e-07
1.53728e-05
-9.82555e-07
1.53739e-05
-1.20386e-06
1.53731e-05
-1.4752e-06
1.53694e-05
-1.80854e-06
1.53608e-05
-2.21913e-06
1.53448e-05
-2.72668e-06
1.53176e-05
-3.35897e-06
1.52732e-05
-4.14287e-06
-5.17978e-06
1.52079e-05
1.53335e-05
-3.48228e-09
1.53338e-05
-1.03223e-08
1.53344e-05
-1.70982e-08
1.53352e-05
-2.39137e-08
1.5336e-05
-3.09465e-08
1.53369e-05
-3.84676e-08
1.53378e-05
-4.68584e-08
1.53387e-05
-5.66273e-08
1.53396e-05
-6.84205e-08
1.53404e-05
-8.30132e-08
1.53411e-05
-1.01286e-07
1.53417e-05
-1.2421e-07
1.53421e-05
-1.5285e-07
1.53422e-05
-1.88406e-07
1.5342e-05
-2.32263e-07
1.53414e-05
-2.86082e-07
1.53403e-05
-3.51894e-07
1.53384e-05
-4.32225e-07
1.53354e-05
-5.3022e-07
1.53312e-05
-6.49774e-07
1.53251e-05
-7.95693e-07
1.53164e-05
-9.73886e-07
1.53042e-05
-1.19164e-06
1.5287e-05
-1.45799e-06
1.52627e-05
-1.78426e-06
1.52283e-05
-2.18477e-06
1.51795e-05
-2.67781e-06
1.51097e-05
-3.28919e-06
1.50095e-05
-4.04273e-06
-5.03627e-06
1.4866e-05
1.53334e-05
-3.57951e-09
1.53337e-05
-1.06071e-08
1.53341e-05
-1.75283e-08
1.53347e-05
-2.44237e-08
1.53352e-05
-3.14724e-08
1.53357e-05
-3.8962e-08
1.53361e-05
-4.72836e-08
1.53364e-05
-5.69423e-08
1.53366e-05
-6.85751e-08
1.53365e-05
-8.29473e-08
1.53362e-05
-1.00928e-07
1.53354e-05
-1.23471e-07
1.53342e-05
-1.51622e-07
1.53323e-05
-1.86552e-07
1.53297e-05
-2.29618e-07
1.5326e-05
-2.82435e-07
1.53211e-05
-3.4698e-07
1.53146e-05
-4.25703e-07
1.5306e-05
-5.21643e-07
1.52948e-05
-6.38553e-07
1.52802e-05
-7.81039e-07
1.5261e-05
-9.54734e-07
1.52359e-05
-1.16653e-06
1.52028e-05
-1.42488e-06
1.51588e-05
-1.74027e-06
1.50998e-05
-2.12579e-06
1.50198e-05
-2.59785e-06
1.49101e-05
-3.17944e-06
1.47579e-05
-3.89056e-06
-4.8198e-06
1.45415e-05
1.53334e-05
-3.64997e-09
1.53336e-05
-1.08111e-08
1.53339e-05
-1.78156e-08
1.53342e-05
-2.47174e-08
1.53344e-05
-3.17018e-08
1.53345e-05
-3.90764e-08
1.53345e-05
-4.72385e-08
1.53342e-05
-5.66826e-08
1.53337e-05
-6.80296e-08
1.53328e-05
-8.20278e-08
1.53314e-05
-9.95249e-08
1.53293e-05
-1.21448e-07
1.53265e-05
-1.48809e-07
1.53227e-05
-1.82744e-07
1.53177e-05
-2.24559e-07
1.5311e-05
-2.75813e-07
1.53025e-05
-3.38406e-07
1.52915e-05
-4.14686e-07
1.52774e-05
-5.07556e-07
1.52594e-05
-6.20587e-07
1.52365e-05
-7.58135e-07
1.52073e-05
-9.2549e-07
1.51698e-05
-1.12906e-06
1.51215e-05
-1.37663e-06
1.50589e-05
-1.67767e-06
1.4977e-05
-2.04381e-06
1.48683e-05
-2.4892e-06
1.47222e-05
-3.0333e-06
1.45233e-05
-3.6917e-06
-4.53873e-06
1.42422e-05
1.53334e-05
-3.69967e-09
1.53335e-05
-1.09513e-08
1.53337e-05
-1.79815e-08
1.53338e-05
-2.48147e-08
1.53337e-05
-3.16521e-08
1.53335e-05
-3.88283e-08
1.5333e-05
-4.67418e-08
1.53322e-05
-5.58685e-08
1.5331e-05
-6.68068e-08
1.53292e-05
-8.02811e-08
1.53268e-05
-9.71091e-08
1.53235e-05
-1.18179e-07
1.53192e-05
-1.44462e-07
1.53135e-05
-1.77041e-07
1.53061e-05
-2.17165e-07
1.52966e-05
-2.66317e-07
1.52845e-05
-3.263e-07
1.52691e-05
-3.9934e-07
1.52498e-05
-4.88174e-07
1.52253e-05
-5.96156e-07
1.51945e-05
-7.27352e-07
1.51557e-05
-8.86657e-07
1.51066e-05
-1.07994e-06
1.50442e-05
-1.31421e-06
1.49643e-05
-1.59783e-06
1.48613e-05
-1.9408e-06
1.47269e-05
-2.35479e-06
1.45488e-05
-2.85519e-06
1.43099e-05
-3.45285e-06
-4.20403e-06
1.39752e-05
1.53334e-05
-3.7366e-09
1.53335e-05
-1.10498e-08
1.53335e-05
-1.80527e-08
1.53335e-05
-2.47383e-08
1.53332e-05
-3.13434e-08
1.53326e-05
-3.82392e-08
1.53316e-05
-4.58173e-08
1.53303e-05
-5.45259e-08
1.53284e-05
-6.49361e-08
1.53259e-05
-7.77425e-08
1.53225e-05
-9.37233e-08
1.5318e-05
-1.13719e-07
1.53122e-05
-1.38645e-07
1.53047e-05
-1.69526e-07
1.52951e-05
-2.07538e-07
1.52828e-05
-2.54074e-07
1.52674e-05
-3.10826e-07
1.52479e-05
-3.79872e-07
1.52235e-05
-4.63764e-07
1.51929e-05
-5.65607e-07
1.51547e-05
-6.89143e-07
1.51069e-05
-8.38835e-07
1.50469e-05
-1.01996e-06
1.49715e-05
-1.23872e-06
1.48759e-05
-1.5023e-06
1.47541e-05
-1.819e-06
1.45972e-05
-2.1979e-06
1.43921e-05
-2.65012e-06
1.4121e-05
-3.18168e-06
-3.82855e-06
1.37455e-05
1.53334e-05
-3.77177e-09
1.53335e-05
-1.11357e-08
1.53335e-05
-1.80611e-08
1.53332e-05
-2.45133e-08
1.53327e-05
-3.07985e-08
1.53318e-05
-3.73349e-08
1.53305e-05
-4.44931e-08
1.53286e-05
-5.26858e-08
1.53261e-05
-6.24536e-08
1.53229e-05
-7.44555e-08
1.53186e-05
-8.94204e-08
1.5313e-05
-1.0813e-07
1.53058e-05
-1.31438e-07
1.52965e-05
-1.60298e-07
1.52848e-05
-1.95803e-07
1.527e-05
-2.39242e-07
1.52513e-05
-2.92181e-07
1.5228e-05
-3.56534e-07
1.51989e-05
-4.34643e-07
1.51626e-05
-5.29344e-07
1.51175e-05
-6.44029e-07
1.50614e-05
-7.82702e-07
1.49914e-05
-9.50029e-07
1.49041e-05
-1.15138e-06
1.47945e-05
-1.39276e-06
1.46563e-05
-1.68078e-06
1.44804e-05
-2.02201e-06
1.42537e-05
-2.42335e-06
1.39583e-05
-2.88633e-06
-3.42609e-06
1.35559e-05
1.53334e-05
-3.82111e-09
1.53335e-05
-1.12496e-08
1.53335e-05
-1.80427e-08
1.53331e-05
-2.41668e-08
1.53324e-05
-3.0044e-08
1.53312e-05
-3.61433e-08
1.53295e-05
-4.28024e-08
1.53272e-05
-5.03848e-08
1.53241e-05
-5.94013e-08
1.53202e-05
-7.047e-08
1.5315e-05
-8.42613e-08
1.53084e-05
-1.0149e-07
1.52999e-05
-1.22937e-07
1.5289e-05
-1.49478e-07
1.52753e-05
-1.82109e-07
1.52581e-05
-2.22006e-07
1.52365e-05
-2.70593e-07
1.52096e-05
-3.29608e-07
1.51761e-05
-4.01167e-07
1.51346e-05
-4.87817e-07
1.50832e-05
-5.92583e-07
1.50194e-05
-7.18997e-07
1.49405e-05
-8.71108e-07
1.48426e-05
-1.05346e-06
1.47208e-05
-1.27094e-06
1.45686e-05
-1.52858e-06
1.43772e-05
-1.83063e-06
1.4134e-05
-2.18014e-06
1.38225e-05
-2.57482e-06
-3.01028e-06
1.34067e-05
1.53334e-05
-3.90902e-09
1.53336e-05
-1.1449e-08
1.53336e-05
-1.80456e-08
1.53332e-05
-2.37205e-08
1.53322e-05
-2.91037e-08
1.53308e-05
-3.4701e-08
1.53288e-05
-4.07798e-08
1.53261e-05
-4.76617e-08
1.53225e-05
-5.58282e-08
1.53179e-05
-6.58474e-08
1.53119e-05
-7.83212e-08
1.53043e-05
-9.38874e-08
1.52946e-05
-1.1325e-07
1.52824e-05
-1.37197e-07
1.52669e-05
-1.66619e-07
1.52474e-05
-2.02568e-07
1.52231e-05
-2.46317e-07
1.5193e-05
-2.99413e-07
1.51555e-05
-3.63732e-07
1.51092e-05
-4.41521e-07
1.50521e-05
-5.35428e-07
1.49816e-05
-6.48506e-07
1.48947e-05
-7.84202e-07
1.47875e-05
-9.46281e-07
1.46551e-05
-1.1386e-06
1.44913e-05
-1.36475e-06
1.42878e-05
-1.62708e-06
1.4033e-05
-1.92534e-06
1.37126e-05
-2.25449e-06
-2.59356e-06
1.32959e-05
1.53335e-05
-4.07584e-09
1.53339e-05
-1.18153e-08
1.53339e-05
-1.81126e-08
1.53334e-05
-2.32001e-08
1.53323e-05
-2.80133e-08
1.53307e-05
-3.30427e-08
1.53283e-05
-3.84602e-08
1.53252e-05
-4.45568e-08
1.53212e-05
-5.1784e-08
1.5316e-05
-6.06491e-08
1.53094e-05
-7.16763e-08
1.53009e-05
-8.54183e-08
1.52901e-05
-1.02497e-07
1.52765e-05
-1.23605e-07
1.52594e-05
-1.49517e-07
1.5238e-05
-1.81155e-07
1.52113e-05
-2.19632e-07
1.51782e-05
-2.66294e-07
1.51373e-05
-3.22767e-07
1.50867e-05
-3.90988e-07
1.50245e-05
-4.73221e-07
1.49481e-05
-5.72051e-07
1.48542e-05
-6.90344e-07
1.47391e-05
-8.31142e-07
1.45979e-05
-9.97397e-07
1.44246e-05
-1.19152e-06
1.42119e-05
-1.41433e-06
1.39497e-05
-1.66314e-06
1.36266e-05
-1.93142e-06
-2.18614e-06
1.32192e-05
1.53337e-05
-4.39552e-09
1.53343e-05
-1.24643e-08
1.53345e-05
-1.82743e-08
1.53339e-05
-2.2625e-08
1.53327e-05
-2.6816e-08
1.53309e-05
-3.12132e-08
1.53283e-05
-3.58892e-08
1.53249e-05
-4.11249e-08
1.53204e-05
-4.73331e-08
1.53147e-05
-5.49501e-08
1.53075e-05
-6.44153e-08
1.52982e-05
-7.61878e-08
1.52865e-05
-9.08069e-08
1.52718e-05
-1.0886e-07
1.52533e-05
-1.31001e-07
1.52301e-05
-1.58012e-07
1.52013e-05
-1.90838e-07
1.51657e-05
-2.30618e-07
1.51216e-05
-2.7872e-07
1.50674e-05
-3.36768e-07
1.50008e-05
-4.0664e-07
1.49192e-05
-4.90463e-07
1.48194e-05
-5.90554e-07
1.46976e-05
-7.09308e-07
1.45491e-05
-8.48916e-07
1.43685e-05
-1.01086e-06
1.41491e-05
-1.19494e-06
1.38828e-05
-1.39683e-06
1.35615e-05
-1.61011e-06
-1.79504e-06
1.31704e-05
1.53339e-05
-5.01101e-09
1.53351e-05
-1.35697e-08
1.53353e-05
-1.85265e-08
1.53347e-05
-2.2007e-08
1.53334e-05
-2.5542e-08
1.53314e-05
-2.92306e-08
1.53286e-05
-3.30886e-08
1.53249e-05
-3.74059e-08
1.53201e-05
-4.25333e-08
1.5314e-05
-4.88272e-08
1.53062e-05
-5.66345e-08
1.52963e-05
-6.63138e-08
1.52839e-05
-7.83241e-08
1.52681e-05
-9.31378e-08
1.52484e-05
-1.11282e-07
1.52238e-05
-1.334e-07
1.51932e-05
-1.60259e-07
1.51554e-05
-1.92783e-07
1.51088e-05
-2.32079e-07
1.50514e-05
-2.79451e-07
1.49812e-05
-3.36399e-07
1.48953e-05
-4.04606e-07
1.47907e-05
-4.85878e-07
1.46634e-05
-5.82034e-07
1.45091e-05
-6.94664e-07
1.43229e-05
-8.24596e-07
1.4099e-05
-9.71092e-07
1.38311e-05
-1.12887e-06
1.35146e-05
-1.29366e-06
-1.42345e-06
1.3143e-05
1.53345e-05
-6.17928e-09
1.53363e-05
-1.53604e-08
1.53366e-05
-1.88745e-08
1.53361e-05
-2.14336e-08
1.53348e-05
-2.42599e-08
1.53327e-05
-2.71344e-08
1.53297e-05
-3.01025e-08
1.53258e-05
-3.3452e-08
1.53207e-05
-3.74386e-08
1.53142e-05
-4.23515e-08
1.5306e-05
-4.84234e-08
1.52956e-05
-5.59056e-08
1.52824e-05
-6.52001e-08
1.52659e-05
-7.66323e-08
1.52453e-05
-9.06034e-08
1.52195e-05
-1.0761e-07
1.51875e-05
-1.28246e-07
1.51479e-05
-1.5322e-07
1.50992e-05
-1.83374e-07
1.50394e-05
-2.19692e-07
1.49663e-05
-2.63301e-07
1.48772e-05
-3.15455e-07
1.47688e-05
-3.77491e-07
1.46375e-05
-4.50729e-07
1.44791e-05
-5.36322e-07
1.42893e-05
-6.34785e-07
1.40634e-05
-7.45202e-07
1.3796e-05
-8.61405e-07
1.34868e-05
-9.84486e-07
-1.07095e-06
1.31343e-05
1.53356e-05
-8.40594e-09
1.5338e-05
-1.77571e-08
1.53383e-05
-1.92458e-08
1.53379e-05
-2.1033e-08
1.53367e-05
-2.30064e-08
1.53345e-05
-2.49492e-08
1.53314e-05
-2.69846e-08
1.53273e-05
-2.93443e-08
1.5322e-05
-3.2135e-08
1.53152e-05
-3.56226e-08
1.53067e-05
-3.99121e-08
1.52959e-05
-4.51002e-08
1.52823e-05
-5.15813e-08
1.52652e-05
-5.9513e-08
1.52438e-05
-6.91792e-08
1.52171e-05
-8.09248e-08
1.5184e-05
-9.51599e-08
1.51431e-05
-1.12378e-07
1.50929e-05
-1.3316e-07
1.50314e-05
-1.58184e-07
1.49563e-05
-1.88222e-07
1.4865e-05
-2.24136e-07
1.47544e-05
-2.66841e-07
1.46209e-05
-3.17241e-07
1.44607e-05
-3.76172e-07
1.42702e-05
-4.44198e-07
1.40451e-05
-5.20158e-07
1.37805e-05
-5.96809e-07
1.3478e-05
-6.81959e-07
-7.23919e-07
1.3131e-05
1.53392e-05
-1.43115e-08
1.53416e-05
-2.00768e-08
1.53417e-05
-1.93401e-08
1.53408e-05
-2.02086e-08
1.53392e-05
-2.1343e-08
1.53366e-05
-2.23593e-08
1.5333e-05
-2.33945e-08
1.53283e-05
-2.46111e-08
1.53222e-05
-2.60412e-08
1.53144e-05
-2.7859e-08
1.53046e-05
-3.00958e-08
1.52923e-05
-3.27777e-08
1.52769e-05
-3.61832e-08
1.52577e-05
-4.03552e-08
1.5234e-05
-4.54516e-08
1.52047e-05
-5.16666e-08
1.51688e-05
-5.92285e-08
1.51248e-05
-6.84127e-08
1.50712e-05
-7.95432e-08
1.5006e-05
-9.29952e-08
1.4927e-05
-1.09196e-07
1.48315e-05
-1.28616e-07
1.47164e-05
-1.51741e-07
1.45781e-05
-1.79002e-07
1.44126e-05
-2.10593e-07
1.42143e-05
-2.4589e-07
1.39789e-05
-2.84783e-07
1.37067e-05
-3.24616e-07
1.33922e-05
-3.67497e-07
-3.34858e-07
1.30032e-05
1.5319e-05
1.52989e-05
1.52796e-05
1.52594e-05
1.52381e-05
1.52157e-05
1.51923e-05
1.51677e-05
1.51416e-05
1.51138e-05
1.50837e-05
1.50509e-05
1.50147e-05
1.49744e-05
1.49289e-05
1.48773e-05
1.4818e-05
1.47496e-05
1.46701e-05
1.45771e-05
1.44679e-05
1.43393e-05
1.41875e-05
1.40085e-05
1.37979e-05
1.3552e-05
1.32673e-05
1.29426e-05
1.25751e-05
1.22403e-05
1.78467e-05
-8.32567e-06
8.55624e-06
1.76298e-05
-8.49131e-06
8.70819e-06
1.73708e-05
-8.65265e-06
8.9116e-06
1.7073e-05
-8.80269e-06
9.1005e-06
1.6744e-05
-8.95187e-06
9.28084e-06
1.63915e-05
-9.10565e-06
9.45819e-06
1.602e-05
-9.26595e-06
9.63744e-06
1.56323e-05
-9.43382e-06
9.82153e-06
1.52297e-05
-9.61009e-06
1.00127e-05
1.48125e-05
-9.79521e-06
1.02124e-05
1.43801e-05
-9.98934e-06
1.04218e-05
1.39313e-05
-1.01927e-05
1.06414e-05
1.34651e-05
-1.04058e-05
1.08719e-05
1.29805e-05
-1.06295e-05
1.11141e-05
1.24763e-05
-1.08652e-05
1.13693e-05
1.19516e-05
-1.11144e-05
1.16391e-05
1.14048e-05
-1.13791e-05
1.19259e-05
1.08343e-05
-1.16618e-05
1.22323e-05
1.02379e-05
-1.19654e-05
1.25617e-05
9.6129e-06
-1.22935e-05
1.29185e-05
8.95569e-06
-1.26507e-05
1.33079e-05
8.26169e-06
-1.30426e-05
1.37366e-05
7.52493e-06
-1.34762e-05
1.42129e-05
6.73752e-06
-1.39609e-05
1.47484e-05
5.88829e-06
-1.45073e-05
1.53566e-05
4.96392e-06
-1.51328e-05
1.60572e-05
3.94979e-06
-1.58494e-05
1.68635e-05
2.7673e-06
-1.67193e-05
1.79018e-05
1.55798e-06
-1.75825e-05
1.87918e-05
-1.91675e-05
2.07254e-05
1.80458e-05
-8.06316e-06
1.77413e-05
-8.18684e-06
1.74061e-05
-8.31742e-06
1.70529e-05
-8.44945e-06
1.66873e-05
-8.5863e-06
1.63119e-05
-8.7302e-06
1.59271e-05
-8.88117e-06
1.55322e-05
-9.03897e-06
1.51258e-05
-9.2037e-06
1.47062e-05
-9.37557e-06
1.42718e-05
-9.55491e-06
1.38213e-05
-9.74223e-06
1.33539e-05
-9.93834e-06
1.28686e-05
-1.01442e-05
1.23646e-05
-1.03612e-05
1.18408e-05
-1.05905e-05
1.12956e-05
-1.08339e-05
1.07273e-05
-1.10935e-05
1.01335e-05
-1.13717e-05
9.5116e-06
-1.16715e-05
8.85782e-06
-1.19969e-05
8.1676e-06
-1.23523e-05
7.43499e-06
-1.27436e-05
6.65216e-06
-1.31781e-05
5.80886e-06
-1.3664e-05
4.89167e-06
-1.42157e-05
3.88205e-06
-1.48398e-05
2.74341e-06
-1.55807e-05
1.51107e-06
-1.63501e-05
-1.76564e-05
1.79346e-05
-7.74971e-06
1.76046e-05
-7.85678e-06
1.72605e-05
-7.97339e-06
1.69079e-05
-8.09683e-06
1.65476e-05
-8.22595e-06
1.61778e-05
-8.36046e-06
1.5797e-05
-8.50034e-06
1.54037e-05
-8.64572e-06
1.4997e-05
-8.79697e-06
1.4576e-05
-8.95457e-06
1.41401e-05
-9.11903e-06
1.36889e-05
-9.29098e-06
1.32216e-05
-9.4711e-06
1.27376e-05
-9.66021e-06
1.22357e-05
-9.85928e-06
1.17147e-05
-1.00695e-05
1.11729e-05
-1.02922e-05
1.06085e-05
-1.05291e-05
1.00192e-05
-1.07823e-05
9.40189e-06
-1.10543e-05
8.75306e-06
-1.13481e-05
8.06805e-06
-1.16673e-05
7.34093e-06
-1.20165e-05
6.56403e-06
-1.24012e-05
5.72745e-06
-1.28274e-05
4.81803e-06
-1.33062e-05
3.81854e-06
-1.38403e-05
2.70281e-06
-1.4465e-05
1.4684e-06
-1.51157e-05
-1.6188e-05
1.78265e-05
-7.42435e-06
1.74913e-05
-7.52159e-06
1.71452e-05
-7.62727e-06
1.67895e-05
-7.74112e-06
1.64241e-05
-7.86059e-06
1.6048e-05
-7.98436e-06
1.56603e-05
-8.11266e-06
1.52607e-05
-8.24608e-06
1.48487e-05
-8.38502e-06
1.4424e-05
-8.52983e-06
1.39858e-05
-8.68089e-06
1.35335e-05
-8.83867e-06
1.30662e-05
-9.00374e-06
1.25827e-05
-9.17676e-06
1.2082e-05
-9.35855e-06
1.15626e-05
-9.5501e-06
1.1023e-05
-9.75255e-06
1.04613e-05
-9.96731e-06
9.87499e-06
-1.0196e-05
9.26125e-06
-1.04405e-05
8.61643e-06
-1.07032e-05
7.93595e-06
-1.09868e-05
7.21406e-06
-1.12946e-05
6.4434e-06
-1.16306e-05
5.6146e-06
-1.19986e-05
4.71534e-06
-1.2407e-05
3.72992e-06
-1.28549e-05
2.63692e-06
-1.3372e-05
1.41952e-06
-1.38983e-05
-1.47685e-05
1.76852e-05
-7.08987e-06
1.73421e-05
-7.17856e-06
1.69894e-05
-7.27451e-06
1.66274e-05
-7.37911e-06
1.62561e-05
-7.48934e-06
1.5875e-05
-7.60326e-06
1.54835e-05
-7.72112e-06
1.5081e-05
-7.84361e-06
1.46671e-05
-7.97107e-06
1.42409e-05
-8.10371e-06
1.38019e-05
-8.24185e-06
1.33491e-05
-8.3859e-06
1.28818e-05
-8.53636e-06
1.23988e-05
-8.69379e-06
1.18991e-05
-8.85887e-06
1.13814e-05
-9.03235e-06
1.08439e-05
-9.21513e-06
1.02849e-05
-9.40825e-06
9.70183e-06
-9.61294e-06
9.09189e-06
-9.83059e-06
8.45149e-06
-1.00628e-05
7.77622e-06
-1.03116e-05
7.06054e-06
-1.05789e-05
6.29751e-06
-1.08675e-05
5.47838e-06
-1.11795e-05
4.59183e-06
-1.15204e-05
3.62369e-06
-1.18867e-05
2.5549e-06
-1.23032e-05
1.365e-06
-1.27084e-05
-1.34035e-05
1.75135e-05
-6.748e-06
1.71639e-05
-6.82902e-06
1.68057e-05
-6.91627e-06
1.64388e-05
-7.01226e-06
1.60632e-05
-7.1137e-06
1.56782e-05
-7.21825e-06
1.52832e-05
-7.32612e-06
1.48777e-05
-7.43809e-06
1.44611e-05
-7.55449e-06
1.40328e-05
-7.67545e-06
1.35922e-05
-7.80124e-06
1.31385e-05
-7.93218e-06
1.26708e-05
-8.06868e-06
1.21882e-05
-8.21117e-06
1.16894e-05
-8.36012e-06
1.11732e-05
-8.51611e-06
1.06379e-05
-8.67977e-06
1.00814e-05
-8.85184e-06
9.50164e-06
-9.03314e-06
8.89563e-06
-9.22458e-06
8.25998e-06
-9.42718e-06
7.59048e-06
-9.64206e-06
6.88192e-06
-9.87034e-06
6.12785e-06
-1.01134e-05
5.32024e-06
-1.03719e-05
4.44884e-06
-1.0649e-05
3.50105e-06
-1.09389e-05
2.46e-06
-1.12621e-05
1.30564e-06
-1.1554e-05
-1.20978e-05
1.73109e-05
-6.39958e-06
1.69555e-05
-6.47354e-06
1.6592e-05
-6.55282e-06
1.62204e-05
-6.64068e-06
1.58404e-05
-6.73368e-06
1.54515e-05
-6.8293e-06
1.5053e-05
-6.9277e-06
1.46447e-05
-7.02971e-06
1.42258e-05
-7.13562e-06
1.37959e-05
-7.24551e-06
1.33541e-05
-7.35953e-06
1.28999e-05
-7.47794e-06
1.24323e-05
-7.60103e-06
1.19502e-05
-7.72911e-06
1.14526e-05
-7.86248e-06
1.0938e-05
-8.00154e-06
1.04049e-05
-8.14667e-06
9.85137e-06
-8.29833e-06
9.27519e-06
-8.45696e-06
8.67365e-06
-8.62304e-06
8.04348e-06
-8.79701e-06
7.38073e-06
-8.97932e-06
6.6806e-06
-9.17021e-06
5.93715e-06
-9.37e-06
5.14319e-06
-9.57795e-06
4.28952e-06
-9.79535e-06
3.36521e-06
-1.00146e-05
2.35557e-06
-1.02525e-05
1.24302e-06
-1.04415e-05
-1.08548e-05
1.7078e-05
-6.04522e-06
1.67171e-05
-6.11271e-06
1.6349e-05
-6.18463e-06
1.59731e-05
-6.26482e-06
1.55892e-05
-6.3498e-06
1.51969e-05
-6.43694e-06
1.47955e-05
-6.52639e-06
1.43848e-05
-6.61894e-06
1.3964e-05
-6.71488e-06
1.35327e-05
-6.81419e-06
1.30901e-05
-6.91696e-06
1.26355e-05
-7.02336e-06
1.21681e-05
-7.13358e-06
1.16868e-05
-7.24779e-06
1.11905e-05
-7.36617e-06
1.06778e-05
-7.48891e-06
1.01474e-05
-7.61619e-06
9.5972e-06
-7.74817e-06
9.02522e-06
-7.88498e-06
8.42887e-06
-8.02668e-06
7.8051e-06
-8.17325e-06
7.15028e-06
-8.32449e-06
6.46001e-06
-8.47994e-06
5.72896e-06
-8.63896e-06
4.95077e-06
-8.79975e-06
4.11735e-06
-8.96193e-06
3.21946e-06
-9.11674e-06
2.24435e-06
-9.27739e-06
1.17759e-06
-9.37473e-06
-9.67723e-06
1.68158e-05
-5.68555e-06
1.64502e-05
-5.74707e-06
1.60778e-05
-5.81221e-06
1.56981e-05
-5.88517e-06
1.53109e-05
-5.96254e-06
1.49156e-05
-6.04164e-06
1.45118e-05
-6.12259e-06
1.4099e-05
-6.20617e-06
1.36768e-05
-6.29262e-06
1.32444e-05
-6.38186e-06
1.28014e-05
-6.4739e-06
1.23468e-05
-6.56882e-06
1.188e-05
-6.66673e-06
1.13999e-05
-6.76766e-06
1.09054e-05
-6.87167e-06
1.03952e-05
-6.97876e-06
9.86792e-06
-7.08891e-06
9.32179e-06
-7.20204e-06
8.7548e-06
-7.31799e-06
8.16459e-06
-7.43647e-06
7.54836e-06
-7.55702e-06
6.9028e-06
-7.67893e-06
6.22398e-06
-7.80112e-06
5.50719e-06
-7.92217e-06
4.74689e-06
-8.03945e-06
3.9361e-06
-8.15114e-06
3.06723e-06
-8.24787e-06
2.12933e-06
-8.33949e-06
1.1117e-06
-8.3571e-06
-8.56553e-06
1.65267e-05
-5.32119e-06
1.61568e-05
-5.37723e-06
1.57808e-05
-5.43615e-06
1.53979e-05
-5.5023e-06
1.50078e-05
-5.57243e-06
1.46101e-05
-5.64393e-06
1.42043e-05
-5.71685e-06
1.37901e-05
-5.79194e-06
1.33668e-05
-5.86937e-06
1.2934e-05
-5.94904e-06
1.2491e-05
-6.03086e-06
1.2037e-05
-6.11485e-06
1.15713e-05
-6.20101e-06
1.10929e-05
-6.28928e-06
1.06008e-05
-6.37956e-06
1.00938e-05
-6.47173e-06
9.57043e-06
-6.56556e-06
9.02917e-06
-6.66078e-06
8.46813e-06
-6.75695e-06
7.88515e-06
-6.85349e-06
7.27771e-06