/*--------------------------------*- C++ -*----------------------------------*\
  =========                 |
  \\      /  F ield         | OpenFOAM: The Open Source CFD Toolbox
   \\    /   O peration     | Website:  https://openfoam.org
    \\  /    A nd           | Version:  11
     \\/     M anipulation  |
\*---------------------------------------------------------------------------*/
FoamFile
{
    format      ascii;
    class       volVectorField;
    location    "3.1";
    object      U;
}
// * * * * * * * * * * * * * * * * * * * * * * * * * * * * * * * * * * * * * //

dimensions      [0 1 -1 0 0 0 0];

internalField   nonuniform List<vector> 
12600
(
(0.412112 0.000105706 0)
(0.411841 0.00018001 0)
(0.411428 0.000191024 0)
(0.410958 0.000194243 0)
(0.410492 0.000198469 0)
(0.410036 0.000201152 0)
(0.409583 0.000202431 0)
(0.409131 0.000203065 0)
(0.408683 0.000203222 0)
(0.40824 0.00020284 0)
(0.407805 0.000201846 0)
(0.407379 0.00020013 0)
(0.406965 0.000197498 0)
(0.406567 0.000193823 0)
(0.406188 0.000189099 0)
(0.405832 0.00018302 0)
(0.405504 0.000175138 0)
(0.40521 0.000165201 0)
(0.404957 0.000153236 0)
(0.404758 0.00013873 0)
(0.404624 0.000122228 0)
(0.404568 0.000100882 0)
(0.404609 7.33753e-05 0)
(0.404771 3.28606e-05 0)
(0.405083 -1.60149e-05 0)
(0.40558 -7.1143e-05 0)
(0.406312 -0.000142224 0)
(0.407334 -0.000228397 0)
(0.408835 -0.00036605 0)
(0.409767 -0.000881483 0)
(0.412492 0.000153836 0)
(0.412638 0.00028105 0)
(0.412773 0.000262671 0)
(0.412826 0.00025421 0)
(0.412872 0.000256394 0)
(0.412927 0.000256348 0)
(0.412985 0.000254045 0)
(0.413045 0.000250656 0)
(0.413107 0.000246195 0)
(0.413174 0.000240391 0)
(0.413248 0.000233071 0)
(0.413331 0.000224067 0)
(0.413426 0.00021297 0)
(0.413535 0.000199377 0)
(0.413662 0.000182696 0)
(0.413811 0.000162066 0)
(0.413985 0.000138846 0)
(0.414191 0.000110654 0)
(0.414435 7.43864e-05 0)
(0.414727 3.02567e-05 0)
(0.415077 -2.40777e-05 0)
(0.415498 -9.11535e-05 0)
(0.416007 -0.000172746 0)
(0.41662 -0.000271559 0)
(0.417367 -0.00039272 0)
(0.418252 -0.000544899 0)
(0.419396 -0.000733131 0)
(0.420556 -0.00099638 0)
(0.42248 -0.0013153 0)
(0.423079 -0.00214919 0)
(0.41248 8.50934e-05 0)
(0.412554 0.000152433 0)
(0.412645 0.000155641 0)
(0.412712 0.000156123 0)
(0.412765 0.000161196 0)
(0.412819 0.000163062 0)
(0.412878 0.000161265 0)
(0.412939 0.000157659 0)
(0.413003 0.000152331 0)
(0.413071 0.000144767 0)
(0.413144 0.000134546 0)
(0.413225 0.000121428 0)
(0.413317 0.000104884 0)
(0.413422 8.49139e-05 0)
(0.413545 5.98686e-05 0)
(0.413688 3.01933e-05 0)
(0.413856 -7.18801e-06 0)
(0.414053 -5.44133e-05 0)
(0.414287 -0.000111443 0)
(0.414563 -0.000180686 0)
(0.414893 -0.000265475 0)
(0.415288 -0.000369432 0)
(0.415766 -0.0004972 0)
(0.416343 -0.000655036 0)
(0.417045 -0.000848485 0)
(0.417898 -0.00109071 0)
(0.418939 -0.00138075 0)
(0.420189 -0.00176761 0)
(0.42165 -0.00225478 0)
(0.423409 -0.00265047 0)
(0.412472 5.56522e-05 0)
(0.412522 0.000130774 0)
(0.412596 0.000157362 0)
(0.412659 0.000164298 0)
(0.41271 0.000171005 0)
(0.412762 0.000173524 0)
(0.412818 0.000171583 0)
(0.412877 0.000167247 0)
(0.412939 0.000160627 0)
(0.413005 0.000151235 0)
(0.413077 0.000138351 0)
(0.413156 0.000121237 0)
(0.413246 9.77866e-05 0)
(0.413349 6.87397e-05 0)
(0.413468 3.37945e-05 0)
(0.413606 -8.26088e-06 0)
(0.413769 -5.95282e-05 0)
(0.413961 -0.000121569 0)
(0.414187 -0.000197344 0)
(0.414454 -0.000290388 0)
(0.414773 -0.000404843 0)
(0.415156 -0.0005459 0)
(0.415617 -0.000719838 0)
(0.416175 -0.000934185 0)
(0.416853 -0.00119734 0)
(0.417676 -0.00152219 0)
(0.418675 -0.00191972 0)
(0.419888 -0.00241064 0)
(0.421314 -0.0030213 0)
(0.423178 -0.00346048 0)
(0.412468 3.98903e-05 0)
(0.412502 0.000100621 0)
(0.412559 0.000124389 0)
(0.412615 0.000127505 0)
(0.412665 0.000127073 0)
(0.412715 0.000125768 0)
(0.412769 0.000121647 0)
(0.412826 0.000114441 0)
(0.412887 0.000104403 0)
(0.412951 9.07915e-05 0)
(0.41302 7.28263e-05 0)
(0.413097 4.98661e-05 0)
(0.413185 2.09325e-05 0)
(0.413285 -1.56766e-05 0)
(0.4134 -6.04035e-05 0)
(0.413534 -0.000113986 0)
(0.41369 -0.000178181 0)
(0.413874 -0.00025609 0)
(0.414091 -0.000351486 0)
(0.414347 -0.000468555 0)
(0.414653 -0.000612365 0)
(0.415019 -0.000789263 0)
(0.41546 -0.00100702 0)
(0.415993 -0.0012751 0)
(0.416639 -0.00160456 0)
(0.417424 -0.00200959 0)
(0.418375 -0.00250564 0)
(0.419542 -0.00310384 0)
(0.420913 -0.00384925 0)
(0.422783 -0.00451495 0)
(0.412466 2.92833e-05 0)
(0.41249 7.66036e-05 0)
(0.412535 9.95736e-05 0)
(0.412586 0.000105013 0)
(0.412634 0.000105782 0)
(0.412682 0.000105208 0)
(0.412734 0.000101823 0)
(0.412789 9.50016e-05 0)
(0.412848 8.47395e-05 0)
(0.41291 7.04124e-05 0)
(0.412978 5.08155e-05 0)
(0.413052 2.45873e-05 0)
(0.413136 -8.50528e-06 0)
(0.413232 -5.07014e-05 0)
(0.413342 -0.000102912 0)
(0.41347 -0.000166157 0)
(0.413619 -0.000242424 0)
(0.413794 -0.000334997 0)
(0.413999 -0.000447971 0)
(0.414242 -0.000586407 0)
(0.414531 -0.000756653 0)
(0.414877 -0.000966506 0)
(0.415292 -0.00122528 0)
(0.415794 -0.00154407 0)
(0.416402 -0.00193604 0)
(0.417141 -0.00241701 0)
(0.418036 -0.00300628 0)
(0.419142 -0.00371554 0)
(0.420443 -0.00460431 0)
(0.422259 -0.00547691 0)
(0.412464 2.1927e-05 0)
(0.412482 5.83445e-05 0)
(0.412519 7.82137e-05 0)
(0.412564 8.33021e-05 0)
(0.412609 8.21109e-05 0)
(0.412655 7.87115e-05 0)
(0.412705 7.27641e-05 0)
(0.412758 6.3443e-05 0)
(0.412814 5.02966e-05 0)
(0.412874 3.2419e-05 0)
(0.412938 8.43206e-06 0)
(0.41301 -2.3258e-05 0)
(0.41309 -6.3487e-05 0)
(0.413181 -0.000113092 0)
(0.413286 -0.000173622 0)
(0.413406 -0.000246941 0)
(0.413547 -0.000335328 0)
(0.413711 -0.000442272 0)
(0.413903 -0.000572547 0)
(0.41413 -0.000732118 0)
(0.4144 -0.000928257 0)
(0.414721 -0.00116977 0)
(0.415108 -0.00146725 0)
(0.415573 -0.00183344 0)
(0.416137 -0.00228366 0)
(0.416822 -0.00283602 0)
(0.417652 -0.00351325 0)
(0.418683 -0.00433205 0)
(0.419896 -0.00535489 0)
(0.42162 -0.00643552 0)
(0.412463 1.64826e-05 0)
(0.412478 4.37874e-05 0)
(0.412508 5.92083e-05 0)
(0.412548 6.2642e-05 0)
(0.41259 5.97091e-05 0)
(0.412634 5.44178e-05 0)
(0.412681 4.70806e-05 0)
(0.412731 3.67255e-05 0)
(0.412785 2.24143e-05 0)
(0.412842 2.98223e-06 0)
(0.412904 -2.30832e-05 0)
(0.412972 -5.72846e-05 0)
(0.413048 -0.000101415 0)
(0.413134 -0.000156339 0)
(0.413232 -0.00022361 0)
(0.413345 -0.000305138 0)
(0.413476 -0.000403513 0)
(0.413628 -0.000522611 0)
(0.413806 -0.000667689 0)
(0.414015 -0.000845395 0)
(0.414262 -0.00106394 0)
(0.414557 -0.00133328 0)
(0.41491 -0.00166537 0)
(0.415334 -0.00207448 0)
(0.415847 -0.0025778 0)
(0.416471 -0.00319573 0)
(0.417227 -0.00395429 0)
(0.418169 -0.0048762 0)
(0.419277 -0.00602593 0)
(0.420879 -0.00730273 0)
(0.412463 1.22052e-05 0)
(0.412475 3.18225e-05 0)
(0.4125 4.24746e-05 0)
(0.412536 4.36058e-05 0)
(0.412575 3.8906e-05 0)
(0.412616 3.17577e-05 0)
(0.412661 2.27502e-05 0)
(0.412709 1.08604e-05 0)
(0.41276 -5.199e-06 0)
(0.412814 -2.68935e-05 0)
(0.412873 -5.59497e-05 0)
(0.412937 -9.40487e-05 0)
(0.413008 -0.000142911 0)
(0.413088 -0.000203692 0)
(0.413179 -0.000277901 0)
(0.413283 -0.000367643 0)
(0.413403 -0.000475846 0)
(0.413542 -0.000606708 0)
(0.413703 -0.00076595 0)
(0.413892 -0.000960886 0)
(0.414115 -0.00120051 0)
(0.41438 -0.00149568 0)
(0.414696 -0.00185943 0)
(0.415076 -0.00230738 0)
(0.415533 -0.0028585 0)
(0.416089 -0.00353564 0)
(0.416761 -0.00436793 0)
(0.417601 -0.00538467 0)
(0.418587 -0.00665044 0)
(0.420039 -0.00811253 0)
(0.412462 8.68904e-06 0)
(0.412472 2.17451e-05 0)
(0.412495 2.77039e-05 0)
(0.412526 2.60876e-05 0)
(0.412563 1.94112e-05 0)
(0.412602 1.03699e-05 0)
(0.412644 -3.72128e-07 0)
(0.412689 -1.37961e-05 0)
(0.412737 -3.1415e-05 0)
(0.412789 -5.49513e-05 0)
(0.412844 -8.63076e-05 0)
(0.412904 -0.000127335 0)
(0.41297 -0.000179772 0)
(0.413044 -0.000245043 0)
(0.413127 -0.000324747 0)
(0.413222 -0.000421111 0)
(0.41333 -0.000537301 0)
(0.413454 -0.00067782 0)
(0.413598 -0.000848783 0)
(0.413765 -0.00105803 0)
(0.413962 -0.00131524 0)
(0.414195 -0.0016321 0)
(0.414471 -0.00202268 0)
(0.414801 -0.00250385 0)
(0.415198 -0.00309618 0)
(0.415678 -0.00382468 0)
(0.416258 -0.00472134 0)
(0.416985 -0.00582164 0)
(0.417833 -0.00719012 0)
(0.419109 -0.00881917 0)
(0.412462 5.68922e-06 0)
(0.412471 1.30389e-05 0)
(0.412491 1.45263e-05 0)
(0.412519 9.94392e-06 0)
(0.412553 1.14927e-06 0)
(0.41259 -9.74269e-06 0)
(0.412629 -2.21393e-05 0)
(0.412672 -3.69991e-05 0)
(0.412717 -5.60346e-05 0)
(0.412765 -8.12165e-05 0)
(0.412817 -0.000114633 0)
(0.412872 -0.000158294 0)
(0.412933 -0.000214006 0)
(0.413 -0.000283337 0)
(0.413075 -0.00036798 0)
(0.413159 -0.000470261 0)
(0.413255 -0.00059353 0)
(0.413364 -0.000742544 0)
(0.413489 -0.000923754 0)
(0.413634 -0.00114545 0)
(0.413802 -0.00141788 0)
(0.414 -0.00175341 0)
(0.414234 -0.00216689 0)
(0.414511 -0.00267622 0)
(0.414843 -0.00330327 0)
(0.415243 -0.00407499 0)
(0.415724 -0.00502583 0)
(0.416326 -0.00619693 0)
(0.417023 -0.0076522 0)
(0.418096 -0.00942786 0)
(0.412462 3.02866e-06 0)
(0.41247 5.32195e-06 0)
(0.412487 2.61904e-06 0)
(0.412513 -4.98523e-06 0)
(0.412545 -1.59391e-05 0)
(0.412579 -2.85968e-05 0)
(0.412616 -4.25448e-05 0)
(0.412656 -5.87723e-05 0)
(0.412699 -7.91115e-05 0)
(0.412744 -0.00010573 0)
(0.412791 -0.000140884 0)
(0.412842 -0.000186707 0)
(0.412897 -0.000245073 0)
(0.412957 -0.000317642 0)
(0.413024 -0.000406196 0)
(0.413097 -0.000513144 0)
(0.41318 -0.000641982 0)
(0.413272 -0.00079767 0)
(0.413378 -0.000986926 0)
(0.413499 -0.00121839 0)
(0.413638 -0.00150272 0)
(0.413799 -0.00185283 0)
(0.413988 -0.00228419 0)
(0.414211 -0.00281549 0)
(0.414474 -0.00346968 0)
(0.414789 -0.00427519 0)
(0.415165 -0.00526845 0)
(0.415633 -0.00649532 0)
(0.416167 -0.00801875 0)
(0.417014 -0.00991452 0)
(0.412462 6.92955e-07 0)
(0.412469 -1.60517e-06 0)
(0.412485 -8.25429e-06 0)
(0.412509 -1.88263e-05 0)
(0.412538 -3.19383e-05 0)
(0.41257 -4.62864e-05 0)
(0.412605 -6.16546e-05 0)
(0.412643 -7.91102e-05 0)
(0.412682 -0.000100582 0)
(0.412724 -0.000128385 0)
(0.412767 -0.000164914 0)
(0.412813 -0.000212407 0)
(0.412863 -0.000272808 0)
(0.412915 -0.000347847 0)
(0.412973 -0.000439374 0)
(0.413035 -0.000549868 0)
(0.413104 -0.000682923 0)
(0.41318 -0.000843649 0)
(0.413265 -0.00103895 0)
(0.413361 -0.00127772 0)
(0.413469 -0.00157092 0)
(0.413593 -0.0019318 0)
(0.413736 -0.00237629 0)
(0.413901 -0.00292359 0)
(0.414094 -0.00359732 0)
(0.414321 -0.00442698 0)
(0.414586 -0.00545031 0)
(0.414914 -0.00671673 0)
(0.415276 -0.00828767 0)
(0.415878 -0.0102731 0)
(0.412462 -1.69351e-06 0)
(0.412468 -7.84253e-06 0)
(0.412483 -1.82117e-05 0)
(0.412506 -3.17137e-05 0)
(0.412533 -4.69327e-05 0)
(0.412563 -6.28623e-05 0)
(0.412596 -7.95097e-05 0)
(0.412631 -9.80355e-05 0)
(0.412667 -0.000120442 0)
(0.412705 -0.000149156 0)
(0.412745 -0.000186681 0)
(0.412786 -0.000235339 0)
(0.412829 -0.000297133 0)
(0.412875 -0.000373839 0)
(0.412923 -0.000467353 0)
(0.412974 -0.000580198 0)
(0.413029 -0.000716024 0)
(0.413088 -0.000880024 0)
(0.413152 -0.00107922 0)
(0.413222 -0.00132263 0)
(0.413299 -0.00162139 0)
(0.413385 -0.00198895 0)
(0.41348 -0.00244142 0)
(0.413587 -0.00299827 0)
(0.413707 -0.00368345 0)
(0.413844 -0.00452694 0)
(0.413996 -0.0055671 0)
(0.41418 -0.0068555 0)
(0.414363 -0.00845138 0)
(0.414705 -0.0104914 0)
(0.412461 -3.72871e-06 0)
(0.412468 -1.3802e-05 0)
(0.412482 -2.7684e-05 0)
(0.412503 -4.3871e-05 0)
(0.412529 -6.10297e-05 0)
(0.412557 -7.83885e-05 0)
(0.412588 -9.61511e-05 0)
(0.41262 -0.000115569 0)
(0.412654 -0.000138694 0)
(0.412689 -0.000168024 0)
(0.412724 -0.000206149 0)
(0.41276 -0.000255455 0)
(0.412797 -0.000317984 0)
(0.412835 -0.00039554 0)
(0.412874 -0.000490038 0)
(0.412914 -0.000604015 0)
(0.412954 -0.000741142 0)
(0.412996 -0.000906639 0)
(0.413039 -0.00110756 0)
(0.413083 -0.00135295 0)
(0.413129 -0.00165399 0)
(0.413176 -0.00202413 0)
(0.413223 -0.00247948 0)
(0.413271 -0.00303948 0)
(0.413318 -0.003728 0)
(0.413364 -0.00457494 0)
(0.413403 -0.00561845 0)
(0.413439 -0.00691072 0)
(0.413443 -0.00850799 0)
(0.413518 -0.0105646 0)
(0.412461 -5.69554e-06 0)
(0.412468 -1.95584e-05 0)
(0.412481 -3.66924e-05 0)
(0.412502 -5.53946e-05 0)
(0.412526 -7.43362e-05 0)
(0.412553 -9.2955e-05 0)
(0.412582 -0.000111652 0)
(0.412612 -0.00013176 0)
(0.412642 -0.000155357 0)
(0.412674 -0.000184988 0)
(0.412705 -0.000223305 0)
(0.412737 -0.000272736 0)
(0.412767 -0.000335339 0)
(0.412798 -0.000412918 0)
(0.412827 -0.000507386 0)
(0.412855 -0.000621271 0)
(0.412882 -0.000758223 0)
(0.412906 -0.000923432 0)
(0.412928 -0.0011239 0)
(0.412947 -0.00136861 0)
(0.412961 -0.00166862 0)
(0.412969 -0.00203723 0)
(0.412969 -0.00249035 0)
(0.412958 -0.00304707 0)
(0.412932 -0.00373078 0)
(0.412887 -0.00457074 0)
(0.412814 -0.00560406 0)
(0.412705 -0.00688194 0)
(0.41253 -0.00845672 0)
(0.412338 -0.0104902 0)
(0.412461 -7.63281e-06 0)
(0.412468 -2.51969e-05 0)
(0.412481 -4.54596e-05 0)
(0.412501 -6.64834e-05 0)
(0.412525 -8.6984e-05 0)
(0.41255 -0.000106645 0)
(0.412577 -0.000126065 0)
(0.412605 -0.00014664 0)
(0.412633 -0.000170455 0)
(0.412661 -0.000200078 0)
(0.412688 -0.000238189 0)
(0.412715 -0.000287225 0)
(0.412739 -0.000349233 0)
(0.412762 -0.000426 0)
(0.412782 -0.000519419 0)
(0.412799 -0.000631985 0)
(0.412811 -0.000767289 0)
(0.412819 -0.000930432 0)
(0.41282 -0.00112829 0)
(0.412813 -0.00136968 0)
(0.412796 -0.0016654 0)
(0.412765 -0.00202846 0)
(0.412719 -0.00247431 0)
(0.41265 -0.00302146 0)
(0.412554 -0.00369243 0)
(0.41242 -0.00451527 0)
(0.412237 -0.00552526 0)
(0.411986 -0.00677103 0)
(0.41164 -0.00830017 0)
(0.411189 -0.0102714 0)
(0.412461 -9.58908e-06 0)
(0.412468 -3.08847e-05 0)
(0.412482 -5.41767e-05 0)
(0.412501 -7.72995e-05 0)
(0.412524 -9.90987e-05 0)
(0.412549 -0.000119563 0)
(0.412574 -0.000139488 0)
(0.412599 -0.000160297 0)
(0.412625 -0.000184059 0)
(0.41265 -0.000213345 0)
(0.412674 -0.000250838 0)
(0.412695 -0.000298953 0)
(0.412714 -0.000359702 0)
(0.41273 -0.000434836 0)
(0.41274 -0.000526208 0)
(0.412746 -0.000636251 0)
(0.412745 -0.000768463 0)
(0.412735 -0.000927801 0)
(0.412716 -0.00112094 0)
(0.412684 -0.00135642 0)
(0.412636 -0.00164469 0)
(0.412569 -0.00199826 0)
(0.412476 -0.00243197 0)
(0.412352 -0.00296345 0)
(0.412187 -0.00361406 0)
(0.411968 -0.00441009 0)
(0.41168 -0.00538432 0)
(0.411295 -0.00658135 0)
(0.410787 -0.00804334 0)
(0.410094 -0.00991572 0)
(0.412462 -1.16322e-05 0)
(0.412468 -3.67918e-05 0)
(0.412483 -6.30509e-05 0)
(0.412503 -8.80253e-05 0)
(0.412526 -0.000110818 0)
(0.412549 -0.000131818 0)
(0.412573 -0.00015201 0)
(0.412596 -0.000172804 0)
(0.41262 -0.000196234 0)
(0.412642 -0.000224858 0)
(0.412661 -0.000261329 0)
(0.412678 -0.000308005 0)
(0.412692 -0.000366838 0)
(0.4127 -0.000439527 0)
(0.412702 -0.000527869 0)
(0.412697 -0.000634216 0)
(0.412682 -0.000761935 0)
(0.412656 -0.000915787 0)
(0.412617 -0.00110218 0)
(0.412561 -0.00132927 0)
(0.412484 -0.00160705 0)
(0.412381 -0.00194742 0)
(0.412245 -0.00236438 0)
(0.412067 -0.00287449 0)
(0.411836 -0.00349761 0)
(0.411537 -0.00425791 0)
(0.41115 -0.00518505 0)
(0.410641 -0.00631846 0)
(0.409984 -0.0076944 0)
(0.409074 -0.00943615 0)
(0.412462 -1.38451e-05 0)
(0.412469 -4.31318e-05 0)
(0.412485 -7.23247e-05 0)
(0.412506 -9.88508e-05 0)
(0.412529 -0.000122279 0)
(0.412552 -0.00014353 0)
(0.412574 -0.000163744 0)
(0.412596 -0.000184261 0)
(0.412617 -0.000207065 0)
(0.412636 -0.000234697 0)
(0.412652 -0.000269752 0)
(0.412665 -0.000314494 0)
(0.412673 -0.000370784 0)
(0.412674 -0.00044025 0)
(0.412668 -0.000524612 0)
(0.412652 -0.000626113 0)
(0.412625 -0.000747956 0)
(0.412583 -0.000894664 0)
(0.412525 -0.0010723 0)
(0.412446 -0.00128858 0)
(0.412341 -0.00155292 0)
(0.412204 -0.00187644 0)
(0.412026 -0.00227222 0)
(0.411798 -0.00275553 0)
(0.411506 -0.00334451 0)
(0.411131 -0.00406089 0)
(0.410653 -0.00493082 0)
(0.410031 -0.00598778 0)
(0.409242 -0.00726204 0)
(0.408145 -0.00884801 0)
(0.412462 -1.63398e-05 0)
(0.41247 -5.01839e-05 0)
(0.412488 -8.22837e-05 0)
(0.41251 -0.000109972 0)
(0.412534 -0.000133621 0)
(0.412556 -0.000154833 0)
(0.412578 -0.000174818 0)
(0.412598 -0.000194775 0)
(0.412617 -0.000216642 0)
(0.412633 -0.000242941 0)
(0.412646 -0.000276178 0)
(0.412655 -0.000318495 0)
(0.412658 -0.000371649 0)
(0.412653 -0.000437187 0)
(0.412638 -0.000516736 0)
(0.412613 -0.000612408 0)
(0.412573 -0.000727208 0)
(0.412517 -0.000865368 0)
(0.412441 -0.00103255 0)
(0.41234 -0.00123594 0)
(0.412209 -0.00148427 0)
(0.41204 -0.00178783 0)
(0.411824 -0.00215858 0)
(0.411549 -0.00261039 0)
(0.4112 -0.00315947 0)
(0.410756 -0.00382492 0)
(0.410196 -0.00462918 0)
(0.409474 -0.0055994 0)
(0.408569 -0.00676025 0)
(0.407319 -0.00817323 0)
(0.412462 -1.92672e-05 0)
(0.412472 -5.83341e-05 0)
(0.412492 -9.32755e-05 0)
(0.412517 -0.000121585 0)
(0.412542 -0.000144972 0)
(0.412564 -0.000165849 0)
(0.412584 -0.000185354 0)
(0.412604 -0.000204483 0)
(0.412621 -0.000225143 0)
(0.412635 -0.000249806 0)
(0.412645 -0.000280825 0)
(0.412649 -0.00032017 0)
(0.412647 -0.000369475 0)
(0.412636 -0.000430194 0)
(0.412614 -0.000503856 0)
(0.412579 -0.000592429 0)
(0.412529 -0.000698706 0)
(0.412459 -0.000826596 0)
(0.412366 -0.000981311 0)
(0.412245 -0.00116945 0)
(0.412089 -0.00139897 0)
(0.411891 -0.00167924 0)
(0.411639 -0.00202102 0)
(0.411321 -0.00243668 0)
(0.410921 -0.00294044 0)
(0.410416 -0.00354864 0)
(0.409782 -0.00428004 0)
(0.408974 -0.00515554 0)
(0.407971 -0.00619513 0)
(0.406604 -0.00742665 0)
(0.412463 -2.29342e-05 0)
(0.412475 -6.80748e-05 0)
(0.412499 -0.000105681 0)
(0.412527 -0.000133896 0)
(0.412553 -0.000156492 0)
(0.412575 -0.000176687 0)
(0.412595 -0.000195356 0)
(0.412613 -0.000213329 0)
(0.412629 -0.000232558 0)
(0.412641 -0.000255454 0)
(0.412648 -0.00028417 0)
(0.412649 -0.000320469 0)
(0.412642 -0.000365829 0)
(0.412626 -0.000421574 0)
(0.412597 -0.000489102 0)
(0.412554 -0.000570202 0)
(0.412493 -0.00066741 0)
(0.41241 -0.000784263 0)
(0.412302 -0.00092547 0)
(0.412163 -0.00109697 0)
(0.411985 -0.00130591 0)
(0.41176 -0.00156063 0)
(0.411476 -0.00187065 0)
(0.411119 -0.00224671 0)
(0.410673 -0.002701 0)
(0.410113 -0.00324711 0)
(0.409415 -0.00390031 0)
(0.408535 -0.0046756 0)
(0.407452 -0.00558985 0)
(0.406 -0.00663908 0)
(0.412464 -2.77205e-05 0)
(0.412479 -8.0153e-05 0)
(0.412509 -0.000119891 0)
(0.412542 -0.000147092 0)
(0.412569 -0.000168544 0)
(0.412591 -0.000187829 0)
(0.41261 -0.000205157 0)
(0.412627 -0.000221258 0)
(0.412642 -0.000238226 0)
(0.412651 -0.000258385 0)
(0.412656 -0.000283643 0)
(0.412654 -0.000315568 0)
(0.412644 -0.000355514 0)
(0.412622 -0.000404708 0)
(0.412587 -0.00046442 0)
(0.412536 -0.000536263 0)
(0.412466 -0.000622514 0)
(0.412372 -0.000726322 0)
(0.41225 -0.000851855 0)
(0.412094 -0.00100435 0)
(0.411897 -0.00119007 0)
(0.411647 -0.00141629 0)
(0.411335 -0.0016912 0)
(0.410944 -0.00202397 0)
(0.410458 -0.00242471 0)
(0.409851 -0.00290434 0)
(0.409099 -0.00347496 0)
(0.408158 -0.00414635 0)
(0.407011 -0.00493442 0)
(0.405502 -0.00580844 0)
(0.412465 -3.43599e-05 0)
(0.412486 -9.57405e-05 0)
(0.412524 -0.000136067 0)
(0.412562 -0.000160703 0)
(0.41259 -0.000180819 0)
(0.412612 -0.00019973 0)
(0.412631 -0.000216574 0)
(0.412649 -0.000231922 0)
(0.412662 -0.000247922 0)
(0.41267 -0.000266694 0)
(0.412673 -0.000289837 0)
(0.412668 -0.000318656 0)
(0.412654 -0.000354322 0)
(0.412628 -0.000397911 0)
(0.412588 -0.000450541 0)
(0.41253 -0.000513633 0)
(0.412451 -0.000589181 0)
(0.412348 -0.000679903 0)
(0.412214 -0.000789387 0)
(0.412043 -0.000922122 0)
(0.411828 -0.00108352 0)
(0.411558 -0.00127974 0)
(0.411221 -0.00151764 0)
(0.410801 -0.00180477 0)
(0.41028 -0.00214932 0)
(0.409635 -0.00255954 0)
(0.408838 -0.00304458 0)
(0.407848 -0.00360937 0)
(0.40665 -0.00427177 0)
(0.405101 -0.00498032 0)
(0.412467 -4.41793e-05 0)
(0.412498 -0.000116894 0)
(0.412547 -0.000155543 0)
(0.41259 -0.000174782 0)
(0.412619 -0.000190483 0)
(0.41264 -0.000205327 0)
(0.41266 -0.000218049 0)
(0.412677 -0.0002295 0)
(0.412689 -0.000241733 0)
(0.412696 -0.000256444 0)
(0.412696 -0.000274879 0)
(0.41269 -0.000298127 0)
(0.412673 -0.000327189 0)
(0.412643 -0.000362978 0)
(0.412598 -0.000406433 0)
(0.412535 -0.000458781 0)
(0.412449 -0.000521734 0)
(0.412337 -0.000597559 0)
(0.412193 -0.000689246 0)
(0.41201 -0.00080042 0)
(0.411781 -0.000935585 0)
(0.411493 -0.00109975 0)
(0.411135 -0.00129842 0)
(0.410691 -0.0015375 0)
(0.410142 -0.00182332 0)
(0.409464 -0.00216166 0)
(0.408632 -0.0025593 0)
(0.407603 -0.00301576 0)
(0.406366 -0.00355671 0)
(0.404783 -0.00411174 0)
(0.412472 -5.90145e-05 0)
(0.412518 -0.000144131 0)
(0.412584 -0.000182007 0)
(0.412632 -0.000202229 0)
(0.412662 -0.00022037 0)
(0.412684 -0.000235987 0)
(0.412704 -0.000248202 0)
(0.41272 -0.000258908 0)
(0.412732 -0.000270152 0)
(0.412737 -0.000283187 0)
(0.412736 -0.000298945 0)
(0.412728 -0.000318311 0)
(0.412708 -0.000342115 0)
(0.412676 -0.00037114 0)
(0.412627 -0.000406153 0)
(0.412559 -0.000448175 0)
(0.412467 -0.000498639 0)
(0.412348 -0.000559286 0)
(0.412196 -0.000632485 0)
(0.412003 -0.000721028 0)
(0.411761 -0.00082861 0)
(0.41146 -0.000959127 0)
(0.411085 -0.00111684 0)
(0.410622 -0.00130623 0)
(0.410051 -0.0015318 0)
(0.409349 -0.00179665 0)
(0.408492 -0.0021048 0)
(0.407433 -0.00244816 0)
(0.406168 -0.0028612 0)
(0.404538 -0.00327338 0)
(0.412479 -8.74525e-05 0)
(0.41255 -0.000161705 0)
(0.412633 -0.000175828 0)
(0.412685 -0.000185649 0)
(0.412715 -0.000198148 0)
(0.412739 -0.000209099 0)
(0.41276 -0.000217593 0)
(0.412777 -0.000225141 0)
(0.412788 -0.00023335 0)
(0.412793 -0.000243216 0)
(0.412791 -0.000255107 0)
(0.412781 -0.000269594 0)
(0.41276 -0.000287226 0)
(0.412725 -0.000308554 0)
(0.412674 -0.000334292 0)
(0.412602 -0.000365321 0)
(0.412506 -0.00040274 0)
(0.412382 -0.000448055 0)
(0.412223 -0.000503005 0)
(0.412023 -0.00056961 0)
(0.411772 -0.000649979 0)
(0.411459 -0.000746775 0)
(0.411072 -0.000863062 0)
(0.410594 -0.00100197 0)
(0.410008 -0.00116661 0)
(0.409289 -0.00135868 0)
(0.408418 -0.00157987 0)
(0.407338 -0.00181216 0)
(0.406064 -0.00208979 0)
(0.404295 -0.00224282 0)
(0.41249 -0.000155394 0)
(0.412641 -0.000289875 0)
(0.412757 -0.000274883 0)
(0.412789 -0.000272005 0)
(0.41281 -0.00027863 0)
(0.412832 -0.00028448 0)
(0.412851 -0.000288315 0)
(0.412863 -0.000291981 0)
(0.412867 -0.000296386 0)
(0.412865 -0.000301778 0)
(0.412854 -0.000308443 0)
(0.412834 -0.0003167 0)
(0.412801 -0.000326965 0)
(0.412753 -0.000339795 0)
(0.412687 -0.000355247 0)
(0.412599 -0.000374063 0)
(0.412486 -0.000397245 0)
(0.412341 -0.000425032 0)
(0.412157 -0.000458853 0)
(0.411928 -0.000498128 0)
(0.411644 -0.000548369 0)
(0.411292 -0.000609082 0)
(0.41086 -0.000681994 0)
(0.410331 -0.000769123 0)
(0.409688 -0.000871974 0)
(0.40891 -0.000990752 0)
(0.407976 -0.00112585 0)
(0.406847 -0.00125091 0)
(0.40551 -0.00142071 0)
(0.403027 -0.000989929 0)
(0.412111 -0.00010703 0)
(0.411834 -0.000181799 0)
(0.411409 -0.000194597 0)
(0.410921 -0.000199625 0)
(0.410429 -0.000205774 0)
(0.40994 -0.000210466 0)
(0.409446 -0.00021396 0)
(0.408945 -0.000217137 0)
(0.408437 -0.000220285 0)
(0.407922 -0.000223512 0)
(0.407399 -0.000226993 0)
(0.406865 -0.000230922 0)
(0.406318 -0.000235431 0)
(0.405755 -0.00024061 0)
(0.405174 -0.000246678 0)
(0.404569 -0.000253814 0)
(0.403937 -0.00026219 0)
(0.403271 -0.000272308 0)
(0.402564 -0.000284494 0)
(0.401807 -0.000299337 0)
(0.400991 -0.000317321 0)
(0.400102 -0.000338682 0)
(0.399125 -0.000364111 0)
(0.398042 -0.000394293 0)
(0.396833 -0.00043028 0)
(0.395478 -0.000471447 0)
(0.393955 -0.000522376 0)
(0.392259 -0.00055142 0)
(0.390452 -0.000658871 0)
(0.386952 -7.36591e-05 0)
(0.415438 -0.00183598 -1.21152e-18)
(0.42069 -0.00246496 -9.31852e-21)
(0.424568 -0.00295907 1.24632e-18)
(0.426631 -0.00362764 2.50374e-18)
(0.42779 -0.00450673 1.2779e-18)
(0.428585 -0.00555597 -1.26795e-18)
(0.42922 -0.00674713 1.29259e-18)
(0.429785 -0.00807952 0)
(0.430336 -0.00955653 1.31016e-18)
(0.430893 -0.0111781 -5.24869e-21)
(0.431455 -0.0129484 9.20253e-20)
(0.43201 -0.0148819 0)
(0.432554 -0.0170023 -1.54786e-18)
(0.433089 -0.0193405 0)
(0.43362 -0.0219358 0)
(0.43415 -0.0248377 -1.69744e-18)
(0.434685 -0.0281108 -1.62894e-18)
(0.435228 -0.0318397 -3.04037e-22)
(0.435782 -0.0361374 1.61721e-18)
(0.436351 -0.0411568 2.39506e-19)
(0.436939 -0.0471059 -2.21695e-18)
(0.437546 -0.0542949 2.5519e-19)
(0.438187 -0.0630883 -1.31989e-19)
(0.43882 -0.074407 2.00493e-18)
(0.439598 -0.0882499 2.74282e-19)
(0.440111 -0.109503 -1.39539e-19)
(0.441716 -0.131507 0)
(0.441244 -0.185095 -1.73593e-18)
(0.447714 -0.218301 -1.81356e-18)
(0.444769 -0.402851 0)
(0.424826 -0.00258643 1.21487e-18)
(0.426559 -0.00298304 -2.86443e-20)
(0.427626 -0.00369713 2.42207e-20)
(0.42777 -0.00464203 -1.26698e-18)
(0.4279 -0.00573003 -4.05627e-20)
(0.428199 -0.00692117 1.36819e-18)
(0.428629 -0.00821827 1.27688e-18)
(0.429117 -0.00963281 1.74013e-19)
(0.429628 -0.0111698 -8.92659e-20)
(0.430139 -0.0128353 1.45951e-18)
(0.430635 -0.0146444 1.59967e-18)
(0.431108 -0.01662 1.45107e-18)
(0.431561 -0.0187898 1.69114e-18)
(0.431997 -0.0211857 1.53712e-18)
(0.432419 -0.0238476 1.68969e-18)
(0.432827 -0.0268267 3.5809e-18)
(0.433219 -0.0301895 1.68845e-18)
(0.433592 -0.0340231 -1.97718e-18)
(0.433942 -0.038443 2.04613e-18)
(0.434259 -0.0436048 -1.23771e-19)
(0.43453 -0.0497215 1.28439e-19)
(0.434737 -0.0570989 2.14248e-18)
(0.434841 -0.0661384 0)
(0.434788 -0.0776447 -1.41062e-19)
(0.434537 -0.0919802 2.51054e-18)
(0.433723 -0.113056 0)
(0.43304 -0.136429 2.44734e-18)
(0.429291 -0.188123 -2.07987e-18)
(0.429425 -0.224062 -3.79007e-20)
(0.416891 -0.401397 -2.72297e-21)
(0.424466 -0.00300322 -9.47338e-21)
(0.425199 -0.00361591 -9.59621e-21)
(0.425788 -0.00463928 -1.24065e-18)
(0.426218 -0.00579533 -4.02952e-20)
(0.426663 -0.00697487 4.13026e-20)
(0.427217 -0.00819383 -4.21823e-20)
(0.427779 -0.00949269 -1.33812e-18)
(0.428289 -0.0108963 0)
(0.428748 -0.0124196 0)
(0.429171 -0.0140783 0)
(0.429566 -0.0158912 -1.53021e-18)
(0.429938 -0.0178797 -8.89232e-20)
(0.430288 -0.0200683 -1.41639e-18)
(0.430615 -0.022488 -1.66864e-18)
(0.430915 -0.0251792 -1.82883e-18)
(0.431182 -0.0281944 -1.77665e-18)
(0.431411 -0.0316014 1.32728e-19)
(0.431593 -0.0354884 1.78048e-18)
(0.431713 -0.039972 -1.844e-18)
(0.431751 -0.0452088 -1.28297e-19)
(0.431679 -0.0514137 0)
(0.431451 -0.0588885 -4.56635e-18)
(0.430997 -0.0680602 1.43749e-19)
(0.430202 -0.0796298 -2.41342e-18)
(0.428949 -0.0943059 6.95e-20)
(0.426686 -0.11495 0)
(0.42389 -0.139734 -5.24807e-18)
(0.416703 -0.188576 4.75772e-18)
(0.410835 -0.228747 -2.56633e-18)
(0.387837 -0.396299 -2.52935e-20)
(0.424381 -0.00433635 0)
(0.42496 -0.00514957 -1.27664e-18)
(0.425483 -0.0061715 3.82847e-23)
(0.425908 -0.00723372 2.05222e-20)
(0.426308 -0.00831599 0)
(0.426715 -0.0094779 0)
(0.427103 -0.0107589 -1.41272e-18)
(0.427458 -0.0121681 0)
(0.427792 -0.0137086 9.26998e-20)
(0.428113 -0.0153896 -1.90646e-19)
(0.428418 -0.0172264 1.14981e-22)
(0.428697 -0.0192387 -1.50875e-18)
(0.428945 -0.0214524 1.03996e-19)
(0.429156 -0.0239007 1.61726e-18)
(0.429324 -0.0266259 1.10878e-19)
(0.429441 -0.0296816 1.72952e-18)
(0.429494 -0.0331363 -1.89112e-18)
(0.429469 -0.0370787 -1.98278e-18)
(0.429342 -0.0416261 0)
(0.429082 -0.0469356 2.01104e-18)
(0.428639 -0.0532223 1.38418e-19)
(0.427945 -0.0607867 2.43396e-18)
(0.42689 -0.0700585 -1.50478e-19)
(0.425315 -0.0816992 2.48238e-18)
(0.422965 -0.096552 -2.57967e-18)
(0.419254 -0.116902 0)
(0.414083 -0.142489 2.82053e-18)
(0.403646 -0.188787 -2.63818e-18)
(0.391354 -0.231821 2.62887e-18)
(0.358511 -0.388315 5.52323e-20)
(0.42396 -0.00553899 0)
(0.424382 -0.00632519 1.27289e-18)
(0.424745 -0.00726829 0)
(0.425083 -0.0082978 0)
(0.425417 -0.00940584 0)
(0.425754 -0.0106159 0)
(0.426079 -0.0119398 1.4334e-18)
(0.426381 -0.0133781 4.6066e-20)
(0.426658 -0.0149361 -4.7386e-20)
(0.426907 -0.0166284 0)
(0.427123 -0.0184751 0)
(0.4273 -0.0204996 1.0337e-19)
(0.427432 -0.0227293 -1.81665e-23)
(0.427514 -0.0251983 -1.86648e-18)
(0.427537 -0.0279486 0)
(0.427488 -0.0310339 -1.8807e-18)
(0.42735 -0.0345226 0)
(0.4271 -0.0385036 2.15281e-18)
(0.426705 -0.0430941 -2.65095e-19)
(0.42612 -0.0484505 -2.05661e-18)
(0.425278 -0.0547863 1.16477e-18)
(0.424086 -0.0623986 0)
(0.422392 -0.0717132 0)
(0.419985 -0.0833625 0)
(0.416493 -0.0982494 1.41601e-18)
(0.411274 -0.118265 -1.487e-18)
(0.403652 -0.144215 0)
(0.390039 -0.187944 -1.57031e-18)
(0.371179 -0.23299 -1.65896e-18)
(0.328917 -0.377474 9.82944e-19)
(0.423374 -0.00662424 6.24054e-19)
(0.423701 -0.00744068 6.58718e-19)
(0.423973 -0.00839931 6.8497e-19)
(0.424257 -0.00944942 6.38074e-19)
(0.424543 -0.0105788 7.62762e-19)
(0.424813 -0.0117977 6.70957e-19)
(0.425056 -0.0131186 7.34776e-19)
(0.425268 -0.0145509 -7.55177e-19)
(0.425449 -0.0161068 4.8385e-20)
(0.425595 -0.0178025 7.00399e-19)
(0.425703 -0.0196574 8.24829e-19)
(0.425764 -0.0216933 7.98364e-19)
(0.425773 -0.0239368 1.09481e-19)
(0.425718 -0.0264212 -9.10629e-19)
(0.425586 -0.029189 1.1745e-19)
(0.42536 -0.0322936 -2.43596e-19)
(0.425017 -0.0358036 -8.92459e-19)
(0.424526 -0.0398074 -1.06158e-18)
(0.423844 -0.044421 0)
(0.422913 -0.049799 -1.44118e-19)
(0.421647 -0.0561515 2.1083e-20)
(0.419926 -0.0637696 1.57707e-19)
(0.41756 -0.0730695 1.18148e-18)
(0.414283 -0.0846588 2.63319e-19)
(0.409608 -0.0994448 -4.34773e-20)
(0.402834 -0.119057 1.63973e-18)
(0.392715 -0.14493 -1.03315e-19)
(0.376003 -0.186075 1.64384e-18)
(0.350525 -0.232227 1.84249e-18)
(0.299804 -0.363604 -1.14769e-18)
(0.422653 -0.00767116 -6.41795e-19)
(0.422902 -0.00850057 -6.46588e-19)
(0.423091 -0.00945789 -6.83531e-19)
(0.423305 -0.0105047 2.48864e-20)
(0.423521 -0.0116339 -1.39599e-18)
(0.42371 -0.0128548 -7.25894e-19)
(0.423866 -0.0141793 -1.58924e-18)
(0.42399 -0.0156176 9.12315e-20)
(0.42408 -0.017181 -4.94894e-20)
(0.42413 -0.0188839 -1.63228e-18)
(0.424132 -0.0207446 6.66048e-21)
(0.424078 -0.0227854 -8.11907e-19)
(0.423957 -0.0250335 8.47938e-19)
(0.423757 -0.0275229 -9.22405e-21)
(0.42346 -0.0302959 1.21067e-19)
(0.423044 -0.0334058 -1.25544e-19)
(0.422482 -0.0369201 1.04073e-18)
(0.421734 -0.040926 1.08537e-18)
(0.420748 -0.0455373 1.43273e-19)
(0.41945 -0.0509052 9.09129e-19)
(0.417738 -0.0572344 -1.01214e-18)