/*--------------------------------*- C++ -*----------------------------------*\
  =========                 |
  \\      /  F ield         | OpenFOAM: The Open Source CFD Toolbox
   \\    /   O peration     | Website:  https://openfoam.org
    \\  /    A nd           | Version:  11
     \\/     M anipulation  |
\*---------------------------------------------------------------------------*/
FoamFile
{
    format      ascii;
    class       volVectorField;
    location    "3.1";
    object      U;
}
// * * * * * * * * * * * * * * * * * * * * * * * * * * * * * * * * * * * * * //

dimensions      [0 1 -1 0 0 0 0];

internalField   nonuniform List<vector> 
12600
(
(0.412286 6.11271e-05 0)
(0.412185 0.000120068 0)
(0.412005 0.000135449 0)
(0.411783 0.000140222 0)
(0.411558 0.000143884 0)
(0.411339 0.000146498 0)
(0.411124 0.000146823 0)
(0.410914 0.000144267 0)
(0.410714 0.000138018 0)
(0.410533 0.000127647 0)
(0.410379 0.000114404 0)
(0.410264 9.80939e-05 0)
(0.410199 8.13502e-05 0)
(0.410197 5.54904e-05 0)
(0.410272 1.88261e-05 0)
(0.410444 -3.70929e-05 0)
(0.410735 -9.39637e-05 0)
(0.411165 -0.000154719 0)
(0.411761 -0.000227776 0)
(0.412547 -0.000305221 0)
(0.413548 -0.000384795 0)
(0.414805 -0.000482944 0)
(0.416382 -0.0006108 0)
(0.418342 -0.000770663 0)
(0.420752 -0.000963463 0)
(0.423688 -0.00118771 0)
(0.42724 -0.00145528 0)
(0.431476 -0.00171977 0)
(0.436543 -0.00217797 0)
(0.442911 -0.00196569 0)
(0.412482 7.88306e-05 0)
(0.412574 0.000170016 0)
(0.412698 0.00016604 0)
(0.412774 0.000165597 0)
(0.412836 0.00016984 0)
(0.412901 0.000169983 0)
(0.412968 0.000165252 0)
(0.413037 0.000156153 0)
(0.413112 0.000141538 0)
(0.413199 0.000117858 0)
(0.413303 8.24837e-05 0)
(0.413433 3.48496e-05 0)
(0.413599 -2.70426e-05 0)
(0.413812 -0.000104052 0)
(0.414086 -0.000195534 0)
(0.41443 -0.000302135 0)
(0.414857 -0.000430226 0)
(0.415394 -0.000586817 0)
(0.416049 -0.000776569 0)
(0.416831 -0.00100716 0)
(0.417922 -0.00128698 0)
(0.419277 -0.001619 0)
(0.42092 -0.00200631 0)
(0.422897 -0.00245834 0)
(0.425263 -0.00298887 0)
(0.428087 -0.0036078 0)
(0.431458 -0.00433366 0)
(0.435442 -0.00511636 0)
(0.440231 -0.0061958 0)
(0.445457 -0.00642792 0)
(0.412472 2.71625e-05 0)
(0.412521 5.26894e-05 0)
(0.412599 5.43726e-05 0)
(0.412675 5.67518e-05 0)
(0.412745 6.27468e-05 0)
(0.412811 6.59809e-05 0)
(0.412875 6.28897e-05 0)
(0.41294 5.42611e-05 0)
(0.413007 3.48342e-05 0)
(0.413082 1.36544e-06 0)
(0.41317 -4.76284e-05 0)
(0.413283 -0.000114429 0)
(0.41343 -0.000200915 0)
(0.413625 -0.000310402 0)
(0.413883 -0.000447755 0)
(0.414219 -0.000618138 0)
(0.414652 -0.000825248 0)
(0.415206 -0.0010709 0)
(0.415904 -0.00136217 0)
(0.416769 -0.00172884 0)
(0.417814 -0.00218672 0)
(0.419071 -0.00272089 0)
(0.420597 -0.00333153 0)
(0.422449 -0.00404126 0)
(0.424687 -0.00487747 0)
(0.427386 -0.00586016 0)
(0.430615 -0.00701603 0)
(0.434517 -0.00830487 0)
(0.439056 -0.00995412 0)
(0.444833 -0.010843 0)
(0.412468 3.24833e-06 0)
(0.412504 1.75675e-05 0)
(0.412567 2.6559e-05 0)
(0.412636 3.32257e-05 0)
(0.4127 4.26211e-05 0)
(0.412761 5.21602e-05 0)
(0.412821 4.88226e-05 0)
(0.412881 3.77388e-05 0)
(0.412944 1.70119e-05 0)
(0.413013 -2.18295e-05 0)
(0.413094 -8.24342e-05 0)
(0.413198 -0.000170292 0)
(0.413335 -0.00028977 0)
(0.413518 -0.000444536 0)
(0.41376 -0.000638336 0)
(0.414078 -0.000875366 0)
(0.414486 -0.00116125 0)
(0.415004 -0.00150405 0)
(0.415654 -0.0019154 0)
(0.416459 -0.00241229 0)
(0.417439 -0.00300653 0)
(0.418623 -0.00370546 0)
(0.420056 -0.00452735 0)
(0.421794 -0.00549972 0)
(0.423899 -0.00665227 0)
(0.42645 -0.00801064 0)
(0.429515 -0.00961367 0)
(0.433263 -0.0114259 0)
(0.437628 -0.0136896 0)
(0.44339 -0.0153305 0)
(0.412466 -1.19502e-05 0)
(0.412494 -1.86003e-05 0)
(0.412544 -1.9113e-05 0)
(0.412603 -1.74813e-05 0)
(0.41266 -1.31364e-05 0)
(0.412717 -8.78807e-06 0)
(0.412772 -9.5888e-06 0)
(0.412827 -2.07824e-05 0)
(0.412884 -4.81142e-05 0)
(0.412948 -9.68976e-05 0)
(0.413023 -0.000172611 0)
(0.413119 -0.000281252 0)
(0.413246 -0.000428261 0)
(0.413414 -0.0006188 0)
(0.413636 -0.000858344 0)
(0.413926 -0.00115309 0)
(0.414299 -0.00151036 0)
(0.414772 -0.00193911 0)
(0.415364 -0.00245124 0)
(0.416095 -0.00306344 0)
(0.416986 -0.00379398 0)
(0.418066 -0.00466036 0)
(0.419376 -0.00568521 0)
(0.420968 -0.00689992 0)
(0.422899 -0.00834299 0)
(0.425252 -0.0100525 0)
(0.428092 -0.0120799 0)
(0.431613 -0.0144109 0)
(0.435718 -0.0172796 0)
(0.441358 -0.0197527 0)
(0.412465 -2.38121e-05 0)
(0.412487 -4.79548e-05 0)
(0.412529 -5.63146e-05 0)
(0.41258 -5.65231e-05 0)
(0.412633 -5.0859e-05 0)
(0.412684 -4.32493e-05 0)
(0.412734 -4.25578e-05 0)
(0.412783 -5.44883e-05 0)
(0.412836 -8.28393e-05 0)
(0.412893 -0.000135159 0)
(0.412961 -0.000220231 0)
(0.413046 -0.000345779 0)
(0.413158 -0.000518046 0)
(0.413307 -0.000742863 0)
(0.413505 -0.00102621 0)
(0.413763 -0.00137472 0)
(0.414094 -0.00179644 0)
(0.414513 -0.00230171 0)
(0.415036 -0.00290422 0)
(0.41568 -0.00362182 0)
(0.416466 -0.0044755 0)
(0.417421 -0.00548916 0)
(0.418578 -0.00669332 0)
(0.419985 -0.00812776 0)
(0.421697 -0.00984084 0)
(0.423794 -0.0118836 0)
(0.426342 -0.0143222 0)
(0.429554 -0.0171697 0)
(0.433305 -0.0206514 0)
(0.43871 -0.023996 0)
(0.412464 -3.35596e-05 0)
(0.412483 -7.19768e-05 0)
(0.412519 -8.8122e-05 0)
(0.412563 -9.12527e-05 0)
(0.412609 -8.66756e-05 0)
(0.412654 -7.9864e-05 0)
(0.412698 -7.94671e-05 0)
(0.412742 -9.25811e-05 0)
(0.412788 -0.000124328 0)
(0.412838 -0.000183086 0)
(0.412896 -0.000279127 0)
(0.41297 -0.000421119 0)
(0.413066 -0.00061615 0)
(0.413195 -0.000870808 0)
(0.413365 -0.00119178 0)
(0.413586 -0.00158647 0)
(0.413869 -0.00206382 0)
(0.414227 -0.00263521 0)
(0.414671 -0.00331545 0)
(0.415217 -0.00412376 0)
(0.415882 -0.00508416 0)
(0.416689 -0.00622613 0)
(0.417666 -0.00758702 0)
(0.418854 -0.00921429 0)
(0.420303 -0.0111665 0)
(0.42209 -0.0135095 0)
(0.424275 -0.0163271 0)
(0.427087 -0.0196662 0)
(0.430378 -0.0237448 0)
(0.435412 -0.0279925 0)
(0.412464 -4.19773e-05 0)
(0.41248 -9.25195e-05 0)
(0.41251 -0.000115581 0)
(0.412548 -0.000122077 0)
(0.412589 -0.000118342 0)
(0.412628 -0.000110757 0)
(0.412666 -0.000109785 0)
(0.412704 -0.000123424 0)
(0.412744 -0.000156681 0)
(0.412786 -0.000218733 0)
(0.412835 -0.000321788 0)
(0.412895 -0.000476117 0)
(0.412974 -0.000689488 0)
(0.413079 -0.000968782 0)
(0.413219 -0.001321 0)
(0.4134 -0.00175392 0)
(0.41363 -0.00227693 0)
(0.41392 -0.00290204 0)
(0.414279 -0.00364499 0)
(0.414717 -0.00452643 0)
(0.415248 -0.00557289 0)
(0.415888 -0.00681816 0)
(0.416661 -0.00830559 0)
(0.4176 -0.0100905 0)
(0.418743 -0.0122424 0)
(0.420165 -0.0148433 0)
(0.421915 -0.0179966 0)
(0.424228 -0.0217891 0)
(0.426937 -0.0264359 0)
(0.431423 -0.0316053 0)
(0.412463 -4.90069e-05 0)
(0.412477 -0.000109996 0)
(0.412503 -0.000139273 0)
(0.412535 -0.000148689 0)
(0.41257 -0.000145596 0)
(0.412604 -0.00013738 0)
(0.412636 -0.000135963 0)
(0.412668 -0.000150219 0)
(0.412701 -0.000184492 0)
(0.412735 -0.000249079 0)
(0.412773 -0.000358193 0)
(0.412819 -0.000523044 0)
(0.412881 -0.000751587 0)
(0.412962 -0.00105082 0)
(0.413069 -0.00142795 0)
(0.413207 -0.00189095 0)
(0.413382 -0.00244943 0)
(0.4136 -0.0031157 0)
(0.413867 -0.00390605 0)
(0.41419 -0.00484205 0)
(0.414576 -0.00595211 0)
(0.415036 -0.00727325 0)
(0.415585 -0.00885374 0)
(0.416246 -0.010756 0)
(0.417048 -0.0130597 0)
(0.418052 -0.0158631 0)
(0.419294 -0.0192908 0)
(0.421006 -0.0234735 0)
(0.423001 -0.0286284 0)
(0.426721 -0.034701 0)
(0.412463 -5.50472e-05 0)
(0.412474 -0.000124947 0)
(0.412496 -0.000159201 0)
(0.412523 -0.000171218 0)
(0.412552 -0.000168885 0)
(0.412581 -0.000159807 0)
(0.412607 -0.000157674 0)
(0.412633 -0.000172174 0)
(0.412659 -0.000206681 0)
(0.412685 -0.000272345 0)
(0.412713 -0.000385119 0)
(0.412746 -0.000557048 0)
(0.412788 -0.000796229 0)
(0.412845 -0.00110963 0)
(0.412918 -0.00150437 0)
(0.413012 -0.00198834 0)
(0.41313 -0.00257098 0)
(0.413274 -0.00326449 0)
(0.413447 -0.00408513 0)
(0.413649 -0.00505481 0)
(0.413884 -0.00620286 0)
(0.414155 -0.00756832 0)
(0.414466 -0.00920292 0)
(0.414829 -0.0111746 0)
(0.415259 -0.0135723 0)
(0.415799 -0.0165089 0)
(0.416468 -0.02013 0)
(0.417474 -0.024612 0)
(0.418618 -0.0301788 0)
(0.421318 -0.0370804 0)
(0.412462 -5.9984e-05 0)
(0.412472 -0.000137626 0)
(0.41249 -0.000175801 0)
(0.412512 -0.00018975 0)
(0.412536 -0.000188458 0)
(0.412559 -0.000177926 0)
(0.41258 -0.000174909 0)
(0.4126 -0.000189473 0)
(0.41262 -0.000223387 0)
(0.412638 -0.000288735 0)
(0.412655 -0.00040316 0)
(0.412675 -0.000579295 0)
(0.412699 -0.000825088 0)
(0.412731 -0.00114722 0)
(0.412771 -0.00155254 0)
(0.412821 -0.00204856 0)
(0.412881 -0.0026442 0)
(0.412951 -0.00335105 0)
(0.413028 -0.00418478 0)
(0.41311 -0.0051668 0)
(0.413191 -0.0063263 0)
(0.413267 -0.00770284 0)
(0.413333 -0.00934979 0)
(0.413385 -0.0113385 0)
(0.413423 -0.0137641 0)
(0.413465 -0.0167515 0)
(0.413507 -0.0204645 0)
(0.413712 -0.0251228 0)
(0.413875 -0.0309589 0)
(0.415278 -0.0385369 0)
(0.412462 -6.39554e-05 0)
(0.412469 -0.000147922 0)
(0.412484 -0.000189279 0)
(0.412502 -0.00020475 0)
(0.41252 -0.000204181 0)
(0.412538 -0.000192346 0)
(0.412555 -0.0001884 0)
(0.412569 -0.000202196 0)
(0.412582 -0.000234562 0)
(0.412593 -0.000298471 0)
(0.412601 -0.000412631 0)
(0.412607 -0.000589961 0)
(0.412614 -0.000838156 0)
(0.412622 -0.00116346 0)
(0.41263 -0.00157219 0)
(0.412638 -0.00207117 0)
(0.412642 -0.00266847 0)
(0.41264 -0.00337456 0)
(0.412624 -0.00420381 0)
(0.412586 -0.00517626 0)
(0.412516 -0.0063197 0)
(0.4124 -0.00767249 0)
(0.412221 -0.00928733 0)
(0.411961 -0.011236 0)
(0.411598 -0.0136161 0)
(0.411124 -0.0165596 0)
(0.410503 -0.0202429 0)
(0.409833 -0.0249207 0)
(0.408907 -0.0308337 0)
(0.408743 -0.038839 0)
(0.412461 -6.70422e-05 0)
(0.412467 -0.000155961 0)
(0.412478 -0.000200167 0)
(0.412492 -0.000216012 0)
(0.412505 -0.000216214 0)
(0.412519 -0.000203373 0)
(0.412531 -0.000198017 0)
(0.412541 -0.000210512 0)
(0.412547 -0.000240864 0)
(0.412551 -0.000302252 0)
(0.41255 -0.000414199 0)
(0.412545 -0.000589811 0)
(0.412536 -0.000836362 0)
(0.412522 -0.00115949 0)
(0.4125 -0.00156477 0)
(0.412468 -0.00205805 0)
(0.412419 -0.00264613 0)
(0.412348 -0.00333789 0)
(0.412244 -0.00414573 0)
(0.412094 -0.00508732 0)
(0.41188 -0.00618772 0)
(0.41158 -0.00748221 0)
(0.411165 -0.00902018 0)
(0.410602 -0.0108702 0)
(0.409847 -0.0131276 0)
(0.408858 -0.0159242 0)
(0.407566 -0.0194402 0)
(0.405982 -0.0239513 0)
(0.403901 -0.0296995 0)
(0.401946 -0.037778 0)
(0.412461 -6.92217e-05 0)
(0.412465 -0.000162054 0)
(0.412473 -0.000208021 0)
(0.412482 -0.000224233 0)
(0.412491 -0.000224662 0)
(0.412501 -0.000212103 0)
(0.412509 -0.000204101 0)
(0.412514 -0.000214475 0)
(0.412516 -0.000242492 0)
(0.412513 -0.000300633 0)
(0.412505 -0.000408757 0)
(0.41249 -0.000579992 0)
(0.412467 -0.000821097 0)
(0.412432 -0.001137 0)
(0.412384 -0.00153235 0)
(0.412315 -0.00201178 0)
(0.412218 -0.00258046 0)
(0.412085 -0.00324519 0)
(0.4119 -0.00401574 0)
(0.411647 -0.00490646 0)
(0.411301 -0.00593831 0)
(0.410833 -0.00714152 0)
(0.410202 -0.00855938 0)
(0.409358 -0.0102532 0)
(0.408237 -0.0123101 0)
(0.406761 -0.0148536 0)
(0.404824 -0.0180556 0)
(0.402336 -0.0221925 0)
(0.399096 -0.0274957 0)
(0.39522 -0.0351954 0)
(0.41246 -7.05617e-05 0)
(0.412463 -0.000165912 0)
(0.412467 -0.000213509 0)
(0.412473 -0.000229312 0)
(0.412479 -0.000230221 0)
(0.412484 -0.000217825 0)
(0.412489 -0.000207136 0)
(0.41249 -0.000215539 0)
(0.412488 -0.000240526 0)
(0.41248 -0.000294284 0)
(0.412466 -0.000397139 0)
(0.412442 -0.000561718 0)
(0.412407 -0.000793994 0)
(0.412356 -0.00109813 0)
(0.412283 -0.00147772 0)
(0.412182 -0.00193597 0)
(0.412044 -0.00247612 0)
(0.411856 -0.00310248 0)
(0.411601 -0.00382158 0)
(0.411258 -0.0046436 0)
(0.410798 -0.00558411 0)
(0.410183 -0.00666642 0)
(0.409364 -0.00792492 0)
(0.408275 -0.00940959 0)
(0.406832 -0.0111932 0)
(0.404924 -0.0133813 0)
(0.402408 -0.0161241 0)
(0.399088 -0.0196739 0)
(0.394764 -0.0242333 0)
(0.38899 -0.0310356 0)
(0.41246 -7.11095e-05 0)
(0.412461 -0.000167855 0)
(0.412462 -0.000216546 0)
(0.412465 -0.000231821 0)
(0.412467 -0.000233099 0)
(0.412469 -0.00022106 0)
(0.412471 -0.000207325 0)
(0.412469 -0.00021412 0)
(0.412463 -0.000235524 0)
(0.412452 -0.000284345 0)
(0.412433 -0.000380732 0)
(0.412403 -0.000536614 0)
(0.412358 -0.00075708 0)
(0.412293 -0.00104547 0)
(0.412201 -0.00140425 0)
(0.412074 -0.00183498 0)
(0.411901 -0.0023388 0)
(0.411668 -0.00291718 0)
(0.411355 -0.00357296 0)
(0.410938 -0.00431142 0)
(0.410385 -0.00514167 0)
(0.409651 -0.00607845 0)
(0.408681 -0.00714475 0)
(0.407396 -0.00837542 0)
(0.405695 -0.00982291 0)
(0.403437 -0.0115659 0)
(0.400448 -0.0137185 0)
(0.396434 -0.0164824 0)
(0.391194 -0.0200109 0)
(0.383739 -0.0253854 0)
(0.41246 -7.09234e-05 0)
(0.412459 -0.00016792 0)
(0.412458 -0.000217275 0)
(0.412457 -0.000232253 0)
(0.412457 -0.000233601 0)
(0.412456 -0.000222157 0)
(0.412455 -0.000205587 0)
(0.412452 -0.000210543 0)
(0.412443 -0.000228343 0)
(0.412429 -0.000271707 0)
(0.412407 -0.000360919 0)
(0.412373 -0.000506447 0)
(0.412321 -0.000712583 0)
(0.412245 -0.000981934 0)
(0.412139 -0.00131573 0)
(0.411992 -0.00171383 0)
(0.411792 -0.00217509 0)
(0.411524 -0.00269799 0)
(0.411167 -0.00328134 0)
(0.410695 -0.00392504 0)
(0.410073 -0.00463097 0)
(0.409254 -0.00540407 0)
(0.408176 -0.00625401 0)
(0.406753 -0.00719744 0)
(0.404872 -0.00826167 0)
(0.402372 -0.00949049 0)
(0.399055 -0.0109499 0)
(0.39455 -0.0127666 0)
(0.388655 -0.0150245 0)
(0.379938 -0.018502 0)
(0.412459 -7.00608e-05 0)
(0.412457 -0.000166179 0)
(0.412453 -0.000216141 0)
(0.41245 -0.000230768 0)
(0.412448 -0.000232186 0)
(0.412445 -0.000221003 0)
(0.412442 -0.000203211 0)
(0.412438 -0.000205387 0)
(0.412428 -0.000219899 0)
(0.412412 -0.000257549 0)
(0.412389 -0.000338933 0)
(0.412352 -0.000472893 0)
(0.412296 -0.000662813 0)
(0.412214 -0.000910594 0)
(0.412097 -0.00121625 0)
(0.411936 -0.00157792 0)
(0.411718 -0.00199215 0)
(0.411426 -0.00245437 0)
(0.411041 -0.00295929 0)
(0.410534 -0.00350124 0)
(0.40987 -0.00407444 0)
(0.409001 -0.00467339 0)
(0.407863 -0.00529329 0)
(0.406369 -0.00593069 0)
(0.404399 -0.00658461 0)
(0.401782 -0.00725862 0)
(0.39831 -0.00796208 0)
(0.393569 -0.00872868 0)
(0.387356 -0.00955949 0)
(0.377978 -0.0108115 0)
(0.412459 -6.85513e-05 0)
(0.412455 -0.000162949 0)
(0.41245 -0.000213324 0)
(0.412445 -0.000227843 0)
(0.41244 -0.000229222 0)
(0.412435 -0.000218222 0)
(0.412432 -0.000201895 0)
(0.412427 -0.000198392 0)
(0.412416 -0.000210133 0)
(0.412401 -0.000243043 0)
(0.412378 -0.000316407 0)
(0.412341 -0.000437812 0)
(0.412283 -0.000610173 0)
(0.412198 -0.000834626 0)
(0.412076 -0.00111001 0)
(0.411908 -0.00143279 0)
(0.41168 -0.00179734 0)
(0.411376 -0.00219615 0)
(0.410977 -0.00261995 0)
(0.410455 -0.00305761 0)
(0.409776 -0.00349579 0)
(0.408895 -0.00391852 0)
(0.407748 -0.00430635 0)
(0.406251 -0.00463524 0)
(0.404288 -0.00487493 0)
(0.40169 -0.0049868 0)
(0.398252 -0.00492067 0)
(0.393558 -0.00460883 0)
(0.387411 -0.00396039 0)
(0.378088 -0.00285957 0)
(0.412459 -6.65215e-05 0)
(0.412454 -0.000158579 0)
(0.412447 -0.00020886 0)
(0.41244 -0.00022374 0)
(0.412434 -0.00022518 0)
(0.412429 -0.000214492 0)
(0.412424 -0.000199419 0)
(0.412419 -0.000191722 0)
(0.41241 -0.000200679 0)
(0.412396 -0.000229521 0)
(0.412374 -0.000294728 0)
(0.412339 -0.000402941 0)
(0.412282 -0.000556924 0)
(0.412197 -0.000757065 0)
(0.412075 -0.00100106 0)
(0.411905 -0.00128389 0)
(0.411675 -0.00159793 0)
(0.41137 -0.00193305 0)
(0.410972 -0.00227635 0)
(0.410455 -0.00261166 0)
(0.409788 -0.00291869 0)
(0.40893 -0.00317165 0)
(0.407824 -0.00333728 0)
(0.406392 -0.00337203 0)
(0.404531 -0.00321771 0)
(0.402086 -0.00279506 0)
(0.398871 -0.00199489 0)
(0.394513 -0.000657482 0)
(0.388822 0.00139579 0)
(0.380278 0.00473856 0)
(0.412459 -6.40192e-05 0)
(0.412453 -0.000153126 0)
(0.412444 -0.000203575 0)
(0.412436 -0.000218795 0)
(0.41243 -0.000220426 0)
(0.412424 -0.000210604 0)
(0.41242 -0.000195969 0)
(0.412415 -0.000186631 0)
(0.412408 -0.00019337 0)
(0.412397 -0.000217044 0)
(0.412378 -0.000274283 0)
(0.412345 -0.000369582 0)
(0.412292 -0.000505169 0)
(0.41221 -0.00068082 0)
(0.412091 -0.000893313 0)
(0.411926 -0.0011364 0)
(0.411702 -0.00140085 0)
(0.411406 -0.00167434 0)
(0.411021 -0.00194092 0)
(0.410527 -0.00218018 0)
(0.409897 -0.00236584 0)
(0.409094 -0.00246368 0)
(0.408074 -0.00242845 0)
(0.40677 -0.00219981 0)
(0.405098 -0.0016945 0)
(0.402929 -0.000798739 0)
(0.400109 0.000644816 0)
(0.396339 0.00287762 0)
(0.391454 0.0061473 0)
(0.384338 0.0114012 0)
(0.412459 -6.12963e-05 0)
(0.412453 -0.000147164 0)
(0.412443 -0.000196867 0)
(0.412435 -0.000214003 0)
(0.412428 -0.000215553 0)
(0.412423 -0.000206548 0)
(0.412419 -0.000193001 0)
(0.412415 -0.000183137 0)
(0.412411 -0.000187719 0)
(0.412403 -0.000207089 0)
(0.412388 -0.000256434 0)
(0.41236 -0.000339051 0)
(0.412311 -0.000456588 0)
(0.412236 -0.000608171 0)
(0.412124 -0.00078983 0)
(0.411967 -0.000994431 0)
(0.411756 -0.00121159 0)
(0.411477 -0.00142736 0)
(0.411118 -0.00162354 0)
(0.410662 -0.00177656 0)
(0.410088 -0.00185555 0)
(0.409369 -0.00181979 0)
(0.408472 -0.00161489 0)
(0.407349 -0.00116634 0)
(0.405937 -0.000373808 0)
(0.404144 0.000902026 0)
(0.401858 0.0028548 0)
(0.398889 0.00578887 0)
(0.395084 0.0100044 0)
(0.389879 0.0166706 0)
(0.412459 -5.84395e-05 0)
(0.412453 -0.000141143 0)
(0.412443 -0.000190324 0)
(0.412435 -0.000208734 0)
(0.412429 -0.000210765 0)
(0.412424 -0.000203142 0)
(0.412421 -0.000190846 0)
(0.41242 -0.000181661 0)
(0.412419 -0.000183731 0)
(0.412415 -0.000200299 0)
(0.412404 -0.000242733 0)
(0.412382 -0.000313201 0)
(0.41234 -0.000413519 0)
(0.412272 -0.000542183 0)
(0.412171 -0.000694667 0)
(0.412027 -0.000863337 0)
(0.411832 -0.00103716 0)
(0.411577 -0.00120123 0)
(0.411252 -0.00133605 0)
(0.410846 -0.00141608 0)
(0.410344 -0.00140763 0)
(0.409731 -0.00126588 0)
(0.408986 -0.000930796 0)
(0.408082 -0.000318928 0)
(0.40698 0.000680061 0)
(0.405636 0.00222282 0)
(0.403984 0.0045267 0)
(0.401953 0.00792355 0)
(0.399404 0.0127453 0)
(0.396383 0.020223 0)
(0.412459 -5.57156e-05 0)
(0.412453 -0.000135811 0)
(0.412446 -0.00018407 0)
(0.412439 -0.000204151 0)
(0.412434 -0.000206399 0)
(0.41243 -0.000200664 0)
(0.412428 -0.000190034 0)
(0.412429 -0.000181623 0)
(0.412431 -0.000181893 0)
(0.412431 -0.000196408 0)
(0.412426 -0.000231241 0)
(0.41241 -0.000290187 0)
(0.412376 -0.000374023 0)
(0.412318 -0.00048071 0)
(0.412228 -0.000605472 0)
(0.412099 -0.000740624 0)
(0.411925 -0.000875047 0)
(0.411698 -0.000993653 0)
(0.411414 -0.0010767 0)
(0.411064 -0.00109819 0)
(0.410645 -0.00102345 0)
(0.410149 -0.000806256 0)
(0.409573 -0.000383012 0)
(0.40891 0.000328361 0)
(0.408151 0.00144551 0)
(0.407295 0.00313123 0)
(0.406326 0.00560751 0)
(0.405294 0.00920599 0)
(0.404073 0.0142702 0)
(0.403294 0.0219401 0)
(0.412459 -5.35639e-05 0)
(0.412455 -0.000132137 0)
(0.412451 -0.000179135 0)
(0.412447 -0.000200019 0)
(0.412443 -0.000202853 0)
(0.412441 -0.000199323 0)
(0.41244 -0.000191803 0)
(0.412444 -0.000185892 0)
(0.41245 -0.000186847 0)
(0.412454 -0.000199656 0)
(0.412455 -0.000229308 0)
(0.412445 -0.000278688 0)
(0.412419 -0.000348103 0)
(0.412371 -0.000435226 0)
(0.412294 -0.000535403 0)
(0.412182 -0.000641405 0)
(0.41203 -0.00074256 0)
(0.411835 -0.000824207 0)
(0.411592 -0.00086742 0)
(0.411304 -0.00084713 0)
(0.41097 -0.000729679 0)
(0.410598 -0.000470884 0)
(0.410195 -8.32594e-06 0)
(0.409777 0.000738076 0)
(0.409366 0.00188294 0)
(0.409003 0.00358259 0)
(0.408719 0.00604991 0)
(0.408673 0.00959127 0)
(0.408751 0.0145463 0)
(0.410086 0.021836 0)
(0.41246 -5.27442e-05 0)
(0.41246 -0.000132076 0)
(0.412461 -0.00017732 0)
(0.412462 -0.000195606 0)
(0.412459 -0.000199102 0)
(0.412457 -0.000195652 0)
(0.412458 -0.000189078 0)
(0.412464 -0.000183912 0)
(0.412473 -0.000185052 0)
(0.412483 -0.000194843 0)
(0.412488 -0.000218657 0)
(0.412485 -0.000258098 0)
(0.412468 -0.000313284 0)
(0.41243 -0.000381357 0)
(0.412366 -0.000458055 0)
(0.41227 -0.000537009 0)
(0.412141 -0.000608483 0)
(0.411975 -0.000659162 0)
(0.411775 -0.000672356 0)
(0.411546 -0.000625262 0)
(0.411296 -0.000486958 0)
(0.411041 -0.000215689 0)
(0.410806 0.000240421 0)
(0.410624 0.000959132 0)
(0.410544 0.00204346 0)
(0.410646 0.00363456 0)
(0.411003 0.00592335 0)
(0.411863 0.00916861 0)
(0.413132 0.0136934 0)
(0.416314 0.020112 0)
(0.412462 -5.44668e-05 0)
(0.412469 -0.000136643 0)
(0.412482 -0.000182544 0)
(0.412488 -0.000202271 0)
(0.412488 -0.000207099 0)
(0.412486 -0.000208191 0)
(0.412489 -0.000207146 0)
(0.412498 -0.000206416 0)
(0.412509 -0.000208854 0)
(0.412523 -0.000219314 0)
(0.412533 -0.000240231 0)
(0.412536 -0.000272814 0)
(0.412527 -0.000316646 0)
(0.4125 -0.00036853 0)
(0.412448 -0.000425178 0)
(0.412369 -0.000482585 0)
(0.41226 -0.000531566 0)
(0.412123 -0.000560217 0)
(0.411961 -0.000554581 0)
(0.411785 -0.000496329 0)
(0.411612 -0.000359136 0)
(0.411464 -0.000109067 0)
(0.411377 0.000300263 0)
(0.411405 0.000932865 0)
(0.411619 0.00187497 0)
(0.41213 0.00324955 0)
(0.413046 0.00521759 0)
(0.414678 0.00797061 0)
(0.416959 0.011804 0)
(0.421643 0.0169657 0)
(0.412465 -6.50815e-05 0)
(0.412486 -0.000139692 0)
(0.412512 -0.000167089 0)
(0.412523 -0.000176874 0)
(0.412523 -0.000180781 0)
(0.412524 -0.000182237 0)
(0.41253 -0.000182979 0)
(0.412541 -0.000185516 0)
(0.412555 -0.000191629 0)
(0.412571 -0.000201747 0)
(0.412586 -0.000216674 0)
(0.412599 -0.000241494 0)
(0.412593 -0.000273721 0)
(0.412571 -0.000310062 0)
(0.412531 -0.00034765 0)
(0.412468 -0.000382539 0)
(0.412379 -0.000411569 0)
(0.412266 -0.000421125 0)
(0.412138 -0.000405505 0)
(0.412008 -0.000345804 0)
(0.411898 -0.000223623 0)
(0.411841 -1.52214e-05 0)
(0.411882 0.000312844 0)
(0.412086 0.000810877 0)
(0.412546 0.00153753 0)
(0.413401 0.00259454 0)
(0.414775 0.00411381 0)
(0.417015 0.00621854 0)
(0.420087 0.00913475 0)
(0.425879 0.0127676 0)
(0.412476 -0.000101707 0)
(0.412541 -0.000229193 0)
(0.412601 -0.000232053 0)
(0.412609 -0.000233657 0)
(0.412611 -0.000236268 0)
(0.412617 -0.000237361 0)
(0.412626 -0.000237877 0)
(0.412634 -0.000239348 0)
(0.412639 -0.000244764 0)
(0.412639 -0.000255184 0)
(0.412631 -0.0002705 0)
(0.412613 -0.000289072 0)
(0.412583 -0.000309904 0)
(0.412537 -0.000332954 0)
(0.412474 -0.000359253 0)
(0.412393 -0.000384562 0)
(0.412299 -0.000394093 0)
(0.412196 -0.000392532 0)
(0.412097 -0.000375858 0)
(0.412018 -0.000337844 0)
(0.411985 -0.000254156 0)
(0.412028 -0.000109332 0)
(0.412201 0.000116767 0)
(0.412557 0.000453453 0)
(0.413205 0.000944482 0)
(0.414153 0.00165124 0)
(0.415841 0.00264687 0)
(0.418468 0.00400595 0)
(0.422187 0.00592467 0)
(0.428194 0.0078528 0)
(0.412276 -6.94466e-05 0)
(0.412141 -0.000132694 0)
(0.411908 -0.000156077 0)
(0.411625 -0.000165115 0)
(0.411336 -0.000171123 0)
(0.411054 -0.00017526 0)
(0.410772 -0.000178074 0)
(0.410489 -0.000180491 0)
(0.410202 -0.000183 0)
(0.409909 -0.000186008 0)
(0.409605 -0.000190262 0)
(0.409287 -0.000196763 0)
(0.40895 -0.000205907 0)
(0.408591 -0.000217088 0)
(0.408208 -0.000228469 0)
(0.4078 -0.000238808 0)
(0.407372 -0.00024861 0)
(0.406935 -0.000254639 0)
(0.406501 -0.000252306 0)
(0.406091 -0.000236771 0)
(0.405737 -0.000200518 0)
(0.405484 -0.000158657 0)
(0.4054 -8.07159e-05 0)
(0.40558 5.47643e-05 0)
(0.406162 0.000258656 0)
(0.407313 0.00052254 0)
(0.409242 0.000885499 0)
(0.412243 0.00136312 0)
(0.416689 0.00212736 0)
(0.424499 0.00250071 0)
(0.446208 -0.00419027 -1.27518e-19)
(0.449307 -0.00628955 -1.28101e-19)
(0.451826 -0.00877807 -1.82332e-18)
(0.453669 -0.0114921 -5.26943e-19)
(0.455161 -0.0143966 5.35417e-19)
(0.456452 -0.0174875 0)
(0.457571 -0.0207798 0)
(0.458549 -0.0242958 5.5705e-19)
(0.459438 -0.0280591 -5.67329e-19)
(0.46028 -0.0320934 -1.14888e-18)
(0.461093 -0.0364247 1.17112e-18)
(0.461874 -0.0410864 0)
(0.462613 -0.0461214 -1.20655e-18)
(0.463301 -0.0515852 1.23165e-18)
(0.463931 -0.0575468 0)
(0.464496 -0.0640915 2.53673e-18)
(0.464992 -0.0713241 1.29359e-18)
(0.465407 -0.0793737 1.30376e-18)
(0.465728 -0.088401 1.34035e-18)
(0.465931 -0.0986077 1.34683e-18)
(0.465979 -0.110251 -1.38724e-18)
(0.465825 -0.123661 4.23195e-18)
(0.465385 -0.139272 0)
(0.464575 -0.157639 -2.88511e-18)
(0.463124 -0.179578 1.461e-18)
(0.461043 -0.205951 -2.96084e-18)
(0.457113 -0.238536 -4.42084e-18)
(0.452095 -0.27958 0)
(0.4432 -0.324289 0)
(0.425409 -0.417687 -6.32568e-19)
(0.449743 -0.00916403 -2.08058e-18)
(0.451381 -0.0113824 0)
(0.452584 -0.0140314 0)
(0.45342 -0.0168823 -2.16422e-18)
(0.45415 -0.019891 2.19654e-18)
(0.454855 -0.0230792 2.23022e-18)
(0.455528 -0.0264762 -5.64153e-19)
(0.456178 -0.0301023 5.7472e-19)
(0.456807 -0.033974 1.75858e-18)
(0.457409 -0.0381121 2.97584e-18)
(0.457964 -0.0425458 -1.20578e-18)
(0.458451 -0.0473149 2.4717e-18)
(0.458852 -0.0524693 1.25334e-18)
(0.459157 -0.0580696 1.29012e-18)
(0.459355 -0.0641879 1.30204e-18)
(0.459436 -0.0709106 2.66827e-18)
(0.45938 -0.0783417 0)
(0.459162 -0.086609 -1.37858e-18)
(0.458743 -0.0958705 -1.43065e-18)
(0.458075 -0.106324 0)
(0.457087 -0.118217 1.46751e-18)
(0.455687 -0.131868 1.53383e-18)
(0.453735 -0.147685 -3.1124e-18)
(0.451065 -0.166182 0)
(0.447311 -0.18811 1.58782e-18)
(0.44235 -0.214201 1.68437e-18)
(0.434684 -0.246225 -3.38809e-18)
(0.425526 -0.284921 1.63142e-18)
(0.40979 -0.330262 -1.71038e-18)
(0.387054 -0.412742 7.84863e-19)
(0.448446 -0.0138083 2.11965e-18)
(0.449341 -0.0160081 0)
(0.450045 -0.0186587 -2.7243e-19)
(0.450695 -0.0215373 4.71022e-18)
(0.45134 -0.024589 -1.68379e-18)
(0.451971 -0.0278234 -3.4244e-18)
(0.452558 -0.0312593 2.9144e-18)
(0.453081 -0.0349141 -5.90507e-19)
(0.453524 -0.0388084 -1.79652e-18)
(0.453874 -0.0429713 -5.92545e-19)
(0.454121 -0.0474407 6.24795e-19)
(0.454255 -0.0522616 -3.80645e-18)
(0.454267 -0.0574854 2.59677e-18)
(0.454146 -0.0631707 -3.96422e-18)
(0.453877 -0.0693868 0)
(0.453435 -0.076217 -2.75103e-18)
(0.452785 -0.0837631 0)
(0.451883 -0.0921499 0)
(0.450673 -0.101531 2.9439e-18)
(0.449079 -0.112096 0)
(0.447001 -0.124083 0)
(0.444307 -0.137788 -3.16773e-18)
(0.440806 -0.153592 3.24954e-18)
(0.43626 -0.171965 0)
(0.430228 -0.19358 0)
(0.422449 -0.219079 -3.51187e-18)
(0.411287 -0.250077 1.64559e-18)
(0.398096 -0.286546 -9.79476e-19)
(0.375774 -0.331536 -9.85767e-19)
(0.348751 -0.403374 0)
(0.446886 -0.0187077 -6.77282e-20)
(0.447489 -0.0209845 -6.86824e-20)
(0.44794 -0.0236757 2.106e-18)
(0.448427 -0.0265744 -4.55168e-18)
(0.448895 -0.0296336 2.8946e-19)
(0.449281 -0.0328696 5.87946e-19)
(0.449566 -0.036309 -5.81157e-19)
(0.449754 -0.0399759 0)
(0.449841 -0.0438964 3.12048e-18)
(0.449821 -0.0481016 -5.7096e-18)
(0.449684 -0.052628 2.60292e-18)
(0.449416 -0.0575165 1.32106e-18)
(0.449 -0.0628141 -4.07055e-18)
(0.448412 -0.0685766 0)
(0.447622 -0.0748717 0)
(0.44659 -0.0817816 2.92123e-18)
(0.445271 -0.0894058 2.99772e-18)
(0.443604 -0.0978642 1.52477e-18)
(0.441515 -0.107303 -9.73543e-22)
(0.438904 -0.117899 -1.61328e-18)
(0.435644 -0.129873 0)
(0.431561 -0.143495 0)
(0.426419 -0.159108 -1.82791e-18)
(0.419918 -0.177129 -5.56885e-18)
(0.411555 -0.198136 0)
(0.40095 -0.222669 -2.07377e-18)
(0.386396 -0.252127 4.01437e-18)
(0.369284 -0.286053 -7.68144e-18)
(0.340801 -0.328949 1.1409e-18)
(0.310877 -0.390052 0)
(0.444643 -0.023461 0)
(0.444939 -0.0257498 2.26873e-18)
(0.445068 -0.0284245 -2.00687e-18)
(0.445287 -0.0313083 2.0413e-18)
(0.445492 -0.0343676 2.97803e-19)
(0.445585 -0.0376181 -3.03706e-19)
(0.44556 -0.0410837 -2.46524e-18)
(0.445431 -0.0447852 0)
(0.445191 -0.0487453 2.6717e-20)
(0.444825 -0.0529921 2.61921e-18)
(0.444312 -0.0575592 -3.34913e-18)
(0.443628 -0.0624861 3.46068e-18)
(0.442749 -0.0678198 3.50644e-18)
(0.441643 -0.0736161 -7.2242e-19)
(0.440272 -0.0799417 4.47281e-18)
(0.438589 -0.0868755 -2.99377e-18)
(0.436536 -0.0945111 -3.13606e-18)
(0.434039 -0.10296 -1.61198e-18)
(0.431005 -0.112356 0)
(0.427312 -0.122862 0)
(0.422805 -0.134674 0)
(0.417277 -0.148033 1.84655e-18)
(0.410455 -0.163235 5.76325e-18)
(0.401985 -0.180638 1.93293e-18)
(0.391322 -0.200718 4.18643e-18)
(0.377984 -0.223914 -2.38769e-18)
(0.360269 -0.251373 4.76128e-18)
(0.339447 -0.28239 -2.76782e-19)
(0.305641 -0.32199 4.13572e-18)
(0.273874 -0.372801 7.29143e-18)
(0.441732 -0.0280378 -2.29291e-18)
(0.441735 -0.030349 -2.31816e-18)
(0.441551 -0.0330303 -2.38151e-18)
(0.441498 -0.0359227 0)
(0.441437 -0.0389953 0)
(0.441238 -0.0422602 -2.52512e-18)
(0.440895 -0.0457375 0)
(0.440423 -0.0494474 1.98058e-18)
(0.439817 -0.0534127 -4.68887e-18)
(0.439049 -0.057662 2.75909e-18)
(0.438097 -0.0622293 2.12519e-18)
(0.436933 -0.0671538 -5.7571e-18)
(0.435528 -0.0724809 -6.67687e-22)
(0.433843 -0.0782635 -2.30209e-18)
(0.431834 -0.0845632 5.5557e-20)
(0.429443 -0.0914525 -3.18473e-18)
(0.426599 -0.0990163 -6.78601e-20)
(0.423214 -0.107356 3.46519e-18)
(0.419178 -0.11659 -1.81467e-18)
(0.41435 -0.126864 -1.8363e-18)
(0.408549 -0.138346 3.88168e-18)
(0.401544 -0.151242 0)
(0.39303 -0.165797 -4.10949e-18)
(0.382615 -0.182303 0)
(0.369726 -0.201133 -4.7218e-18)
(0.353799 -0.222618 4.80723e-18)
(0.333203 -0.247635 2.5295e-19)
(0.308983 -0.275349 5.50549e-18)
(0.270862 -0.310647 -7.51256e-18)
(0.238137 -0.351713 2.18011e-18)
(0.438099 -0.032362 2.26976e-18)
(0.437795 -0.0346862 -7.50296e-20)
(0.437279 -0.0373606 2.89637e-18)
(0.436925 -0.0402413 9.4383e-19)
(0.436564 -0.0433002 0)
(0.436038 -0.046549 2.5906e-18)
(0.435337 -0.0500074 2.00639e-18)
(0.434484 -0.0536954 -3.38977e-18)
(0.433469 -0.0576357 1.36719e-18)
(0.432262 -0.0618557 -1.3998e-18)
(0.430834 -0.066387 -2.91481e-18)
(0.429155 -0.0712658 2.99308e-18)
(0.427187 -0.0765336 -7.89303e-19)
(0.424887 -0.0822382 2.36945e-18)
(0.422198 -0.0884354 -7.74788e-19)
(0.419056 -0.09519 -8.49864e-19)
(0.415378 -0.102578 5.26863e-18)
(0.411063 -0.110687 -5.46212e-18)
(0.405988 -0.119621 3.75112e-18)
(0.399996 -0.129499 1.01483e-18)
(0.392887 -0.140464 -3.04624e-18)
(0.384411 -0.15268 2.20384e-18)
(0.37424 -0.16634 0)
(0.361957 -0.181665 -1.21279e-18)
(0.346979 -0.198925 6.31724e-18)
(0.328683 -0.218343 0)
(0.305565 -0.240521 -1.0346e-17)
(0.278372 -0.264594 1.61517e-18)
(0.237095 -0.294858 0)
(0.204087 -0.326931 -7.81058e-18)
(0.433677 -0.0362947 -1.22095e-18)