/*--------------------------------*- C++ -*----------------------------------*\
  =========                 |
  \\      /  F ield         | OpenFOAM: The Open Source CFD Toolbox
   \\    /   O peration     | Website:  https://openfoam.org
    \\  /    A nd           | Version:  11
     \\/     M anipulation  |
\*---------------------------------------------------------------------------*/
FoamFile
{
    format      ascii;
    class       surfaceScalarField;
    location    "1.3";
    object      phi;
}
// * * * * * * * * * * * * * * * * * * * * * * * * * * * * * * * * * * * * * //

dimensions      [0 3 -1 0 0 0 0];

internalField   nonuniform List<scalar> 
24840
(
1.57972e-05
1.37224e-08
1.57786e-05
1.86521e-08
1.57611e-05
1.74561e-08
1.57437e-05
1.73895e-08
1.5726e-05
1.77314e-08
1.57082e-05
1.7842e-08
1.56904e-05
1.78001e-08
1.56727e-05
1.77105e-08
1.56551e-05
1.75811e-08
1.56377e-05
1.74045e-08
1.56205e-05
1.71792e-08
1.56036e-05
1.69009e-08
1.5587e-05
1.65576e-08
1.55709e-05
1.6129e-08
1.55553e-05
1.55896e-08
1.55404e-05
1.49007e-08
1.55264e-05
1.40232e-08
1.55135e-05
1.29132e-08
1.5502e-05
1.14962e-08
1.54922e-05
9.76632e-09
1.54846e-05
7.64106e-09
1.54796e-05
5.01275e-09
1.54777e-05
1.88872e-09
1.54796e-05
-1.91223e-09
1.54862e-05
-6.59257e-09
1.54985e-05
-1.23119e-08
1.55184e-05
-1.99144e-08
1.55489e-05
-3.04799e-08
1.55985e-05
-4.96501e-08
-1.21204e-07
1.57197e-05
1.5817e-05
7.64532e-09
1.58207e-05
1.50092e-08
1.58232e-05
1.49793e-08
1.58252e-05
1.53697e-08
1.5827e-05
1.58874e-08
1.58288e-05
1.60721e-08
1.58306e-05
1.59939e-08
1.58325e-05
1.58258e-08
1.58345e-05
1.55737e-08
1.58367e-05
1.5233e-08
1.5839e-05
1.48043e-08
1.58417e-05
1.42794e-08
1.58446e-05
1.36394e-08
1.58479e-05
1.28493e-08
1.58516e-05
1.18731e-08
1.58558e-05
1.06502e-08
1.58607e-05
9.12027e-09
1.58664e-05
7.22363e-09
1.58731e-05
4.83872e-09
1.58809e-05
1.92123e-09
1.58903e-05
-1.69367e-09
1.59015e-05
-6.24806e-09
1.59153e-05
-1.18428e-08
1.59322e-05
-1.88347e-08
1.59531e-05
-2.751e-08
1.59793e-05
-3.85027e-08
1.60115e-05
-5.21747e-08
1.60529e-05
-7.18576e-08
1.60968e-05
-9.352e-08
-1.25414e-07
1.6101e-05
1.58136e-05
4.98378e-09
1.5817e-05
1.16694e-08
1.5819e-05
1.29465e-08
1.5821e-05
1.33414e-08
1.5823e-05
1.39275e-08
1.58248e-05
1.42807e-08
1.58266e-05
1.41929e-08
1.58285e-05
1.3943e-08
1.58305e-05
1.35562e-08
1.58327e-05
1.30432e-08
1.58351e-05
1.24055e-08
1.58377e-05
1.16326e-08
1.58406e-05
1.07085e-08
1.58439e-05
9.58841e-09
1.58476e-05
8.22681e-09
1.58517e-05
6.53397e-09
1.58564e-05
4.42792e-09
1.58618e-05
1.75206e-09
1.58683e-05
-1.58746e-09
1.58759e-05
-5.72311e-09
1.58851e-05
-1.0902e-08
1.58962e-05
-1.73608e-08
1.59097e-05
-2.53042e-08
1.59259e-05
-3.50631e-08
1.59454e-05
-4.70286e-08
1.59689e-05
-6.19371e-08
1.59974e-05
-8.06615e-08
1.60303e-05
-1.04791e-07
1.60721e-05
-1.35287e-07
-1.65023e-07
1.61117e-05
1.58125e-05
3.44172e-09
1.58153e-05
8.9235e-09
1.58172e-05
1.09572e-08
1.5819e-05
1.15751e-08
1.58208e-05
1.21266e-08
1.58226e-05
1.25203e-08
1.58243e-05
1.24443e-08
1.58261e-05
1.21151e-08
1.58281e-05
1.15935e-08
1.58302e-05
1.091e-08
1.58326e-05
1.00675e-08
1.58352e-05
9.0521e-09
1.5838e-05
7.8565e-09
1.58412e-05
6.42443e-09
1.58447e-05
4.67858e-09
1.58487e-05
2.51228e-09
1.58533e-05
-1.16149e-10
1.58586e-05
-3.56641e-09
1.58648e-05
-7.7976e-09
1.58722e-05
-1.30948e-08
1.5881e-05
-1.97124e-08
1.58916e-05
-2.79458e-08
1.59044e-05
-3.81212e-08
1.592e-05
-5.0661e-08
1.59391e-05
-6.61117e-08
1.59624e-05
-8.52947e-08
1.5991e-05
-1.09268e-07
1.60255e-05
-1.39218e-07
1.60682e-05
-1.77989e-07
-2.15077e-07
1.61182e-05
1.58119e-05
2.48652e-09
1.5814e-05
6.8726e-09
1.58158e-05
9.13319e-09
1.58174e-05
9.96828e-09
1.5819e-05
1.04802e-08
1.58208e-05
1.08076e-08
1.58225e-05
1.07322e-08
1.58243e-05
1.03227e-08
1.58262e-05
9.67144e-09
1.58283e-05
8.82257e-09
1.58306e-05
7.78384e-09
1.58331e-05
6.54324e-09
1.58358e-05
5.08995e-09
1.58389e-05
3.36688e-09
1.58423e-05
1.25306e-09
1.58462e-05
-1.36496e-09
1.58506e-05
-4.5662e-09
1.58558e-05
-8.67512e-09
1.58617e-05
-1.3781e-08
1.58688e-05
-2.01735e-08
1.58773e-05
-2.81523e-08
1.58874e-05
-3.80586e-08
1.58995e-05
-5.02889e-08
1.59142e-05
-6.53552e-08
1.59321e-05
-8.39644e-08
1.59539e-05
-1.07107e-07
1.59808e-05
-1.36154e-07
1.60139e-05
-1.72339e-07
1.60552e-05
-2.19274e-07
-2.67945e-07
1.61081e-05
1.58116e-05
1.85086e-09
1.58132e-05
5.32189e-09
1.58148e-05
7.4862e-09
1.58163e-05
8.44601e-09
1.58179e-05
8.92851e-09
1.58195e-05
9.17572e-09
1.58212e-05
9.05978e-09
1.58229e-05
8.57226e-09
1.58248e-05
7.79751e-09
1.58268e-05
6.79051e-09
1.58291e-05
5.56584e-09
1.58315e-05
4.11503e-09
1.58342e-05
2.40538e-09
1.58371e-05
4.06893e-10
1.58404e-05
-2.04405e-09
1.58441e-05
-5.06156e-09
1.58483e-05
-8.79587e-09
1.58532e-05
-1.35226e-08
1.58589e-05
-1.94375e-08
1.58655e-05
-2.68301e-08
1.58734e-05
-3.60483e-08
1.58828e-05
-4.75e-08
1.58942e-05
-6.16713e-08
1.59081e-05
-7.91798e-08
1.59249e-05
-1.0086e-07
1.59457e-05
-1.2782e-07
1.59711e-05
-1.61629e-07
1.60025e-05
-2.03696e-07
1.60413e-05
-2.5807e-07
-3.18316e-07
1.60917e-05
1.58114e-05
1.39244e-09
1.58126e-05
4.11501e-09
1.58141e-05
6.03708e-09
1.58155e-05
7.02182e-09
1.5817e-05
7.4766e-09
1.58185e-05
7.63688e-09
1.58201e-05
7.44782e-09
1.58218e-05
6.87637e-09
1.58236e-05
5.98281e-09
1.58256e-05
4.82541e-09
1.58277e-05
3.42712e-09
1.58301e-05
1.78428e-09
1.58326e-05
-1.66334e-10
1.58355e-05
-2.41988e-09
1.58386e-05
-5.17922e-09
1.58421e-05
-8.57169e-09
1.58461e-05
-1.27886e-08
1.58507e-05
-1.8091e-08
1.5856e-05
-2.47406e-08
1.58622e-05
-3.30501e-08
1.58695e-05
-4.3401e-08
1.58783e-05
-5.6248e-08
1.58888e-05
-7.21473e-08
1.59014e-05
-9.18116e-08
1.59167e-05
-1.16196e-07
1.59355e-05
-1.46552e-07
1.59585e-05
-1.84643e-07
1.5987e-05
-2.32207e-07
1.60224e-05
-2.93439e-07
-3.64943e-07
1.6069e-05
1.58113e-05
1.04007e-09
1.58123e-05
3.14767e-09
1.58136e-05
4.77287e-09
1.58149e-05
5.69766e-09
1.58162e-05
6.10571e-09
1.58177e-05
6.1747e-09
1.58193e-05
5.89474e-09
1.58209e-05
5.23259e-09
1.58227e-05
4.22563e-09
1.58246e-05
2.92793e-09
1.58266e-05
1.36654e-09
1.58289e-05
-4.56596e-10
1.58313e-05
-2.60451e-09
1.5834e-05
-5.10809e-09
1.58369e-05
-8.14081e-09
1.58402e-05
-1.18701e-08
1.5844e-05
-1.65115e-08
1.58482e-05
-2.23344e-08
1.58531e-05
-2.96363e-08
1.58588e-05
-3.87565e-08
1.58655e-05
-5.01044e-08
1.58734e-05
-6.41785e-08
1.58829e-05
-8.15988e-08
1.58943e-05
-1.03161e-07
1.5908e-05
-1.29925e-07
1.59247e-05
-1.63267e-07
1.59452e-05
-2.05111e-07
1.59705e-05
-2.57532e-07
1.60018e-05
-3.24747e-07
-4.06201e-07
1.60431e-05
1.58113e-05
7.56595e-10
1.58121e-05
2.3476e-09
1.58132e-05
3.66396e-09
1.58144e-05
4.46927e-09
1.58157e-05
4.80627e-09
1.58171e-05
4.78236e-09
1.58186e-05
4.40482e-09
1.58202e-05
3.64793e-09
1.58218e-05
2.53347e-09
1.58237e-05
1.10823e-09
1.58256e-05
-5.98404e-10
1.58278e-05
-2.58796e-09
1.58301e-05
-4.91009e-09
1.58326e-05
-7.63118e-09
1.58354e-05
-1.09074e-08
1.58384e-05
-1.49327e-08
1.58419e-05
-1.99431e-08
1.58457e-05
-2.62211e-08
1.58502e-05
-3.40877e-08
1.58553e-05
-4.39074e-08
1.58614e-05
-5.61146e-08
1.58684e-05
-7.12403e-08
1.58768e-05
-8.99497e-08
1.58867e-05
-1.131e-07
1.58986e-05
-1.41832e-07
1.5913e-05
-1.77633e-07
1.59304e-05
-2.22563e-07
1.59519e-05
-2.79033e-07
1.59784e-05
-3.51194e-07
-4.41285e-07
1.60135e-05
1.58112e-05
5.19697e-10
1.58119e-05
1.66631e-09
1.58129e-05
2.68009e-09
1.5814e-05
3.32926e-09
1.58152e-05
3.5726e-09
1.58166e-05
3.45335e-09
1.5818e-05
2.97668e-09
1.58195e-05
2.12412e-09
1.58211e-05
9.08627e-10
1.58229e-05
-6.31247e-10
1.58248e-05
-2.467e-09
1.58268e-05
-4.60029e-09
1.58289e-05
-7.07673e-09
1.58313e-05
-9.98112e-09
1.58338e-05
-1.34671e-08
1.58367e-05
-1.77437e-08
1.58398e-05
-2.30639e-08
1.58433e-05
-2.97247e-08
1.58473e-05
-3.80637e-08
1.58518e-05
-4.84642e-08
1.58571e-05
-6.13781e-08
1.58632e-05
-7.73592e-08
1.58704e-05
-9.71065e-08
1.58788e-05
-1.21524e-07
1.58888e-05
-1.51813e-07
1.59007e-05
-1.89542e-07
1.5915e-05
-2.36869e-07
1.59324e-05
-2.96473e-07
1.59536e-05
-3.72395e-07
-4.69325e-07
1.59817e-05
1.58112e-05
3.14046e-10
1.58118e-05
1.07179e-09
1.58127e-05
1.79481e-09
1.58137e-05
2.26708e-09
1.58149e-05
2.39871e-09
1.58162e-05
2.18109e-09
1.58175e-05
1.60693e-09
1.5819e-05
6.61401e-10
1.58205e-05
-6.47162e-10
1.58222e-05
-2.28751e-09
1.5824e-05
-4.23345e-09
1.58259e-05
-6.48705e-09
1.58279e-05
-9.09366e-09
1.583e-05
-1.21473e-08
1.58324e-05
-1.58054e-08
1.58349e-05
-2.02863e-08
1.58377e-05
-2.58561e-08
1.58408e-05
-3.28231e-08
1.58443e-05
-4.15366e-08
1.58482e-05
-5.23924e-08
1.58527e-05
-6.58548e-08
1.58578e-05
-8.24913e-08
1.58637e-05
-1.03019e-07
1.58706e-05
-1.28366e-07
1.58785e-05
-1.59765e-07
1.58878e-05
-1.98833e-07
1.58987e-05
-2.47783e-07
1.59118e-05
-3.09498e-07
1.59272e-05
-3.8786e-07
-4.89679e-07
1.59476e-05
1.58112e-05
1.28751e-10
1.58117e-05
5.41748e-10
1.58125e-05
9.85957e-10
1.58135e-05
1.27042e-09
1.58146e-05
1.27759e-09
1.58158e-05
9.59376e-10
1.58171e-05
2.91716e-10
1.58185e-05
-7.40804e-10
1.582e-05
-2.13258e-09
1.58216e-05
-3.85805e-09
1.58233e-05
-5.89418e-09
1.5825e-05
-8.24406e-09
1.58269e-05
-1.09539e-08
1.58289e-05
-1.41231e-08
1.5831e-05
-1.79136e-08
1.58332e-05
-2.25499e-08
1.58357e-05
-2.83067e-08
1.58384e-05
-3.55007e-08
1.58413e-05
-4.4488e-08
1.58446e-05
-5.56712e-08
1.58483e-05
-6.95197e-08
1.58524e-05
-8.6605e-08
1.5857e-05
-1.07649e-07
1.58622e-05
-1.33585e-07
1.58681e-05
-1.6565e-07
1.58747e-05
-2.05471e-07
1.58822e-05
-2.5526e-07
1.58907e-05
-3.18005e-07
1.59002e-05
-3.97385e-07
-5.01825e-07
1.59124e-05
1.58111e-05
-4.1701e-11
1.58116e-05
5.70384e-11
1.58124e-05
2.34737e-10
1.58133e-05
3.26745e-10
1.58144e-05
2.01416e-10
1.58156e-05
-2.18203e-10
1.58168e-05
-9.73684e-10
1.58182e-05
-2.08438e-09
1.58196e-05
-3.54712e-09
1.58211e-05
-5.34096e-09
1.58226e-05
-7.44641e-09
1.58243e-05
-9.86799e-09
1.5826e-05
-1.26528e-08
1.58277e-05
-1.59032e-08
1.58296e-05
-1.97849e-08
1.58316e-05
-2.4526e-08
1.58337e-05
-3.04062e-08
1.58359e-05
-3.77465e-08
1.58383e-05
-4.69055e-08
1.5841e-05
-5.82861e-08
1.58438e-05
-7.23554e-08
1.58469e-05
-8.96796e-08
1.58502e-05
-1.10971e-07
1.58538e-05
-1.37151e-07
1.58575e-05
-1.69431e-07
1.58615e-05
-2.09409e-07
1.58655e-05
-2.59238e-07
1.58694e-05
-3.21912e-07
1.58728e-05
-4.00842e-07
-5.05486e-07
1.58765e-05
1.58111e-05
-2.00057e-10
1.58116e-05
-3.97648e-10
1.58123e-05
-4.75905e-10
1.58132e-05
-5.77115e-10
1.58142e-05
-8.38007e-10
1.58154e-05
-1.35713e-09
1.58166e-05
-2.19308e-09
1.58179e-05
-3.3716e-09
1.58192e-05
-4.89183e-09
1.58206e-05
-6.7364e-09
1.58221e-05
-8.88936e-09
1.58236e-05
-1.13571e-08
1.58251e-05
-1.41875e-08
1.58267e-05
-1.74845e-08
1.58283e-05
-2.14156e-08
1.583e-05
-2.62102e-08
1.58317e-05
-3.21494e-08
1.58335e-05
-3.95545e-08
1.58354e-05
-4.87822e-08
1.58374e-05
-6.02307e-08
1.58394e-05
-7.43587e-08
1.58414e-05
-9.17177e-08
1.58434e-05
-1.12998e-07
1.58454e-05
-1.39086e-07
1.58471e-05
-1.71145e-07
1.58484e-05
-2.107e-07
1.58489e-05
-2.59787e-07
1.58483e-05
-3.2129e-07
1.58457e-05
-3.98293e-07
-5.00629e-07
1.58409e-05
1.58111e-05
-3.49663e-10
1.58116e-05
-8.33663e-10
1.58122e-05
-1.16141e-09
1.58131e-05
-1.45403e-09
1.58141e-05
-1.84885e-09
1.58152e-05
-2.46268e-09
1.58164e-05
-3.37104e-09
1.58176e-05
-4.60637e-09
1.58189e-05
-6.16947e-09
1.58202e-05
-8.04587e-09
1.58216e-05
-1.02234e-08
1.58229e-05
-1.27109e-08
1.58243e-05
-1.55569e-08
1.58257e-05
-1.88655e-08
1.58271e-05
-2.2804e-08
1.58284e-05
-2.76007e-08
1.58298e-05
-3.35349e-08
1.58312e-05
-4.09246e-08
1.58325e-05
-5.01203e-08
1.58338e-05
-6.15102e-08
1.5835e-05
-7.55371e-08
1.5836e-05
-9.27294e-08
1.58368e-05
-1.13744e-07
1.58371e-05
-1.39419e-07
1.58368e-05
-1.70842e-07
1.58355e-05
-2.09428e-07
1.58328e-05
-2.57038e-07
1.58278e-05
-3.16332e-07
1.58195e-05
-3.89994e-07
-4.87525e-07
1.58064e-05
1.58111e-05
-4.94822e-10
1.58115e-05
-1.26133e-09
1.58122e-05
-1.83481e-09
1.58131e-05
-2.31523e-09
1.58141e-05
-2.83972e-09
1.58151e-05
-3.54233e-09
1.58163e-05
-4.51433e-09
1.58175e-05
-5.79385e-09
1.58187e-05
-7.38309e-09
1.58199e-05
-9.27096e-09
1.58211e-05
-1.14496e-08
1.58224e-05
-1.39302e-08
1.58236e-05
-1.67616e-08
1.58247e-05
-2.00468e-08
1.58259e-05
-2.3951e-08
1.5827e-05
-2.86992e-08
1.5828e-05
-3.45659e-08
1.5829e-05
-4.18619e-08
1.58298e-05
-5.09276e-08
1.58304e-05
-6.21358e-08
1.58308e-05
-7.59078e-08
1.58308e-05
-9.27421e-08
1.58303e-05
-1.13253e-07
1.58291e-05
-1.38216e-07
1.58269e-05
-1.6862e-07
1.58232e-05
-2.05736e-07
1.58173e-05
-2.512e-07
1.58083e-05
-3.07338e-07
1.57947e-05
-3.76374e-07
-4.66783e-07
1.5774e-05
1.58111e-05
-6.39828e-10
1.58115e-05
-1.69081e-09
1.58122e-05
-2.50939e-09
1.58131e-05
-3.17301e-09
1.58141e-05
-3.82048e-09
1.58151e-05
-4.604e-09
1.58162e-05
-5.62926e-09
1.58174e-05
-6.9386e-09
1.58185e-05
-8.53591e-09
1.58197e-05
-1.04142e-08
1.58208e-05
-1.25702e-08
1.58219e-05
-1.50173e-08
1.58229e-05
-1.78039e-08
1.58239e-05
-2.10311e-08
1.58248e-05
-2.48603e-08
1.58256e-05
-2.95109e-08
1.58263e-05
-3.52494e-08
1.58268e-05
-4.23762e-08
1.58271e-05
-5.12175e-08
1.58271e-05
-6.21267e-08
1.58267e-05
-7.54988e-08
1.58258e-05
-9.17963e-08
1.58241e-05
-1.11583e-07
1.58214e-05
-1.3556e-07
1.58174e-05
-1.64604e-07
1.58115e-05
-1.99811e-07
1.58028e-05
-2.42552e-07
1.57902e-05
-2.94732e-07
1.57719e-05
-3.58054e-07
-4.39349e-07
1.57445e-05
1.58111e-05
-7.89023e-10
1.58116e-05
-2.13378e-09
1.58122e-05
-3.20039e-09
1.58131e-05
-4.04096e-09
1.58141e-05
-4.80084e-09
1.58151e-05
-5.65474e-09
1.58162e-05
-6.72162e-09
1.58173e-05
-8.04551e-09
1.58184e-05
-9.63191e-09
1.58195e-05
-1.14792e-08
1.58205e-05
-1.35888e-08
1.58215e-05
-1.59759e-08
1.58224e-05
-1.86882e-08
1.58232e-05
-2.18237e-08
1.58238e-05
-2.55384e-08
1.58244e-05
-3.00438e-08
1.58247e-05
-3.55958e-08
1.58248e-05
-4.24816e-08
1.58246e-05
-5.10094e-08
1.5824e-05
-6.15091e-08
1.58228e-05
-7.43451e-08
1.5821e-05
-8.994e-08
1.58182e-05
-1.08803e-07
1.58142e-05
-1.31555e-07
1.58085e-05
-1.58948e-07
1.58006e-05
-1.91888e-07
1.57895e-05
-2.31446e-07
1.57738e-05
-2.79041e-07
1.57516e-05
-3.35819e-07
-4.06467e-07
1.57187e-05
1.58111e-05
-9.47643e-10
1.58116e-05
-2.60457e-09
1.58123e-05
-3.92494e-09
1.58132e-05
-4.93269e-09
1.58142e-05
-5.79003e-09
1.58152e-05
-6.70193e-09
1.58163e-05
-7.79799e-09
1.58174e-05
-9.11998e-09
1.58184e-05
-1.06755e-08
1.58194e-05
-1.24699e-08
1.58204e-05
-1.45097e-08
1.58212e-05
-1.68111e-08
1.58219e-05
-1.94203e-08
1.58225e-05
-2.24315e-08
1.5823e-05
-2.5994e-08
1.58233e-05
-3.03091e-08
1.58233e-05
-3.56193e-08
1.5823e-05
-4.21954e-08
1.58223e-05
-5.03253e-08
1.58211e-05
-6.03135e-08
1.58193e-05
-7.24914e-08
1.58166e-05
-8.72383e-08
1.58128e-05
-1.05004e-07
1.58075e-05
-1.26325e-07
1.58004e-05
-1.51826e-07
1.57907e-05
-1.82213e-07
1.57775e-05
-2.18254e-07
1.57593e-05
-2.60842e-07
1.57341e-05
-3.10555e-07
-3.69633e-07
1.56972e-05
1.58111e-05
-1.12252e-09
1.58117e-05
-3.12131e-09
1.58124e-05
-4.70294e-09
1.58134e-05
-5.86219e-09
1.58144e-05
-6.79722e-09
1.58154e-05
-7.75338e-09
1.58165e-05
-8.86525e-09
1.58175e-05
-1.01675e-08
1.58185e-05
-1.16714e-08
1.58195e-05
-1.33914e-08
1.58203e-05
-1.53384e-08
1.5821e-05
-1.75289e-08
1.58216e-05
-2.00074e-08
1.5822e-05
-2.28633e-08
1.58223e-05
-2.62378e-08
1.58223e-05
-3.03199e-08
1.5822e-05
-3.5337e-08
1.58213e-05
-4.15405e-08
1.58202e-05
-4.91953e-08
1.58185e-05
-5.85776e-08
1.5816e-05
-6.99837e-08
1.58125e-05
-8.37487e-08
1.58077e-05
-1.00265e-07
1.58014e-05
-1.19986e-07
1.5793e-05
-1.43412e-07
1.57818e-05
-1.71055e-07
1.5767e-05
-2.03383e-07
1.57469e-05
-2.40765e-07
1.57196e-05
-2.83231e-07
-3.30452e-07
1.56804e-05
1.58112e-05
-1.3231e-09
1.58118e-05
-3.70846e-09
1.58126e-05
-5.55827e-09
1.58136e-05
-6.84333e-09
1.58146e-05
-7.83108e-09
1.58157e-05
-8.81745e-09
1.58168e-05
-9.93055e-09
1.58178e-05
-1.11933e-08
1.58187e-05
-1.26245e-08
1.58196e-05
-1.42488e-08
1.58203e-05
-1.60809e-08
1.58209e-05
-1.81366e-08
1.58214e-05
-2.04582e-08
1.58217e-05
-2.31299e-08
1.58217e-05
-2.62831e-08
1.58215e-05
-3.00927e-08
1.58209e-05
-3.47683e-08
1.58199e-05
-4.05407e-08
1.58184e-05
-4.76503e-08
1.58161e-05
-5.63437e-08
1.5813e-05
-6.68809e-08
1.58088e-05
-7.95513e-08
1.58033e-05
-9.46918e-08
1.5796e-05
-1.12681e-07
1.57864e-05
-1.33907e-07
1.57741e-05
-1.58702e-07
1.5758e-05
-1.87256e-07
1.57366e-05
-2.19437e-07
1.57082e-05
-2.54792e-07
-2.90628e-07
1.56684e-05
1.58112e-05
-1.56345e-09
1.58119e-05
-4.40052e-09
1.58129e-05
-6.5192e-09
1.58139e-05
-7.88873e-09
1.5815e-05
-8.90007e-09
1.58161e-05
-9.90336e-09
1.58171e-05
-1.1001e-08
1.58181e-05
-1.22024e-08
1.58191e-05
-1.35395e-08
1.58199e-05
-1.50481e-08
1.58205e-05
-1.67438e-08
1.5821e-05
-1.86416e-08
1.58213e-05
-2.07816e-08
1.58215e-05
-2.3242e-08
1.58213e-05
-2.61432e-08
1.58209e-05
-2.96445e-08
1.582e-05
-3.3936e-08
1.58187e-05
-3.92248e-08
1.58168e-05
-4.57246e-08
1.58141e-05
-5.36525e-08
1.58105e-05
-6.32329e-08
1.58056e-05
-7.47135e-08
1.57993e-05
-8.83809e-08
1.57912e-05
-1.04547e-07
1.57808e-05
-1.23496e-07
1.57675e-05
-1.45399e-07
1.57504e-05
-1.7021e-07
1.57283e-05
-1.97374e-07
1.56996e-05
-2.26064e-07
-2.51513e-07
1.56605e-05
1.58113e-05
-1.86591e-09
1.58121e-05
-5.24756e-09
1.58132e-05
-7.61769e-09
1.58143e-05
-9.00788e-09
1.58154e-05
-1.00125e-08
1.58166e-05
-1.10205e-08
1.58176e-05
-1.20826e-08
1.58186e-05
-1.31993e-08
1.58195e-05
-1.44228e-08
1.58203e-05
-1.57968e-08
1.58209e-05
-1.73359e-08
1.58213e-05
-1.90544e-08
1.58215e-05
-2.09905e-08
1.58215e-05
-2.32149e-08
1.58212e-05
-2.58356e-08
1.58205e-05
-2.8996e-08
1.58194e-05
-3.2865e-08
1.58178e-05
-3.76242e-08
1.58156e-05
-4.34598e-08
1.58125e-05
-5.05579e-08
1.58083e-05
-5.9105e-08
1.58029e-05
-6.93062e-08
1.5796e-05
-8.14086e-08
1.57871e-05
-9.56798e-08
1.57759e-05
-1.12333e-07
1.57619e-05
-1.31407e-07
1.57444e-05
-1.52659e-07
1.57222e-05
-1.75166e-07
1.5694e-05
-1.97885e-07
-2.14581e-07
1.56571e-05
1.58114e-05
-2.26873e-09
1.58124e-05
-6.3227e-09
1.58137e-05
-8.88484e-09
1.58149e-05
-1.02069e-08
1.58161e-05
-1.11804e-08
1.58172e-05
-1.21791e-08
1.58183e-05
-1.31781e-08
1.58193e-05
-1.41847e-08
1.58202e-05
-1.52763e-08
1.58209e-05
-1.64984e-08
1.58214e-05
-1.78619e-08
1.58217e-05
-1.93814e-08
1.58218e-05
-2.10932e-08
1.58217e-05
-2.30603e-08
1.58212e-05
-2.53769e-08
1.58204e-05
-2.81681e-08
1.58191e-05
-3.15801e-08
1.58172e-05
-3.57674e-08
1.58147e-05
-4.08894e-08
1.58112e-05
-4.7103e-08
1.58067e-05
-5.45596e-08
1.58008e-05
-6.34238e-08
1.57933e-05
-7.39063e-08
1.57838e-05
-8.62343e-08
1.57721e-05
-1.00563e-07
1.57575e-05
-1.16835e-07
1.57395e-05
-1.34692e-07
1.57173e-05
-1.52951e-07
1.569e-05
-1.70583e-07
-1.8048e-07
1.56559e-05
1.58115e-05
-2.84384e-09
1.5813e-05
-7.73167e-09
1.58144e-05
-1.03358e-08
1.58157e-05
-1.14868e-08
1.58169e-05
-1.24237e-08
1.58181e-05
-1.33956e-08
1.58193e-05
-1.42981e-08
1.58202e-05
-1.51692e-08
1.58211e-05
-1.61121e-08
1.58217e-05
-1.71645e-08
1.58222e-05
-1.83334e-08
1.58225e-05
-1.96359e-08
1.58225e-05
-2.11051e-08
1.58222e-05
-2.2795e-08
1.58216e-05
-2.47856e-08
1.58206e-05
-2.71839e-08
1.58192e-05
-3.01114e-08
1.58171e-05
-3.36928e-08
1.58143e-05
-3.80581e-08
1.58105e-05
-4.33353e-08
1.58056e-05
-4.96422e-08
1.57993e-05
-5.71071e-08
1.57913e-05
-6.59226e-08
1.57813e-05
-7.62982e-08
1.57691e-05
-8.83559e-08
1.57543e-05
-1.01962e-07
1.57363e-05
-1.16689e-07
1.57144e-05
-1.3111e-07
1.56884e-05
-1.44521e-07
-1.49492e-07
1.56574e-05
1.58119e-05
-3.7339e-09
1.58138e-05
-9.63185e-09
1.58154e-05
-1.19518e-08
1.58167e-05
-1.28399e-08
1.58181e-05
-1.37483e-08
1.58193e-05
-1.46561e-08
1.58204e-05
-1.54268e-08
1.58214e-05
-1.61498e-08
1.58222e-05
-1.69321e-08
1.58229e-05
-1.77987e-08
1.58233e-05
-1.87564e-08
1.58235e-05
-1.98275e-08
1.58234e-05
-2.10392e-08
1.58231e-05
-2.24364e-08
1.58224e-05
-2.40838e-08
1.58212e-05
-2.60683e-08
1.58196e-05
-2.84849e-08
1.58174e-05
-3.14288e-08
1.58143e-05
-3.50082e-08
1.58103e-05
-3.93309e-08
1.58051e-05
-4.44781e-08
1.57985e-05
-5.05135e-08
1.57902e-05
-5.75864e-08
1.57798e-05
-6.58772e-08
1.57669e-05
-7.55146e-08
1.57514e-05
-8.63841e-08
1.57328e-05
-9.81237e-08
1.57108e-05
-1.09147e-07
1.56857e-05
-1.19401e-07
-1.20918e-07
1.56571e-05
1.58124e-05
-5.20656e-09
1.5815e-05
-1.22203e-08
1.58168e-05
-1.37203e-08
1.58183e-05
-1.43372e-08
1.58197e-05
-1.5198e-08
1.58211e-05
-1.59647e-08
1.58222e-05
-1.6566e-08
1.58232e-05
-1.71304e-08
1.5824e-05
-1.7739e-08
1.58246e-05
-1.84042e-08
1.5825e-05
-1.91346e-08
1.58251e-05
-1.99619e-08
1.5825e-05
-2.09036e-08
1.58245e-05
-2.19952e-08
1.58237e-05
-2.32859e-08
1.58225e-05
-2.48452e-08
1.58207e-05
-2.67356e-08
1.58183e-05
-2.90182e-08
1.58151e-05
-3.1779e-08
1.58109e-05
-3.51033e-08
1.58054e-05
-3.90413e-08
1.57985e-05
-4.36081e-08
1.57899e-05
-4.89645e-08
1.57793e-05
-5.52487e-08
1.57663e-05
-6.2541e-08
1.57506e-05
-7.06993e-08
1.57319e-05
-7.93785e-08
1.57095e-05
-8.67824e-08
1.56845e-05
-9.43511e-08
-9.08059e-08
1.56544e-05
1.58136e-05
-7.79279e-09
1.58167e-05
-1.54017e-08
1.58185e-05
-1.55235e-08
1.58203e-05
-1.6082e-08
1.58219e-05
-1.6788e-08
1.58232e-05
-1.73197e-08
1.58244e-05
-1.77331e-08
1.58254e-05
-1.813e-08
1.58262e-05
-1.85493e-08
1.58268e-05
-1.89987e-08
1.58272e-05
-1.94935e-08
1.58273e-05
-2.00655e-08
1.58271e-05
-2.0727e-08
1.58266e-05
-2.15012e-08
1.58257e-05
-2.24167e-08
1.58244e-05
-2.35339e-08
1.58226e-05
-2.48875e-08
1.582e-05
-2.64974e-08
1.58167e-05
-2.84243e-08
1.58123e-05
-3.07394e-08
1.58068e-05
-3.34702e-08
1.57997e-05
-3.6538e-08
1.57909e-05
-4.01534e-08
1.578e-05
-4.43827e-08
1.57666e-05
-4.91448e-08
1.57501e-05
-5.42166e-08
1.573e-05
-5.92936e-08
1.57056e-05
-6.2386e-08
1.56787e-05
-6.7442e-08
-5.3617e-08
1.56415e-05
1.5817e-05
-1.38184e-08
1.58204e-05
-1.88568e-08
1.58226e-05
-1.77204e-08
1.58243e-05
-1.77627e-08
1.58257e-05
-1.81945e-08
1.58269e-05
-1.84848e-08
1.58278e-05
-1.86817e-08
1.58286e-05
-1.88763e-08
1.58291e-05
-1.90889e-08
1.58295e-05
-1.93181e-08
1.58295e-05
-1.95702e-08
1.58293e-05
-1.98591e-08
1.58288e-05
-2.01908e-08
1.58279e-05
-2.05736e-08
1.58265e-05
-2.10167e-08
1.58245e-05
-2.15527e-08
1.58218e-05
-2.2189e-08
1.58182e-05
-2.2924e-08
1.58136e-05
-2.37931e-08
1.58077e-05
-2.48425e-08
1.58003e-05
-2.60931e-08
1.57912e-05
-2.74897e-08
1.57803e-05
-2.92441e-08
1.57674e-05
-3.14409e-08
1.57523e-05
-3.40732e-08
1.57351e-05
-3.70071e-08
1.57159e-05
-4.00352e-08
1.56939e-05
-4.0393e-08
1.56661e-05
-3.97002e-08
7.60855e-09
1.56049e-05
1.57971e-05
1.57783e-05
1.57606e-05
1.57428e-05
1.57246e-05
1.57061e-05
1.56874e-05
1.56686e-05
1.56495e-05
1.56302e-05
1.56106e-05
1.55907e-05
1.55705e-05
1.555e-05
1.5529e-05
1.55074e-05
1.54852e-05
1.54623e-05
1.54385e-05
1.54137e-05
1.53876e-05
1.53601e-05
1.53308e-05
1.52994e-05
1.52653e-05
1.52283e-05
1.51883e-05
1.51479e-05
1.51082e-05
1.51158e-05
1.54256e-05
-9.00419e-06
9.2983e-06
1.50844e-05
-9.0811e-06
9.42234e-06
1.469e-05
-9.13308e-06
9.52744e-06
1.42538e-05
-9.16255e-06
9.59875e-06
1.37948e-05
-9.18851e-06
9.64757e-06
1.33248e-05
-9.21704e-06
9.68705e-06
1.28491e-05
-9.24831e-06
9.724e-06
1.23698e-05
-9.28165e-06
9.76097e-06
1.18876e-05
-9.3168e-06
9.79899e-06
1.14027e-05
-9.35367e-06
9.83852e-06
1.09152e-05
-9.39225e-06
9.87979e-06
1.04249e-05
-9.43267e-06
9.92293e-06
9.93195e-06
-9.47523e-06
9.9682e-06
9.43626e-06
-9.52031e-06
1.0016e-05
8.93781e-06
-9.5684e-06
1.00668e-05
8.4365e-06
-9.62009e-06
1.01214e-05
7.93219e-06
-9.67616e-06
1.01805e-05
7.42464e-06
-9.73766e-06
1.02452e-05
6.91356e-06
-9.80606e-06
1.03171e-05
6.3985e-06
-9.88341e-06
1.03985e-05
5.87889e-06
-9.97264e-06
1.04923e-05
5.35351e-06
-1.00781e-05
1.06035e-05
4.82179e-06
-1.02058e-05
1.07375e-05
4.27859e-06
-1.03682e-05
1.09114e-05
3.72802e-06
-1.0572e-05
1.11225e-05
3.14245e-06
-1.08793e-05
1.14648e-05
2.55687e-06
-1.12294e-05
1.1815e-05
1.84566e-06
-1.20519e-05
1.27631e-05
1.11951e-06
-1.26446e-05
1.33707e-05
-1.5872e-05
1.69915e-05
1.56918e-05
-8.59504e-06
1.52373e-05
-8.62659e-06
1.47627e-05
-8.65846e-06
1.42836e-05
-8.68344e-06
1.38049e-05
-8.70984e-06
1.3327e-05
-8.73913e-06
1.28489e-05
-8.77023e-06
1.23696e-05
-8.80227e-06
1.18881e-05
-8.83534e-06
1.14042e-05
-8.86974e-06
1.09177e-05
-8.90576e-06
1.04286e-05
-8.94363e-06
9.93706e-06
-8.98365e-06
9.44291e-06
-9.02616e-06
8.94609e-06
-9.07158e-06
8.44645e-06
-9.12045e-06
7.94382e-06
-9.17352e-06
7.43793e-06
-9.23177e-06
6.92845e-06
-9.29658e-06
6.41491e-06
-9.36987e-06
5.89661e-06
-9.45433e-06
5.37243e-06
-9.55396e-06
4.84113e-06
-9.67448e-06
4.29898e-06
-9.82601e-06
3.74592e-06
-1.00189e-05
3.16269e-06
-1.0296e-05
2.56779e-06
-1.06345e-05
1.8616e-06
-1.13457e-05
1.12882e-06
-1.19118e-05
-1.47432e-05
1.56573e-05
-8.14067e-06
1.51939e-05
-8.16316e-06
1.47252e-05
-8.18984e-06
1.42574e-05
-8.21557e-06
1.37885e-05
-8.24094e-06
1.3317e-05
-8.26766e-06
1.28424e-05
-8.29561e-06
1.23647e-05
-8.32461e-06
1.18843e-05
-8.3549e-06
1.14014e-05
-8.38681e-06
1.09161e-05
-8.42048e-06
1.04285e-05
-8.45604e-06
9.93853e-06
-8.49368e-06
9.44607e-06
-8.5337e-06
8.95097e-06
-8.57648e-06
8.45309e-06
-8.62257e-06
7.9522e-06
-8.67263e-06
7.44805e-06
-8.72762e-06
6.94025e-06
-8.78878e-06
6.42827e-06
-8.85789e-06
5.91135e-06
-8.93741e-06
5.38835e-06
-9.03097e-06
4.8577e-06
-9.14382e-06
4.31629e-06
-9.2846e-06
3.7617e-06
-9.46434e-06
3.17986e-06
-9.71419e-06
2.57771e-06
-1.00323e-05
1.87509e-06
-1.06431e-05
1.13351e-06
-1.11702e-05
-1.36097e-05
1.56585e-05
-7.6809e-06
1.51957e-05
-7.70042e-06
1.47287e-05
-7.72286e-06
1.4259e-05
-7.74585e-06
1.37867e-05
-7.76866e-06
1.33122e-05
-7.79308e-06
1.28356e-05
-7.81903e-06
1.23572e-05
-7.84625e-06
1.18771e-05
-7.87479e-06
1.13951e-05
-7.90482e-06
1.09111e-05
-7.93643e-06
1.04248e-05
-7.96978e-06
9.9362e-06
-8.00507e-06
9.44513e-06
-8.04262e-06
8.95146e-06
-8.08281e-06
8.45502e-06
-8.12612e-06
7.95557e-06
-8.17319e-06
7.45282e-06
-8.22487e-06
6.94634e-06
-8.2823e-06
6.43555e-06
-8.3471e-06
5.91963e-06
-8.42149e-06
5.39738e-06
-8.50872e-06
4.86706e-06
-8.6135e-06
4.32574e-06
-8.74328e-06
3.76979e-06
-8.90839e-06
3.18807e-06
-9.13248e-06
2.57981e-06
-9.42407e-06
1.87994e-06
-9.94319e-06
1.13143e-06
-1.04217e-05
-1.24782e-05
1.56448e-05
-7.2176e-06
1.51793e-05
-7.23492e-06
1.47107e-05
-7.25434e-06
1.42401e-05
-7.27521e-06
1.37684e-05
-7.29699e-06
1.32953e-05
-7.31994e-06
1.28204e-05
-7.34418e-06
1.23437e-05
-7.36957e-06
1.18651e-05
-7.39615e-06
1.13844e-05
-7.42409e-06
1.09015e-05
-7.45354e-06
1.04164e-05
-7.48466e-06
9.92894e-06
-7.51765e-06
9.43912e-06
-7.5528e-06
8.94673e-06
-7.59042e-06
8.45158e-06
-7.63097e-06
7.9534e-06
-7.67501e-06
7.45186e-06
-7.72332e-06
6.94649e-06
-7.77693e-06
6.43667e-06
-7.83728e-06
5.92152e-06
-7.90634e-06
5.39979e-06
-7.98699e-06
4.86961e-06
-8.08333e-06
4.32805e-06
-8.20171e-06
3.7709e-06
-8.35124e-06
3.18859e-06
-8.55017e-06
2.57552e-06
-8.811e-06
1.87768e-06
-9.24535e-06
1.1232e-06
-9.66724e-06
-1.1355e-05
1.56268e-05
-6.75274e-06
1.51605e-05
-6.76861e-06
1.46923e-05
-6.78617e-06
1.42226e-05
-6.80549e-06
1.37516e-05
-6.82594e-06
1.32789e-05
-6.8473e-06
1.28045e-05
-6.86972e-06
1.23281e-05
-6.89325e-06
1.185e-05
-6.91798e-06
1.13699e-05
-6.944e-06
1.08878e-05
-6.97146e-06
1.04036e-05
-7.0005e-06
9.91728e-06
-7.03128e-06
9.42854e-06
-7.06406e-06
8.93725e-06
-7.09913e-06
8.44317e-06
-7.1369e-06
7.94603e-06
-7.17787e-06
7.44545e-06
-7.22274e-06
6.94094e-06
-7.27242e-06
6.43183e-06
-7.32816e-06
5.91719e-06
-7.39171e-06
5.39569e-06
-7.4655e-06
4.86541e-06
-7.55304e-06
4.32334e-06
-7.65964e-06
3.76501e-06
-7.79291e-06
3.18166e-06
-7.96682e-06
2.56479e-06
-8.19413e-06
1.8691e-06
-8.54967e-06
1.10991e-06
-8.90805e-06
-1.02451e-05
1.56038e-05
-6.28758e-06
1.51374e-05
-6.30223e-06
1.46695e-05
-6.31826e-06
1.42001e-05
-6.33611e-06
1.37293e-05
-6.35514e-06
1.3257e-05
-6.37499e-06
1.27831e-05
-6.39577e-06
1.23075e-05
-6.41762e-06
1.18301e-05
-6.44061e-06
1.13509e-05
-6.4648e-06
1.08697e-05
-6.49031e-06
1.03865e-05
-6.51726e-06
9.90105e-06
-6.54584e-06
9.41323e-06
-6.57624e-06
8.92284e-06
-6.60874e-06
8.42964e-06
-6.6437e-06
7.93332e-06
-6.68155e-06
7.43349e-06
-6.72291e-06
6.92961e-06
-6.76854e-06
6.42098e-06
-6.81954e-06
5.90662e-06
-6.87735e-06
5.38515e-06
-6.94402e-06
4.85457e-06
-7.02246e-06
4.31182e-06
-7.11689e-06
3.75231e-06
-7.23341e-06
3.16774e-06
-7.38224e-06
2.54801e-06
-7.5744e-06
1.85464e-06
-7.85629e-06
1.0923e-06
-8.14572e-06
-9.15282e-06
1.55776e-05
-5.82216e-06
1.51112e-05
-5.83577e-06
1.46434e-05
-5.85053e-06
1.41744e-05
-5.86705e-06
1.3704e-05
-5.88471e-06
1.32321e-05
-5.90312e-06
1.27587e-05
-5.92236e-06
1.22836e-05
-5.94257e-06
1.18069e-05
-5.96385e-06
1.13283e-05
-5.98623e-06
1.08478e-05
-6.00981e-06
1.03652e-05
-6.03472e-06
9.88052e-06
-6.06111e-06
9.39342e-06
-6.08915e-06
8.90375e-06
-6.11907e-06
8.41124e-06
-6.15118e-06
7.91554e-06
-6.18586e-06
7.41625e-06
-6.22361e-06
6.91279e-06
-6.26509e-06
6.40443e-06
-6.31117e-06
5.89014e-06
-6.36306e-06
5.3685e-06
-6.42238e-06
4.83745e-06
-6.49141e-06
4.29391e-06
-6.57335e-06
3.73326e-06
-6.67276e-06
3.14748e-06
-6.79647e-06
2.52574e-06
-6.95265e-06
1.83495e-06
-7.1655e-06
1.07126e-06
-7.38203e-06
-8.08155e-06
1.55481e-05
-5.35678e-06
1.50817e-05
-5.36942e-06
1.46142e-05
-5.38303e-06
1.41455e-05
-5.39827e-06
1.36753e-05
-5.41459e-06
1.32038e-05
-5.4316e-06
1.27308e-05
-5.44934e-06
1.22562e-05
-5.46797e-06
1.17799e-05
-5.48758e-06
1.13019e-05
-5.50819e-06
1.0822e-05
-5.52989e-06
1.034e-05
-5.55277e-06
9.85587e-06
-5.57697e-06
9.36936e-06
-5.60263e-06
8.88024e-06
-5.62995e-06
8.38823e-06
-5.65918e-06
7.89298e-06
-5.69061e-06
7.39404e-06
-5.72467e-06
6.89081e-06
-5.76186e-06
6.38253e-06
-5.80289e-06
5.86814e-06
-5.84867e-06
5.34618e-06
-5.90042e-06
4.81456e-06
-5.95979e-06
4.27018e-06
-6.02898e-06
3.70846e-06
-6.11103e-06
3.12164e-06
-6.20965e-06
2.49868e-06
-6.3297e-06
1.81086e-06
-6.47768e-06
1.04781e-06
-6.61898e-06
-7.03374e-06
1.55162e-05
-4.89132e-06
1.50498e-05
-4.90308e-06
1.45825e-05
-4.91564e-06
1.41139e-05
-4.92967e-06
1.3644e-05
-4.9447e-06
1.31727e-05
-4.96034e-06
1.27e-05
-4.97664e-06
1.22258e-05
-4.99374e-06
1.17499e-05
-5.01171e-06
1.12723e-05
-5.03058e-06
1.07928e-05
-5.0504e-06
1.03113e-05
-5.07126e-06
9.82761e-06
-5.09327e-06
9.34151e-06
-5.11654e-06
8.85278e-06
-5.14122e-06
8.36111e-06
-5.16751e-06
7.86613e-06
-5.19563e-06
7.36736e-06
-5.2259e-06
6.86421e-06
-5.25871e-06
6.35585e-06
-5.29454e-06
5.84123e-06
-5.33404e-06
5.31883e-06
-5.37802e-06
4.78658e-06
-5.42754e-06
4.24139e-06
-5.48379e-06
3.67872e-06
-5.54835e-06