/*--------------------------------*- C++ -*----------------------------------*\
  =========                 |
  \\      /  F ield         | OpenFOAM: The Open Source CFD Toolbox
   \\    /   O peration     | Website:  https://openfoam.org
    \\  /    A nd           | Version:  11
     \\/     M anipulation  |
\*---------------------------------------------------------------------------*/
FoamFile
{
    format      ascii;
    class       surfaceScalarField;
    location    "9.1";
    object      phi;
}
// * * * * * * * * * * * * * * * * * * * * * * * * * * * * * * * * * * * * * //

dimensions      [0 3 -1 0 0 0 0];

internalField   nonuniform List<scalar> 
24840
(
1.92413e-05
6.8687e-09
1.92344e-05
6.84076e-09
1.923e-05
4.44629e-09
1.92281e-05
1.83668e-09
1.92293e-05
-1.11689e-09
1.92338e-05
-4.50531e-09
1.9242e-05
-8.20202e-09
1.92541e-05
-1.21426e-08
1.92705e-05
-1.63707e-08
1.92914e-05
-2.09613e-08
1.93174e-05
-2.5992e-08
1.9349e-05
-3.15748e-08
1.93868e-05
-3.78439e-08
1.94318e-05
-4.49608e-08
1.94849e-05
-5.31198e-08
1.95475e-05
-6.25489e-08
1.9621e-05
-7.35109e-08
1.97073e-05
-8.63053e-08
1.98086e-05
-1.0127e-07
1.99273e-05
-1.18779e-07
2.00666e-05
-1.39238e-07
2.02296e-05
-1.63062e-07
2.04203e-05
-1.90648e-07
2.06427e-05
-2.22429e-07
2.09016e-05
-2.5886e-07
2.12015e-05
-2.99897e-07
2.1548e-05
-3.46507e-07
2.19408e-05
-3.92775e-07
2.24019e-05
-4.61104e-07
-4.34487e-07
2.28364e-05
1.92527e-05
2.33575e-09
1.92581e-05
1.40519e-09
1.92652e-05
-2.63324e-09
1.92748e-05
-7.82547e-09
1.92875e-05
-1.37532e-08
1.93034e-05
-2.04511e-08
1.93231e-05
-2.78577e-08
1.93468e-05
-3.58925e-08
1.9375e-05
-4.45783e-08
1.94081e-05
-5.39872e-08
1.94463e-05
-6.41837e-08
1.94899e-05
-7.52511e-08
1.95394e-05
-8.73608e-08
1.95953e-05
-1.00831e-07
1.96583e-05
-1.16118e-07
1.97295e-05
-1.33761e-07
1.98103e-05
-1.54333e-07
1.99025e-05
-1.78432e-07
2.00079e-05
-2.06699e-07
2.0129e-05
-2.39841e-07
2.02684e-05
-2.78636e-07
2.04292e-05
-3.23923e-07
2.06152e-05
-3.76576e-07
2.08302e-05
-4.37481e-07
2.10788e-05
-5.07492e-07
2.13659e-05
-5.86987e-07
2.16966e-05
-6.77206e-07
2.20758e-05
-7.71915e-07
2.25111e-05
-8.96395e-07
-9.21378e-07
2.2998e-05
1.92508e-05
-3.79639e-10
1.92556e-05
-3.39554e-09
1.92624e-05
-9.37509e-09
1.92717e-05
-1.71625e-08
1.9284e-05
-2.60738e-08
1.92996e-05
-3.60389e-08
1.93188e-05
-4.70422e-08
1.93419e-05
-5.9009e-08
1.93693e-05
-7.19207e-08
1.94011e-05
-8.58353e-08
1.94378e-05
-1.00857e-07
1.94797e-05
-1.17152e-07
1.95273e-05
-1.35008e-07
1.95814e-05
-1.5488e-07
1.96427e-05
-1.77385e-07
1.97122e-05
-2.03261e-07
1.97912e-05
-2.33323e-07
1.98812e-05
-2.68453e-07
1.99841e-05
-3.09616e-07
2.01021e-05
-3.57887e-07
2.0238e-05
-4.14455e-07
2.03947e-05
-4.80621e-07
2.05758e-05
-5.57769e-07
2.07857e-05
-6.47311e-07
2.10288e-05
-7.50653e-07
2.13105e-05
-8.68628e-07
2.16364e-05
-1.00316e-06
2.20122e-05
-1.14766e-06
2.24447e-05
-1.32892e-06
-1.4186e-06
2.29419e-05
1.92499e-05
-2.15294e-09
1.92541e-05
-7.61311e-09
1.92605e-05
-1.57506e-08
1.92694e-05
-2.60222e-08
1.92811e-05
-3.78434e-08
1.92961e-05
-5.1038e-08
1.93146e-05
-6.55644e-08
1.9337e-05
-8.13493e-08
1.93634e-05
-9.83432e-08
1.93942e-05
-1.16583e-07
1.94295e-05
-1.36208e-07
1.94698e-05
-1.57482e-07
1.95157e-05
-1.80825e-07
1.95676e-05
-2.06837e-07
1.96265e-05
-2.36288e-07
1.96933e-05
-2.7009e-07
1.97693e-05
-3.09278e-07
1.98559e-05
-3.55004e-07
1.99548e-05
-4.08556e-07
2.00683e-05
-4.71375e-07
2.01989e-05
-5.45074e-07
2.03497e-05
-6.31434e-07
2.05243e-05
-7.3238e-07
2.07269e-05
-8.49911e-07
2.09623e-05
-9.86064e-07
2.1236e-05
-1.14233e-06
2.15542e-05
-1.3213e-06
2.19237e-05
-1.51718e-06
2.23507e-05
-1.75598e-06
-1.91752e-06
2.28497e-05
1.92494e-05
-3.42005e-09
1.9253e-05
-1.12423e-08
1.92589e-05
-2.16308e-08
1.92672e-05
-3.43453e-08
1.92784e-05
-4.89783e-08
1.92926e-05
-6.52944e-08
1.93103e-05
-8.31949e-08
1.93315e-05
-1.026e-07
1.93566e-05
-1.23459e-07
1.93859e-05
-1.45815e-07
1.94195e-05
-1.6984e-07
1.94579e-05
-1.95868e-07
1.95015e-05
-2.24421e-07
1.95509e-05
-2.56226e-07
1.96068e-05
-2.92209e-07
1.96702e-05
-3.33466e-07
1.97421e-05
-3.81255e-07
1.98241e-05
-4.36991e-07
1.99178e-05
-5.02269e-07
2.00253e-05
-5.78889e-07
2.01492e-05
-6.68884e-07
2.02922e-05
-7.74519e-07
2.04581e-05
-8.98283e-07
2.06511e-05
-1.04282e-06
2.08759e-05
-1.21091e-06
2.11384e-05
-1.40488e-06
2.14453e-05
-1.62813e-06
2.18045e-05
-1.87638e-06
2.22226e-05
-2.17406e-06
-2.41169e-06
2.27167e-05
1.92492e-05
-4.43874e-09
1.92523e-05
-1.44286e-08
1.92577e-05
-2.70267e-08
1.92655e-05
-4.21096e-08
1.92759e-05
-5.94026e-08
1.92893e-05
-7.86624e-08
1.93058e-05
-9.97455e-08
1.93258e-05
-1.22557e-07
1.93494e-05
-1.47046e-07
1.93768e-05
-1.73257e-07
1.94084e-05
-2.01389e-07
1.94443e-05
-2.31839e-07
1.94852e-05
-2.65228e-07
1.95313e-05
-3.02406e-07
1.95836e-05
-3.44446e-07
1.96427e-05
-3.92621e-07
1.97099e-05
-4.48393e-07
1.97863e-05
-5.13424e-07
1.98736e-05
-5.89598e-07
1.99738e-05
-6.7906e-07
2.00892e-05
-7.84253e-07
2.02226e-05
-9.07934e-07
2.03775e-05
-1.05318e-06
2.0558e-05
-1.22335e-06
2.07691e-05
-1.42204e-06
2.10169e-05
-1.65263e-06
2.13083e-05
-1.91953e-06
2.16524e-05
-2.22053e-06
2.20569e-05
-2.57852e-06
-2.89739e-06
2.25426e-05
1.9249e-05
-5.32085e-09
1.92518e-05
-1.72386e-08
1.92567e-05
-3.1914e-08
1.92638e-05
-4.92367e-08
1.92734e-05
-6.90081e-08
1.92858e-05
-9.09976e-08
1.93011e-05
-1.15031e-07
1.93195e-05
-1.4099e-07
1.93413e-05
-1.68821e-07
1.93666e-05
-1.98575e-07
1.93957e-05
-2.30481e-07
1.94288e-05
-2.64989e-07
1.94664e-05
-3.02801e-07
1.95089e-05
-3.44877e-07
1.95569e-05
-3.92423e-07
1.96111e-05
-4.46876e-07
1.96726e-05
-5.0989e-07
1.97425e-05
-5.83355e-07
1.98224e-05
-6.69427e-07
1.99139e-05
-7.70573e-07
2.00193e-05
-8.89631e-07
2.01412e-05
-1.02984e-06
2.02829e-05
-1.19488e-06
2.04484e-05
-1.38885e-06
2.06426e-05
-1.61627e-06
2.08717e-05
-1.88172e-06
2.1143e-05
-2.19089e-06
2.14667e-05
-2.54418e-06
2.18514e-05
-2.96325e-06
-3.36848e-06
2.23225e-05
1.92489e-05
-6.09642e-09
1.92514e-05
-1.97124e-08
1.92558e-05
-3.62838e-08
1.92622e-05
-5.56738e-08
1.92709e-05
-7.77147e-08
1.92821e-05
-1.02189e-07
1.9296e-05
-1.28902e-07
1.93127e-05
-1.57717e-07
1.93324e-05
-1.8857e-07
1.93554e-05
-2.21521e-07
1.93817e-05
-2.5682e-07
1.94117e-05
-2.94962e-07
1.94456e-05
-3.3672e-07
1.94839e-05
-3.8315e-07
1.9527e-05
-4.3558e-07
1.95758e-05
-4.9559e-07
1.96309e-05
-5.6501e-07
1.96935e-05
-6.45931e-07
1.97648e-05
-7.40749e-07
1.98464e-05
-8.52227e-07
1.99404e-05
-9.83567e-07
2.0049e-05
-1.13847e-06
2.01753e-05
-1.32121e-06
2.03231e-05
-1.53663e-06
2.04971e-05
-1.79025e-06
2.07033e-05
-2.08797e-06
2.09495e-05
-2.43702e-06
2.12462e-05
-2.84092e-06
2.16034e-05
-3.32047e-06
-3.81607e-06
2.2051e-05
1.92488e-05
-6.77317e-09
1.9251e-05
-2.18716e-08
1.92548e-05
-4.01293e-08
1.92605e-05
-6.13752e-08
1.92682e-05
-8.54468e-08
1.92782e-05
-1.12132e-07
1.92905e-05
-1.41224e-07
1.93054e-05
-1.72566e-07
1.93229e-05
-2.06086e-07
1.93432e-05
-2.41846e-07
1.93665e-05
-2.80116e-07
1.9393e-05
-3.21426e-07
1.94229e-05
-3.6661e-07
1.94565e-05
-4.16804e-07
1.94944e-05
-4.73437e-07
1.9537e-05
-5.38214e-07
1.95851e-05
-6.13111e-07
1.96395e-05
-7.00392e-07
1.97015e-05
-8.0266e-07
1.97722e-05
-9.22935e-07
1.98533e-05
-1.06474e-06
1.99471e-05
-1.2322e-06
2.0056e-05
-1.43013e-06
2.01835e-05
-1.66412e-06
2.03339e-05
-1.94066e-06
2.0513e-05
-2.26708e-06
2.07283e-05
-2.65231e-06
2.09908e-05
-3.10343e-06
2.13111e-05
-3.64079e-06
-4.22813e-06
2.17232e-05
1.92487e-05
-7.35329e-09
1.92506e-05
-2.37232e-08
1.92539e-05
-4.34402e-08
1.92588e-05
-6.6302e-08
1.92655e-05
-9.21391e-08
1.92741e-05
-1.20738e-07
1.92848e-05
-1.5188e-07
1.92976e-05
-1.85392e-07
1.93127e-05
-2.21193e-07
1.93302e-05
-2.59346e-07
1.93502e-05
-3.00131e-07
1.93729e-05
-3.4411e-07
1.93984e-05
-3.9216e-07
1.94271e-05
-4.45482e-07
1.94593e-05
-5.05585e-07
1.94953e-05
-5.74276e-07
1.95359e-05
-6.53647e-07
1.95816e-05
-7.461e-07
1.96333e-05
-8.54401e-07
1.96922e-05
-9.81775e-07
1.97594e-05
-1.13201e-06
1.98368e-05
-1.30959e-06
1.99265e-05
-1.51981e-06
2.00313e-05
-1.76892e-06
2.0155e-05
-2.06434e-06
2.03027e-05
-2.41478e-06
2.04813e-05
-2.83094e-06
2.07016e-05
-3.32371e-06
2.09741e-05
-3.91337e-06
-4.5895e-06
2.13355e-05
1.92486e-05
-7.83697e-09
1.92502e-05
-2.52671e-08
1.92529e-05
-4.62052e-08
1.9257e-05
-7.04225e-08
1.92626e-05
-9.77378e-08
1.92698e-05
-1.27931e-07
1.92787e-05
-1.60772e-07
1.92894e-05
-1.96075e-07
1.9302e-05
-2.33747e-07
1.93165e-05
-2.73849e-07
1.9333e-05
-3.16669e-07
1.93517e-05
-3.62787e-07
1.93726e-05
-4.13113e-07
1.9396e-05
-4.68893e-07
1.94222e-05
-5.31697e-07
1.94513e-05
-6.03402e-07
1.94838e-05
-6.86187e-07
1.95203e-05
-7.82547e-07
1.95612e-05
-8.95365e-07
1.96075e-05
-1.02801e-06
1.96599e-05
-1.18446e-06
1.97198e-05
-1.36947e-06
1.97887e-05
-1.58871e-06
1.98687e-05
-1.84895e-06
1.99628e-05
-2.15843e-06
2.00751e-05
-2.52705e-06
2.02114e-05
-2.96723e-06
2.03812e-05
-3.49353e-06
2.05943e-05
-4.12648e-06
-4.88245e-06
2.08873e-05
1.92485e-05
-8.22374e-09
1.92498e-05
-2.65011e-08
1.9252e-05
-4.84141e-08
1.92553e-05
-7.37123e-08
1.92597e-05
-1.02202e-07
1.92654e-05
-1.33652e-07
1.92725e-05
-1.67824e-07
1.92809e-05
-2.04519e-07
1.92908e-05
-2.43633e-07
1.93022e-05
-2.85221e-07
1.93151e-05
-3.29574e-07
1.93296e-05
-3.77282e-07
1.93458e-05
-4.29273e-07
1.93637e-05
-4.86821e-07
1.93835e-05
-5.5153e-07
1.94054e-05
-6.25322e-07
1.94297e-05
-7.1042e-07
1.94565e-05
-8.09374e-07
1.94863e-05
-9.25126e-07
1.95194e-05
-1.06112e-06
1.95563e-05
-1.22144e-06
1.95979e-05
-1.41099e-06
1.96448e-05
-1.63567e-06
1.96985e-05
-1.90262e-06
1.97607e-05
-2.22062e-06
1.98341e-05
-2.60051e-06
1.9923e-05
-3.05609e-06
2.00346e-05
-3.6051e-06
2.01765e-05
-4.26844e-06
-5.08787e-06
2.0382e-05
1.92484e-05
-8.51322e-09
1.92493e-05
-2.74232e-08
1.9251e-05
-5.00598e-08
1.92534e-05
-7.61544e-08
1.92567e-05
-1.05501e-07
1.92609e-05
-1.3786e-07
1.92661e-05
-1.72981e-07
1.92722e-05
-2.10656e-07
1.92794e-05
-2.50769e-07
1.92875e-05
-2.93368e-07
1.92967e-05
-3.3874e-07
1.93069e-05
-3.87477e-07
1.93181e-05
-4.40512e-07
1.93304e-05
-4.99125e-07
1.93438e-05
-5.64933e-07
1.93584e-05
-6.39869e-07
1.93741e-05
-7.26167e-07
1.93911e-05
-8.2638e-07
1.94094e-05
-9.43452e-07
1.94292e-05
-1.08083e-06
1.94503e-05
-1.2426e-06
1.9473e-05
-1.43368e-06
1.94974e-05
-1.66004e-06
1.95237e-05
-1.92893e-06
1.95524e-05
-2.24937e-06
1.95846e-05
-2.63272e-06
1.96221e-05
-3.09359e-06
1.9669e-05
-3.65201e-06
1.97296e-05
-4.32896e-06
-5.18737e-06
1.98291e-05
1.92483e-05
-8.70555e-09
1.92489e-05
-2.80331e-08
1.925e-05
-5.11389e-08
1.92516e-05
-7.77399e-08
1.92537e-05
-1.07619e-07
1.92564e-05
-1.40529e-07
1.92596e-05
-1.7621e-07
1.92634e-05
-2.14444e-07
1.92677e-05
-2.55106e-07
1.92726e-05
-2.98234e-07
1.9278e-05
-3.44106e-07
1.92838e-05
-3.93307e-07
1.92901e-05
-4.46761e-07
1.92967e-05
-5.05738e-07
1.93036e-05
-5.71844e-07
1.93107e-05
-6.46989e-07
1.93179e-05
-7.3338e-07
1.93251e-05
-8.33528e-07
1.93319e-05
-9.50315e-07
1.93382e-05
-1.08711e-06
1.93435e-05
-1.2479e-06
1.93473e-05
-1.43749e-06
1.9349e-05
-1.66169e-06
1.93477e-05
-1.92762e-06
1.93424e-05
-2.24415e-06
1.93323e-05
-2.62257e-06
1.93163e-05
-3.07759e-06
1.92944e-05
-3.63016e-06
1.92661e-05
-4.30068e-06
-5.16621e-06
1.9245e-05
1.92482e-05
-8.80097e-09
1.92485e-05
-2.8333e-08
1.9249e-05
-5.16539e-08
1.92498e-05
-7.84691e-08
1.92507e-05
-1.08553e-07
1.92518e-05
-1.41652e-07
1.92531e-05
-1.775e-07
1.92545e-05
-2.1587e-07
1.92561e-05
-2.56628e-07
1.92576e-05
-2.99802e-07
1.92592e-05
-3.45658e-07
1.92606e-05
-3.94763e-07
1.92619e-05
-4.48019e-07
1.92628e-05
-5.06673e-07
1.92633e-05
-5.7229e-07
1.9263e-05
-6.46735e-07
1.92618e-05
-7.32145e-07
1.92592e-05
-8.30942e-07
1.92548e-05
-9.4589e-07
1.92479e-05
-1.0802e-06
1.92376e-05
-1.23766e-06
1.9223e-05
-1.42282e-06
1.92024e-05
-1.64112e-06
1.9174e-05
-1.89925e-06
1.91354e-05
-2.20553e-06
1.90834e-05
-2.57057e-06
1.9014e-05
-3.00821e-06
1.89226e-05
-3.53875e-06
1.88029e-05
-4.18092e-06
-5.01657e-06
1.86532e-05
1.92481e-05
-8.80328e-09
1.92481e-05
-2.83287e-08
1.92481e-05
-5.16119e-08
1.9248e-05
-7.83504e-08
1.92477e-05
-1.08312e-07
1.92473e-05
-1.41238e-07
1.92467e-05
-1.7686e-07
1.92458e-05
-2.14945e-07
1.92445e-05
-2.55352e-07
1.92428e-05
-2.98096e-07
1.92405e-05
-3.43426e-07
1.92377e-05
-3.91887e-07
1.9234e-05
-4.44348e-07
1.92293e-05
-5.02012e-07
1.92234e-05
-5.66387e-07
1.9216e-05
-6.39261e-07
1.92065e-05
-7.2267e-07
1.91944e-05
-8.18903e-07
1.91791e-05
-9.30552e-07
1.91595e-05
-1.0606e-06
1.91344e-05
-1.21254e-06
1.91021e-05
-1.39051e-06
1.90604e-05
-1.59943e-06
1.90064e-05
-1.84525e-06
1.89362e-05
-2.13532e-06
1.88446e-05
-2.47896e-06
1.87246e-05
-2.8882e-06
1.85668e-05
-3.38096e-06
1.83588e-05
-3.97295e-06
-4.74044e-06
1.80827e-05
1.9248e-05
-8.71301e-09
1.92477e-05
-2.80286e-08
1.92472e-05
-5.10283e-08
1.92462e-05
-7.74037e-08
1.92448e-05
-1.06919e-07
1.92429e-05
-1.39315e-07
1.92404e-05
-1.74324e-07
1.92371e-05
-2.1171e-07
1.92331e-05
-2.51325e-07
1.92282e-05
-2.93173e-07
1.92222e-05
-3.37485e-07
1.92151e-05
-3.84773e-07
1.92066e-05
-4.35866e-07
1.91965e-05
-4.91908e-07
1.91845e-05
-5.54331e-07
1.917e-05
-6.2482e-07
1.91526e-05
-7.05281e-07
1.91316e-05
-7.97835e-07
1.91059e-05
-9.04855e-07
1.90743e-05
-1.02904e-06
1.90353e-05
-1.1735e-06
1.89866e-05
-1.34184e-06
1.89255e-05
-1.5383e-06
1.88481e-05
-1.76786e-06
1.87493e-05
-2.03653e-06
1.86221e-05
-2.35178e-06
1.84569e-05
-2.723e-06
1.824e-05
-3.16413e-06
1.79537e-05
-3.68658e-06
-4.35121e-06
1.75644e-05
1.9248e-05
-8.53557e-09
1.92474e-05
-2.74456e-08
1.92463e-05
-4.99235e-08
1.92445e-05
-7.56574e-08
1.9242e-05
-1.04411e-07
1.92386e-05
-1.35927e-07
1.92342e-05
-1.69944e-07
1.92288e-05
-2.06228e-07
1.92221e-05
-2.44626e-07
1.9214e-05
-2.8513e-07
1.92045e-05
-3.27949e-07
1.91933e-05
-3.73562e-07
1.91802e-05
-4.22747e-07
1.91648e-05
-4.76577e-07
1.91469e-05
-5.36391e-07
1.91258e-05
-6.03751e-07
1.91009e-05
-6.80409e-07
1.90714e-05
-7.6829e-07
1.90361e-05
-8.69513e-07
1.89935e-05
-9.86442e-07
1.89417e-05
-1.12174e-06
1.88783e-05
-1.27842e-06
1.87999e-05
-1.45989e-06
1.8702e-05
-1.66999e-06
1.85786e-05
-1.91314e-06
1.84214e-05
-2.19455e-06
1.82187e-05
-2.52036e-06
1.79539e-05
-2.89933e-06
1.7605e-05
-3.33765e-06
-3.87319e-06
1.7127e-05
1.92479e-05
-8.2763e-09
1.9247e-05
-2.65968e-08
1.92454e-05
-4.83262e-08
1.92429e-05
-7.31504e-08
1.92393e-05
-1.00835e-07
1.92346e-05
-1.31134e-07
1.92284e-05
-1.63794e-07
1.92208e-05
-1.98588e-07
1.92115e-05
-2.35359e-07
1.92005e-05
-2.74092e-07
1.91875e-05
-3.14971e-07
1.91724e-05
-3.58438e-07
1.91548e-05
-4.05213e-07
1.91345e-05
-4.5629e-07
1.9111e-05
-5.12898e-07
1.90838e-05
-5.76466e-07
1.90519e-05
-6.48572e-07
1.90146e-05
-7.30923e-07
1.89704e-05
-8.25363e-07
1.89179e-05
-9.33894e-07
1.88548e-05
-1.0587e-06
1.87785e-05
-1.20214e-06
1.86854e-05
-1.36672e-06
1.85705e-05
-1.55509e-06
1.84272e-05
-1.76991e-06
1.82466e-05
-2.01394e-06
1.8016e-05
-2.28978e-06
1.77171e-05
-2.60042e-06
1.7326e-05
-2.9465e-06
-3.33885e-06
1.67916e-05
1.92478e-05
-7.9422e-09
1.92467e-05
-2.55042e-08
1.92447e-05
-4.62729e-08
1.92414e-05
-6.9932e-08
1.92369e-05
-9.62539e-08
1.92307e-05
-1.2501e-07
1.92229e-05
-1.55965e-07
1.92132e-05
-1.889e-07
1.92015e-05
-2.23659e-07
1.91876e-05
-2.60217e-07
1.91714e-05
-2.98738e-07
1.91526e-05
-3.39623e-07
1.91309e-05
-3.8353e-07
1.9106e-05
-4.31363e-07
1.90773e-05
-4.84239e-07
1.90443e-05
-5.43437e-07
1.90061e-05
-6.10352e-07
1.89616e-05
-6.86465e-07
1.89096e-05
-7.73332e-07
1.88483e-05
-8.72587e-07
1.87755e-05
-9.85921e-07
1.86884e-05
-1.11504e-06
1.85832e-05
-1.26155e-06
1.8455e-05
-1.42687e-06
1.82971e-05
-1.61197e-06
1.81003e-05
-1.81716e-06
1.78521e-05
-2.04159e-06
1.75342e-05
-2.28252e-06
1.71232e-05
-2.53548e-06
-2.78429e-06
1.65686e-05
1.92477e-05
-7.54226e-09
1.92464e-05
-2.41963e-08
1.9244e-05
-4.38094e-08
1.92401e-05
-6.6062e-08
1.92346e-05
-9.07406e-08
1.92272e-05
-1.17646e-07
1.92178e-05
-1.46567e-07
1.92062e-05
-1.77295e-07
1.91922e-05
-2.09679e-07
1.91757e-05
-2.43689e-07
1.91564e-05
-2.79467e-07
1.91342e-05
-3.17373e-07
1.91086e-05
-3.57998e-07
1.90794e-05
-4.02154e-07
1.9046e-05
-4.50838e-07
1.90078e-05
-5.05175e-07
1.89638e-05
-5.66376e-07
1.8913e-05
-6.35693e-07
1.88541e-05
-7.144e-07
1.87853e-05
-8.03765e-07
1.87044e-05
-9.0501e-07
1.86085e-05
-1.01921e-06
1.84941e-05
-1.14715e-06
1.83564e-05
-1.2891e-06
1.81889e-05
-1.44448e-06
1.79831e-05
-1.61139e-06
1.77275e-05
-1.78597e-06
1.74054e-05
-1.96046e-06
1.69962e-05
-2.12627e-06
-2.2441e-06
1.6456e-05
1.92477e-05
-7.08796e-09
1.92462e-05
-2.27099e-08
1.92434e-05
-4.09928e-08
1.92389e-05
-6.16107e-08
1.92326e-05
-8.4379e-08
1.92241e-05
-1.09144e-07
1.92132e-05
-1.35723e-07
1.91998e-05
-1.63922e-07
1.91838e-05
-1.93597e-07
1.91648e-05
-2.24715e-07
1.91427e-05
-2.574e-07
1.91173e-05
-2.91971e-07
1.90883e-05
-3.28948e-07
1.90552e-05
-3.69051e-07
1.90175e-05
-4.13151e-07
1.89745e-05
-4.62225e-07
1.89255e-05
-5.17299e-07
1.88692e-05
-5.79406e-07
1.88043e-05
-6.4955e-07
1.87292e-05
-7.28663e-07
1.86417e-05
-8.17534e-07
1.85392e-05
-9.16688e-07
1.84182e-05
-1.02618e-06
1.82745e-05
-1.14531e-06
1.81022e-05
-1.27221e-06
1.7894e-05
-1.40321e-06
1.76401e-05
-1.53209e-06
1.73269e-05
-1.64728e-06
1.69381e-05
-1.73745e-06
-1.74667e-06
1.64407e-05
1.92476e-05
-6.59435e-09
1.9246e-05
-2.10942e-08
1.92429e-05
-3.7894e-08
1.9238e-05
-5.6659e-08
1.92309e-05
-7.72628e-08
1.92213e-05
-9.96174e-08
1.92092e-05
-1.23572e-07
1.91942e-05
-1.48945e-07
1.91762e-05
-1.75605e-07
1.9155e-05
-2.03523e-07
1.91304e-05
-2.32805e-07
1.91022e-05
-2.63725e-07
1.907e-05
-2.96736e-07
1.90334e-05
-3.32462e-07
1.89919e-05
-3.71655e-07
1.89448e-05
-4.15145e-07
1.88913e-05
-4.63783e-07
1.88303e-05
-5.18397e-07
1.87605e-05
-5.79745e-07
1.86803e-05
-6.48461e-07
1.85877e-05
-7.24968e-07
1.84803e-05
-8.09331e-07
1.83552e-05
-9.01027e-07
1.82085e-05
-9.98623e-07
1.80356e-05
-1.0993e-06
1.78305e-05
-1.19813e-06
1.75858e-05
-1.28739e-06
1.72917e-05
-1.35314e-06
1.6937e-05
-1.38282e-06
-1.3114e-06
1.65018e-05
1.92476e-05
-6.08285e-09
1.92459e-05
-1.94191e-08
1.92427e-05
-3.46e-08
1.92373e-05
-5.12965e-08
1.92295e-05
-6.9496e-08
1.92191e-05
-8.91942e-08
1.92058e-05
-1.10264e-07
1.91894e-05
-1.3254e-07
1.91697e-05
-1.55909e-07
1.91465e-05
-1.80352e-07
1.91197e-05
-2.05957e-07
1.90889e-05
-2.32954e-07
1.90539e-05
-2.61728e-07
1.90142e-05
-2.9281e-07
1.89694e-05
-3.26834e-07
1.89188e-05
-3.64493e-07
1.88615e-05
-4.06477e-07
1.87965e-05
-4.53429e-07
1.87226e-05
-5.05891e-07
1.86384e-05
-5.64247e-07
1.85421e-05
-6.28631e-07
1.84315e-05
-6.98765e-07
1.83042e-05
-7.73718e-07
1.81572e-05
-8.51575e-07
1.79868e-05
-9.2895e-07
1.7789e-05
-1.00028e-06
1.75587e-05
-1.05713e-06
1.72904e-05
-1.08479e-06
1.69783e-05
-1.07078e-06
-9.48545e-07
1.66155e-05
1.92476e-05
-5.58954e-09
1.9246e-05
-1.7792e-08
1.92426e-05
-3.12124e-08
1.92369e-05
-4.56135e-08
1.92286e-05
-6.11868e-08
1.92174e-05
-7.80108e-08
1.92032e-05
-9.59654e-08
1.91855e-05
-1.14903e-07
1.91643e-05
-1.34741e-07
1.91395e-05
-1.55469e-07
1.91107e-05
-1.7716e-07
1.90777e-05
-2e-07
1.90403e-05
-2.24308e-07
1.8998e-05
-2.50524e-07
1.89503e-05
-2.79172e-07
1.88967e-05
-3.10815e-07
1.88362e-05
-3.46003e-07
1.8768e-05
-3.85218e-07
1.86909e-05
-4.28815e-07
1.86036e-05
-4.76982e-07
1.85047e-05
-5.29648e-07
1.83922e-05
-5.86315e-07
1.82643e-05
-6.45823e-07
1.81188e-05
-7.06037e-07
1.79532e-05
-7.63396e-07
1.77652e-05
-8.12241e-07
1.75524e-05
-8.44306e-07
1.7313e-05
-8.45393e-07
1.70465e-05
-8.0431e-07
-6.59332e-07
1.67573e-05
1.92477e-05
-5.18385e-09
1.92463e-05
-1.63935e-08
1.9243e-05
-2.78502e-08
1.92371e-05
-3.97008e-08
1.92283e-05
-5.24418e-08
1.92165e-05
-6.61901e-08
1.92013e-05
-8.08159e-08
1.91826e-05
-9.62047e-08
1.91602e-05
-1.12309e-07
1.91339e-05
-1.29127e-07
1.91034e-05
-1.46712e-07
1.90686e-05
-1.65208e-07
1.90292e-05
-1.84868e-07
1.89847e-05
-2.06044e-07
1.89347e-05
-2.29155e-07
1.88785e-05
-2.54651e-07
1.88155e-05
-2.82963e-07
1.87447e-05
-3.14434e-07
1.86651e-05
-3.49261e-07
1.85757e-05
-3.87489e-07
1.84749e-05
-4.28933e-07
1.83616e-05
-4.72993e-07
1.82342e-05
-5.18452e-07
1.80914e-05
-5.63198e-07
1.79319e-05
-6.0385e-07
1.77548e-05
-6.35154e-07
1.75602e-05
-6.49695e-07
1.73496e-05
-6.3487e-07
1.7127e-05
-5.81662e-07
-4.37512e-07
1.69052e-05
1.9248e-05
-5.04288e-09
1.9247e-05
-1.54416e-08
1.92438e-05
-2.46437e-08
1.92378e-05
-3.37029e-08
1.92288e-05
-4.34372e-08
1.92166e-05
-5.39178e-08
1.92008e-05
-6.50141e-08
1.91812e-05
-7.66663e-08
1.91578e-05
-8.8862e-08
1.91302e-05
-1.01604e-07
1.90985e-05
-1.14926e-07
1.90622e-05
-1.28929e-07
1.90211e-05
-1.43797e-07
1.89749e-05
-1.59794e-07
1.8923e-05
-1.77246e-07
1.88648e-05
-1.96502e-07
1.87998e-05
-2.17915e-07
1.8727e-05
-2.41702e-07
1.86457e-05
-2.67911e-07
1.85547e-05
-2.9651e-07
1.8453e-05
-3.27276e-07
1.83397e-05
-3.59609e-07
1.82136e-05
-3.92389e-07
1.80741e-05
-4.23738e-07
1.7921e-05
-4.5075e-07
1.77548e-05
-4.68952e-07
1.75774e-05
-4.72315e-07
1.7393e-05
-4.50435e-07
1.72091e-05
-3.97733e-07
-2.7177e-07
1.70433e-05
1.92488e-05
-5.66441e-09
1.92484e-05
-1.50876e-08
1.92454e-05
-2.15954e-08
1.92393e-05
-2.76632e-08
1.92301e-05
-3.42573e-08
1.92175e-05
-4.13133e-08
1.92013e-05
-4.87402e-08
1.91811e-05
-5.65386e-08
1.9157e-05
-6.47193e-08
1.91287e-05
-7.32835e-08
1.9096e-05
-8.22446e-08
1.90587e-05
-9.16564e-08
1.90165e-05
-1.01637e-07
1.89691e-05
-1.12375e-07
1.8916e-05
-1.24107e-07
1.88566e-05
-1.37103e-07
1.87904e-05
-1.517e-07
1.87166e-05
-1.6794e-07
1.86344e-05
-1.85695e-07
1.85429e-05
-2.04966e-07
1.84411e-05
-2.25545e-07
1.83284e-05
-2.46919e-07
1.82042e-05
-2.68185e-07
1.80684e-05
-2.87885e-07
1.79214e-05
-3.03811e-07
1.7765e-05
-3.12553e-07
1.76025e-05
-3.09737e-07
1.7439e-05
-2.86954e-07
1.72849e-05
-2.43691e-07
-1.44688e-07
1.71579e-05
1.92516e-05
-9.13374e-09
1.92513e-05
-1.47863e-08
1.92475e-05
-1.78035e-08
1.9241e-05
-2.11515e-08
1.92314e-05
-2.46442e-08
1.92183e-05
-2.82151e-08
1.92015e-05
-3.19215e-08
1.91807e-05
-3.57803e-08
1.91558e-05
-3.97894e-08
1.91265e-05
-4.39729e-08
1.90926e-05
-4.83891e-08
1.90541e-05
-5.31169e-08
1.90107e-05
-5.82449e-08
1.89622e-05
-6.38643e-08
1.89081e-05
-7.00623e-08
1.88479e-05
-7.69027e-08
1.87806e-05
-8.43464e-08
1.87052e-05
-9.2543e-08
1.86211e-05
-1.01628e-07
1.85276e-05
-1.11436e-07
1.84238e-05
-1.21773e-07
1.83092e-05
-1.32328e-07
1.81836e-05
-1.42563e-07
1.80473e-05
-1.51615e-07
1.79017e-05
-1.58198e-07
1.77495e-05
-1.60384e-07
1.75954e-05
-1.55629e-07
1.74475e-05
-1.39032e-07
1.73132e-05
-1.0937e-07
-2.69006e-08
1.71954e-05
1.9239e-05
1.92242e-05
1.92064e-05
1.91853e-05
1.91606e-05
1.91324e-05
1.91005e-05
1.90647e-05
1.90249e-05
1.89809e-05
1.89325e-05
1.88794e-05
1.88212e-05
1.87573e-05
1.86873e-05
1.86104e-05
1.8526e-05
1.84335e-05
1.83318e-05
1.82204e-05
1.80986e-05
1.79663e-05
1.78237e-05
1.76721e-05
1.75139e-05
1.73535e-05
1.71979e-05
1.70589e-05
1.69495e-05
1.69226e-05
2.23825e-05
-1.06047e-05
1.10586e-05
2.19306e-05
-1.07377e-05
1.11896e-05
2.1452e-05
-1.0865e-05
1.13437e-05
2.09433e-05
-1.09825e-05
1.14912e-05
2.04104e-05
-1.10983e-05
1.16312e-05
1.98588e-05
-1.12159e-05
1.17674e-05
1.92924e-05
-1.13361e-05
1.19026e-05
1.87138e-05
-1.14601e-05
1.20387e-05
1.81251e-05
-1.15891e-05
1.21778e-05
1.75271e-05
-1.1724e-05
1.2322e-05
1.69199e-05
-1.18655e-05
1.24727e-05
1.6303e-05
-1.20139e-05
1.26309e-05
1.56756e-05
-1.21702e-05
1.27976e-05
1.50369e-05
-1.23353e-05
1.2974e-05
1.4386e-05
-1.25107e-05
1.31615e-05
1.37219e-05
-1.2698e-05
1.33621e-05
1.30432e-05
-1.28994e-05
1.35781e-05
1.23481e-05
-1.31171e-05
1.38123e-05
1.1634e-05
-1.3354e-05
1.4068e-05
1.08978e-05
-1.36134e-05
1.43496e-05
1.01354e-05
-1.38995e-05
1.46619e-05
9.34121e-06
-1.42174e-05
1.50115e-05
8.50791e-06
-1.4573e-05
1.54063e-05
7.62552e-06
-1.49746e-05
1.5857e-05
6.68005e-06
-1.54301e-05
1.63755e-05
5.65147e-06
-1.59533e-05
1.69819e-05
4.52071e-06
-1.65507e-05
1.76814e-05
3.20645e-06
-1.72556e-05
1.85699e-05
1.79269e-06
-1.79832e-05
1.9397e-05
-1.91357e-05
2.09284e-05
2.2525e-05
-1.01318e-05
2.2019e-05
-1.02317e-05
2.14875e-05
-1.03335e-05
2.094e-05
-1.04351e-05
2.03812e-05
-1.05395e-05
1.98137e-05
-1.06483e-05
1.92387e-05
-1.07612e-05
1.86569e-05
-1.08783e-05
1.80678e-05
-1.1e-05
1.74706e-05
-1.11268e-05
1.68641e-05
-1.1259e-05
1.62476e-05
-1.13974e-05
1.56202e-05
-1.15428e-05
1.49813e-05
-1.16964e-05
1.43301e-05
-1.18594e-05
1.36652e-05
-1.20332e-05
1.29854e-05
-1.22195e-05
1.22884e-05
-1.24202e-05
1.15718e-05
-1.26374e-05
1.08323e-05
-1.28739e-05
1.00657e-05
-1.31329e-05
9.26644e-06
-1.34181e-05
8.4273e-06
-1.37339e-05
7.53858e-06
-1.40859e-05
6.58721e-06
-1.44787e-05
5.55596e-06
-1.4922e-05
4.42012e-06
-1.54148e-05
3.14229e-06
-1.59778e-05
1.72361e-06
-1.65645e-05
-1.74121e-05
2.24285e-05
-9.61838e-06
2.19012e-05
-9.70433e-06
2.13617e-05
-9.79406e-06
2.08149e-05
-9.88825e-06
2.02619e-05
-9.98646e-06
1.97018e-05
-1.00882e-05
1.91339e-05
-1.01933e-05
1.85575e-05
-1.03019e-05
1.7972e-05
-1.04145e-05
1.73767e-05
-1.05315e-05
1.67714e-05
-1.06537e-05
1.61557e-05
-1.07817e-05
1.55292e-05
-1.09163e-05
1.48912e-05
-1.10584e-05
1.42407e-05
-1.12089e-05
1.35764e-05
-1.13689e-05
1.28965e-05
-1.15397e-05
1.21991e-05
-1.17227e-05
1.14814e-05
-1.19197e-05
1.07402e-05
-1.21327e-05
9.97132e-06
-1.23639e-05
9.16923e-06
-1.2616e-05
8.32694e-06
-1.28916e-05
7.4352e-06
-1.31941e-05
6.4819e-06
-1.35254e-05
5.45112e-06
-1.38912e-05
4.32051e-06
-1.42842e-05
3.06502e-06
-1.47223e-05
1.65473e-06
-1.51543e-05
-1.57574e-05
2.23279e-05
-9.09667e-06
2.17976e-05
-9.17398e-06
2.12584e-05
-9.25483e-06
2.07116e-05
-9.3415e-06
2.01575e-05
-9.43231e-06
1.95952e-05
-9.52592e-06
1.90242e-05
-9.62237e-06
1.84445e-05
-9.72222e-06
1.78561e-05
-9.826e-06
1.72586e-05
-9.93411e-06
1.66519e-05
-1.0047e-05
1.60353e-05
-1.01651e-05
1.54081e-05
-1.02891e-05
1.47693e-05
-1.04196e-05
1.41178e-05
-1.05574e-05
1.34521e-05
-1.07032e-05
1.27705e-05
-1.08581e-05
1.20709e-05
-1.10231e-05
1.13506e-05
-1.11995e-05
1.06065e-05
-1.13886e-05
9.8343e-06
-1.15918e-05
9.02887e-06
-1.18106e-05
8.18351e-06
-1.20462e-05
7.28964e-06
-1.23003e-05
6.33633e-06
-1.25721e-05
5.30927e-06
-1.28642e-05
4.18994e-06
-1.31649e-05
2.95783e-06
-1.34902e-05
1.57689e-06
-1.37733e-05
-1.41805e-05
2.21887e-05
-8.56867e-06
2.16533e-05
-8.63859e-06
2.11101e-05
-8.71157e-06
2.05596e-05
-8.79102e-06
2.0002e-05
-8.87469e-06
1.94369e-05
-8.96079e-06
1.88639e-05
-9.04941e-06
1.8283e-05
-9.14127e-06
1.76937e-05
-9.23677e-06
1.70958e-05
-9.33614e-06
1.64885e-05
-9.43968e-06
1.58711e-05
-9.54777e-06
1.52429e-05
-9.66088e-06
1.46027e-05
-9.77951e-06
1.39496e-05
-9.90423e-06
1.32821e-05
-1.00356e-05
1.25984e-05
-1.01744e-05
1.18965e-05
-1.03212e-05
1.11738e-05
-1.04768e-05
1.04271e-05
-1.06419e-05
9.65254e-06
-1.08172e-05
8.8451e-06
-1.10031e-05
7.99865e-06
-1.11998e-05
7.10543e-06
-1.14071e-05
6.15583e-06
-1.16225e-05
5.13741e-06
-1.18458e-05
4.03515e-06
-1.20626e-05
2.83087e-06
-1.22859e-05
1.49317e-06
-1.24356e-05
-1.26873e-05
2.20096e-05
-8.03568e-06
2.147e-05
-8.09902e-06
2.09234e-05
-8.1649e-06
2.03699e-05
-8.23759e-06
1.98097e-05
-8.31449e-06
1.92424e-05
-8.39341e-06
1.86674e-05
-8.47444e-06
1.80845e-05
-8.55836e-06
1.74932e-05
-8.64553e-06
1.68932e-05
-8.73608e-06
1.62837e-05
-8.8302e-06
1.56641e-05
-8.92819e-06
1.50336e-05
-9.0304e-06
1.43913e-05
-9.13715e-06
1.37359e-05
-9.24882e-06
1.3066e-05
-9.36576e-06
1.238e-05
-9.48836e-06
1.16757e-05
-9.61697e-06
1.09508e-05
-9.75188e-06
1.02022e-05
-9.89329e-06
9.42619e-06
-1.00412e-05
8.6183e-06
-1.01952e-05
7.77302e-06
-1.03545e-05
6.88351e-06
-1.05175e-05
5.94157e-06
-1.06806e-05
4.93675e-06
-1.08409e-05
3.85719e-06
-1.09831e-05
2.68744e-06
-1.11162e-05
1.40465e-06
-1.11528e-05
-1.12827e-05
2.17848e-05
-7.49795e-06
2.1241e-05
-7.55523e-06
2.06906e-05
-7.61452e-06
2.01338e-05
-7.68075e-06
1.95703e-05
-7.75106e-06
1.89999e-05
-7.823e-06
1.84221e-05
-7.89663e-06
1.78365e-05
-7.97275e-06
1.72427e-05
-8.05171e-06
1.66401e-05
-8.13355e-06
1.60283e-05
-8.21835e-06
1.54064e-05
-8.30631e-06
1.47737e-05
-8.39765e-06
1.41291e-05
-8.49256e-06
1.34715e-05
-8.59122e-06
1.27995e-05
-8.69378e-06
1.21115e-05
-8.80038e-06
1.14056e-05
-8.91105e-06
1.06794e-05
-9.02571e-06
9.93021e-06
-9.1441e-06
9.15468e-06
-9.26565e-06
8.34881e-06
-9.38936e-06
7.50781e-06
-9.5135e-06
6.62588e-06
-9.63561e-06
5.69627e-06
-9.75096e-06
4.71055e-06
-9.85522e-06
3.65979e-06
-9.93233e-06
2.53157e-06
-9.98795e-06
1.31168e-06
-9.93293e-06
-9.97101e-06
2.15086e-05
-6.95554e-06
2.09606e-05
-7.00723e-06
2.04064e-05
-7.06036e-06
1.9846e-05
-7.12035e-06
1.92792e-05
-7.18425e-06
1.87056e-05
-7.2494e-06
1.81248e-05
-7.31582e-06
1.75364e-05
-7.38432e-06
1.69399e-05
-7.45521e-06
1.63348e-05
-7.52844e-06
1.57205e-05
-7.60403e-06
1.50963e-05
-7.68208e-06
1.44613e-05
-7.76269e-06
1.38147e-05
-7.84592e-06
1.31552e-05
-7.93181e-06
1.24818e-05
-8.02031e-06
1.17927e-05
-8.11134e-06
1.10863e-05
-8.20466e-06
1.03605e-05
-8.29989e-06
9.6128e-06
-8.39637e-06
8.84026e-06
-8.49311e-06
8.03948e-06
-8.58857e-06
7.20645e-06
-8.68048e-06
6.33647e-06
-8.76563e-06
5.42424e-06
-8.83872e-06
4.46328e-06
-8.89426e-06
3.44744e-06
-8.9165e-06
2.36744e-06
-8.90795e-06
1.21712e-06
-8.78261e-06
-8.75389e-06
2.11762e-05
-6.40855e-06
2.0624e-05
-6.45507e-06
2.00661e-05
-6.50245e-06
1.95022e-05
-6.55644e-06
1.8932e-05
-6.61408e-06
1.83553e-05
-6.67263e-06
1.77715e-05
-6.73204e-06
1.71803e-05
-6.79313e-06
1.65812e-05
-6.85614e-06
1.59738e-05
-6.92099e-06
1.53573e-05
-6.98759e-06
1.47312e-05
-7.05599e-06
1.40947e-05
-7.12618e-06
1.34469e-05
-7.19811e-06
1.27868e-05
-7.27168e-06
1.21132e-05
-7.34669e-06
1.14247e-05
-7.42286e-06
1.07198e-05
-7.49975e-06
9.99661e-06
-7.57671e-06
9.25305e-06
-7.65282e-06
8.48666e-06
-7.72672e-06
7.69465e-06
-7.79656e-06
6.87383e-06
-7.85965e-06
6.02057e-06
-7.91238e-06
5.13098e-06
-7.94913e-06
4.20047e-06
-7.96375e-06
3.22538e-06
-7.9414e-06
2.19941e-06
-7.88198e-06
1.12314e-06
-7.70634e-06
-7.63075e-06
2.07842e-05
-5.85725e-06
2.02282e-05
-5.899e-06
1.96668e-05
-5.9411e-06
1.90997e-05
-5.98934e-06
1.85265e-05
-6.04091e-06
1.7947e-05
-6.09308e-06
1.73607e-05
-6.14576e-06
1.67673e-05
-6.19971e-06
1.61663e-05
-6.25516e-06
1.55573e-05
-6.31194e-06
1.49396e-05
-6.36994e-06
1.43127e-05
-6.4291e-06
1.36759e-05
-6.48936e-06
1.30284e-05
-6.55056e-06
1.23692e-05
-6.61249e-06
1.16973e-05
-6.67483e-06
1.10116e-05
-6.73714e-06
1.03107e-05
-6.79882e-06
9.59298e-06
-6.85904e-06
8.85683e-06