/*--------------------------------*- C++ -*----------------------------------*\
  =========                 |
  \\      /  F ield         | OpenFOAM: The Open Source CFD Toolbox
   \\    /   O peration     | Website:  https://openfoam.org
    \\  /    A nd           | Version:  11
     \\/     M anipulation  |
\*---------------------------------------------------------------------------*/
FoamFile
{
    format      ascii;
    class       volVectorField;
    location    "9.1";
    object      U;
}
// * * * * * * * * * * * * * * * * * * * * * * * * * * * * * * * * * * * * * //

dimensions      [0 1 -1 0 0 0 0];

internalField   nonuniform List<vector> 
12600
(
(0.39966 0.000103974 0)
(0.399415 0.000175883 0)
(0.399046 0.000178528 0)
(0.398636 0.000176287 0)
(0.398251 0.000175447 0)
(0.397898 0.00017207 0)
(0.397572 0.000166525 0)
(0.397275 0.000158853 0)
(0.397015 0.000149012 0)
(0.396803 0.000136082 0)
(0.396652 0.000119844 0)
(0.396577 0.000101565 0)
(0.396596 7.49715e-05 0)
(0.396732 3.94788e-05 0)
(0.397011 -4.86e-06 0)
(0.397466 -5.97809e-05 0)
(0.398139 -0.000122398 0)
(0.399079 -0.000200751 0)
(0.400349 -0.000298936 0)
(0.402018 -0.000418396 0)
(0.404173 -0.000564014 0)
(0.406926 -0.000744527 0)
(0.410419 -0.00096566 0)
(0.414823 -0.0012375 0)
(0.420343 -0.00157408 0)
(0.427229 -0.00198063 0)
(0.435755 -0.00248097 0)
(0.446268 -0.00301219 0)
(0.459157 -0.00397122 0)
(0.477062 -0.00349503 0)
(0.400037 0.000146488 0)
(0.400183 0.000249156 0)
(0.400372 0.000220648 0)
(0.400496 0.000198471 0)
(0.400624 0.00018396 0)
(0.400778 0.000167041 0)
(0.400957 0.000144875 0)
(0.401163 0.000118155 0)
(0.401401 8.54125e-05 0)
(0.401683 4.44995e-05 0)
(0.40202 -6.78722e-06 0)
(0.402426 -7.136e-05 0)
(0.402916 -0.000150533 0)
(0.40351 -0.000246894 0)
(0.404229 -0.000364549 0)
(0.405101 -0.000508203 0)
(0.406156 -0.000685031 0)
(0.407431 -0.000902641 0)
(0.408983 -0.00117039 0)
(0.410841 -0.00150015 0)
(0.413191 -0.00190551 0)
(0.416058 -0.00240311 0)
(0.41957 -0.00301451 0)
(0.423878 -0.00376351 0)
(0.429149 -0.00467813 0)
(0.435607 -0.00579257 0)
(0.443536 -0.00715902 0)
(0.453276 -0.00876014 0)
(0.465225 -0.0109917 0)
(0.479831 -0.0118893 0)
(0.400024 6.94059e-05 0)
(0.400115 0.000111892 0)
(0.400242 8.49238e-05 0)
(0.400364 6.24063e-05 0)
(0.400489 4.70632e-05 0)
(0.400635 2.47984e-05 0)
(0.400807 -7.70704e-06 0)
(0.401005 -4.98552e-05 0)
(0.401234 -0.000102811 0)
(0.401503 -0.000167438 0)
(0.401821 -0.000248384 0)
(0.402203 -0.000349202 0)
(0.402666 -0.000473708 0)
(0.40323 -0.000626697 0)
(0.403917 -0.000814117 0)
(0.404757 -0.00104331 0)
(0.405784 -0.00132261 0)
(0.407041 -0.00166463 0)
(0.408579 -0.00208316 0)
(0.41046 -0.00260219 0)
(0.412756 -0.00324448 0)
(0.415561 -0.00403196 0)
(0.418993 -0.00499924 0)
(0.423199 -0.00618257 0)
(0.428356 -0.00762953 0)
(0.434695 -0.00940371 0)
(0.442447 -0.0115863 0)
(0.452054 -0.0141879 0)
(0.463511 -0.0176062 0)
(0.478793 -0.0201551 0)
(0.400016 3.6469e-05 0)
(0.400083 7.56717e-05 0)
(0.400193 6.76742e-05 0)
(0.400309 4.26928e-05 0)
(0.400429 1.55828e-05 0)
(0.400568 -1.73145e-05 0)
(0.400733 -6.06647e-05 0)
(0.400924 -0.000115545 0)
(0.401146 -0.000183648 0)
(0.401406 -0.00027019 0)
(0.401715 -0.000379341 0)
(0.402085 -0.000516095 0)
(0.402533 -0.000686102 0)
(0.403078 -0.000895704 0)
(0.403743 -0.00115285 0)
(0.404555 -0.00146757 0)
(0.405548 -0.00185236 0)
(0.406761 -0.00232396 0)
(0.408245 -0.00290267 0)
(0.410058 -0.0036163 0)
(0.412273 -0.0044948 0)
(0.414979 -0.00557175 0)
(0.418291 -0.00689317 0)
(0.422348 -0.00851498 0)
(0.427322 -0.0105059 0)
(0.433441 -0.0129456 0)
(0.440927 -0.0159424 0)
(0.450242 -0.0195286 0)
(0.461328 -0.0241663 0)
(0.476336 -0.0282669 0)
(0.400012 1.53891e-05 0)
(0.400061 3.02731e-05 0)
(0.400151 1.08394e-05 0)
(0.400259 -2.89296e-05 0)
(0.400376 -7.13452e-05 0)
(0.400509 -0.000118008 0)
(0.400667 -0.000174346 0)
(0.40085 -0.000244203 0)
(0.401062 -0.000331017 0)
(0.401312 -0.000440583 0)
(0.401607 -0.000578558 0)
(0.401962 -0.000751241 0)
(0.402392 -0.000965586 0)
(0.402913 -0.00122973 0)
(0.403549 -0.00155378 0)
(0.404324 -0.00195032 0)
(0.405272 -0.00243513 0)
(0.406429 -0.00302861 0)
(0.407843 -0.00375627 0)
(0.409571 -0.00465034 0)
(0.41168 -0.0057487 0)
(0.414258 -0.00709698 0)
(0.417412 -0.00875309 0)
(0.421276 -0.0107869 0)
(0.426014 -0.0132845 0)
(0.431847 -0.0163499 0)
(0.43898 -0.0201212 0)
(0.447895 -0.0246742 0)
(0.458475 -0.0304707 0)
(0.473038 -0.0361986 0)
(0.400009 2.58922e-08 0)
(0.400048 -7.05835e-06 0)
(0.400125 -3.44337e-05 0)
(0.400224 -7.68611e-05 0)
(0.400335 -0.000125956 0)
(0.400462 -0.000181196 0)
(0.400611 -0.000247398 0)
(0.400784 -0.000329179 0)
(0.400986 -0.000431305 0)
(0.401222 -0.000560296 0)
(0.401502 -0.000723309 0)
(0.401838 -0.000927954 0)
(0.402244 -0.00118259 0)
(0.402736 -0.00149699 0)
(0.403336 -0.00188316 0)
(0.404067 -0.00235617 0)
(0.404959 -0.00293505 0)
(0.406048 -0.00364391 0)
(0.407377 -0.00451282 0)
(0.408999 -0.00557911 0)
(0.41098 -0.00688825 0)
(0.413401 -0.00849574 0)
(0.416361 -0.0104706 0)
(0.419987 -0.0128979 0)
(0.424433 -0.0158833 0)
(0.429909 -0.0195531 0)
(0.436608 -0.0240704 0)
(0.445015 -0.0295565 0)
(0.454968 -0.0364715 0)
(0.468914 -0.0437947 0)
(0.400007 -1.157e-05 0)
(0.400039 -3.74376e-05 0)
(0.400106 -7.55564e-05 0)
(0.400195 -0.000126285 0)
(0.400299 -0.000185533 0)
(0.400418 -0.000252428 0)
(0.400557 -0.000330903 0)
(0.400719 -0.000426509 0)
(0.400908 -0.000545437 0)
(0.401128 -0.000695126 0)
(0.40139 -0.000883809 0)
(0.401704 -0.00112029 0)
(0.402082 -0.00141432 0)
(0.40254 -0.00177718 0)
(0.403097 -0.00222271 0)
(0.403776 -0.00276826 0)
(0.404604 -0.0034356 0)
(0.405612 -0.00425218 0)
(0.406843 -0.00525224 0)
(0.408343 -0.00647829 0)
(0.410175 -0.0079827 0)
(0.412411 -0.00982997 0)
(0.415143 -0.0121002 0)
(0.418491 -0.0148921 0)
(0.422593 -0.0183282 0)
(0.427648 -0.0225566 0)
(0.433833 -0.0277674 0)
(0.441625 -0.0341323 0)
(0.450826 -0.042106 0)
(0.463971 -0.0509844 0)
(0.400006 -2.08669e-05 0)
(0.400033 -6.3296e-05 0)
(0.400091 -0.000112626 0)
(0.400171 -0.000171918 0)
(0.400266 -0.000239834 0)
(0.400377 -0.000316129 0)
(0.400505 -0.000404637 0)
(0.400655 -0.000511574 0)
(0.400829 -0.000644213 0)
(0.401033 -0.000811032 0)
(0.401274 -0.00102145 0)
(0.401562 -0.00128552 0)
(0.401908 -0.00161417 0)
(0.402328 -0.00202005 0)
(0.402837 -0.00251863 0)
(0.403457 -0.00312929 0)
(0.404211 -0.0038764 0)
(0.405129 -0.00479051 0)
(0.406247 -0.00590977 0)
(0.40761 -0.00728153 0)
(0.409271 -0.00896433 0)
(0.411298 -0.0110307 0)
(0.413773 -0.0135705 0)
(0.416803 -0.0166952 0)
(0.420513 -0.0205437 0)
(0.425086 -0.0252856 0)
(0.430678 -0.0311374 0)
(0.437751 -0.0383198 0)
(0.446078 -0.0472836 0)
(0.458223 -0.0576578 0)
(0.400005 -2.875e-05 0)
(0.400028 -8.55145e-05 0)
(0.400078 -0.000145781 0)
(0.40015 -0.000213453 0)
(0.400236 -0.000289382 0)
(0.400337 -0.000374458 0)
(0.400454 -0.000472612 0)
(0.40059 -0.000590486 0)
(0.400748 -0.000736339 0)
(0.400933 -0.000919666 0)
(0.401151 -0.00115083 0)
(0.40141 -0.00144082 0)
(0.401722 -0.00180163 0)
(0.402098 -0.00224716 0)
(0.402555 -0.00279433 0)
(0.403108 -0.00346432 0)
(0.403781 -0.00428372 0)
(0.404599 -0.00528585 0)
(0.405594 -0.00651227 0)
(0.406805 -0.00801458 0)
(0.408278 -0.00985683 0)
(0.410074 -0.0121185 0)
(0.412263 -0.0148984 0)
(0.41494 -0.0183194 0)
(0.418215 -0.022535 0)
(0.422248 -0.0277347 0)
(0.427177 -0.0341595 0)
(0.43343 -0.0420784 0)
(0.440765 -0.0519413 0)
(0.451697 -0.0637201 0)
(0.400004 -3.54149e-05 0)
(0.400024 -0.000104584 0)
(0.400067 -0.000174952 0)
(0.40013 -0.000250711 0)
(0.400208 -0.00033418 0)
(0.400298 -0.000427243 0)
(0.400403 -0.000534067 0)
(0.400524 -0.000661659 0)
(0.400665 -0.000819039 0)
(0.400829 -0.00101656 0)
(0.401022 -0.00126546 0)
(0.401251 -0.00157765 0)
(0.401525 -0.00196608 0)
(0.401854 -0.00244573 0)
(0.402253 -0.00303478 0)
(0.402735 -0.00375599 0)
(0.40332 -0.00463787 0)
(0.40403 -0.00571613 0)
(0.404891 -0.00703528 0)
(0.405936 -0.00865064 0)
(0.407207 -0.0106309 0)
(0.408751 -0.0130616 0)
(0.410631 -0.016049 0)
(0.412925 -0.0197259 0)
(0.415725 -0.0242586 0)
(0.419169 -0.0298539 0)
(0.423369 -0.0367757 0)
(0.42871 -0.0453384 0)
(0.43494 -0.0559926 0)
(0.444441 -0.0690493 0)
(0.400004 -4.10774e-05 0)
(0.40002 -0.00012094 0)
(0.400058 -0.000200408 0)
(0.400112 -0.000283662 0)
(0.40018 -0.000373959 0)
(0.40026 -0.00047403 0)
(0.400352 -0.00058839 0)
(0.400458 -0.00072437 0)
(0.40058 -0.000891627 0)
(0.400722 -0.00110131 0)
(0.400888 -0.00136543 0)
(0.401084 -0.00169667 0)
(0.401318 -0.00210879 0)
(0.401598 -0.00261763 0)
(0.401935 -0.00324244 0)
(0.402341 -0.00400723 0)
(0.402832 -0.00494212 0)
(0.403426 -0.00608479 0)
(0.404144 -0.00748216 0)
(0.405014 -0.00919257 0)
(0.406068 -0.0112885 0)
(0.407345 -0.0138603 0)
(0.408895 -0.0170204 0)
(0.41078 -0.0209095 0)
(0.413072 -0.0257044 0)
(0.415884 -0.0316264 0)
(0.419299 -0.0389591 0)
(0.423644 -0.0480566 0)
(0.428669 -0.0593716 0)
(0.436528 -0.0735366 0)
(0.400003 -4.58682e-05 0)
(0.400017 -0.000134859 0)
(0.400049 -0.000222297 0)
(0.400096 -0.000312243 0)
(0.400154 -0.000408536 0)
(0.400222 -0.000514578 0)
(0.4003 -0.000635262 0)
(0.40039 -0.000778238 0)
(0.400494 -0.000953666 0)
(0.400612 -0.00117333 0)
(0.40075 -0.00144987 0)
(0.400912 -0.00179658 0)
(0.401103 -0.00222783 0)
(0.40133 -0.00276019 0)
(0.401603 -0.00341372 0)
(0.401929 -0.00421347 0)
(0.402321 -0.00519082 0)
(0.402794 -0.00638494 0)
(0.403362 -0.00784464 0)
(0.404048 -0.00963057 0)
(0.404874 -0.0118181 0)
(0.405871 -0.0145011 0)
(0.407075 -0.0177967 0)
(0.40853 -0.0218512 0)
(0.41029 -0.0268494 0)
(0.412435 -0.0330237 0)
(0.41502 -0.0406726 0)
(0.4183 -0.0501829 0)
(0.422036 -0.0620079 0)
(0.428059 -0.0770688 0)
(0.400003 -4.98714e-05 0)
(0.400014 -0.00014653 0)
(0.400041 -0.000240761 0)
(0.400079 -0.00033646 0)
(0.400128 -0.000437811 0)
(0.400185 -0.000548723 0)
(0.400249 -0.000674452 0)
(0.400323 -0.000822929 0)
(0.400406 -0.0010047 0)
(0.400501 -0.00123201 0)
(0.400609 -0.001518 0)
(0.400735 -0.00187641 0)
(0.400882 -0.00232213 0)
(0.401055 -0.00287221 0)
(0.40126 -0.00354736 0)
(0.401504 -0.00437335 0)
(0.401794 -0.00538241 0)
(0.40214 -0.0066148 0)
(0.402553 -0.00812062 0)
(0.403048 -0.00996205 0)
(0.403639 -0.0122164 0)
(0.404347 -0.0149798 0)
(0.405192 -0.0183722 0)
(0.406204 -0.0225436 0)
(0.407412 -0.0276835 0)
(0.408866 -0.0340313 0)
(0.410589 -0.0418948 0)
(0.412751 -0.0516842 0)
(0.415134 -0.0638493 0)
(0.41916 -0.0795514 0)
(0.400002 -5.31475e-05 0)
(0.400011 -0.000156102 0)
(0.400033 -0.000255936 0)
(0.400064 -0.000356353 0)
(0.400103 -0.000461727 0)
(0.400148 -0.000576348 0)
(0.400199 -0.000705785 0)
(0.400255 -0.000858197 0)
(0.400318 -0.00104438 0)
(0.400388 -0.00127692 0)
(0.400467 -0.00156929 0)
(0.400556 -0.00193557 0)
(0.400658 -0.00239093 0)
(0.400775 -0.00295277 0)
(0.400911 -0.00364216 0)
(0.401069 -0.0044853 0)
(0.401254 -0.00551496 0)
(0.401472 -0.00677198 0)
(0.401727 -0.00830714 0)
(0.402026 -0.0101834 0)
(0.402377 -0.012479 0)
(0.402789 -0.015291 0)
(0.403269 -0.0187406 0)
(0.403828 -0.0229789 0)
(0.404475 -0.0281971 0)
(0.405223 -0.0346366 0)
(0.406066 -0.0426083 0)
(0.407081 -0.0525346 0)
(0.408073 -0.064855 0)
(0.40999 -0.0809084 0)
(0.400002 -5.57464e-05 0)
(0.400009 -0.000163701 0)
(0.400025 -0.000267961 0)
(0.400049 -0.000372004 0)
(0.400079 -0.000480298 0)
(0.400113 -0.000597416 0)
(0.400149 -0.000729175 0)
(0.400189 -0.000883895 0)
(0.400231 -0.00107252 0)
(0.400276 -0.00130781 0)
(0.400324 -0.00160343 0)
(0.400376 -0.00197363 0)
(0.400432 -0.0024337 0)
(0.400492 -0.0030012 0)
(0.400558 -0.00369733 0)
(0.40063 -0.00454844 0)
(0.400709 -0.00558743 0)
(0.400796 -0.00685528 0)
(0.400891 -0.00840284 0)
(0.400993 -0.0102931 0)
(0.401102 -0.0126043 0)
(0.401215 -0.015433 0)
(0.401328 -0.0188998 0)
(0.401433 -0.0231548 0)
(0.401515 -0.0283871 0)
(0.401556 -0.0348356 0)
(0.401517 -0.0428071 0)
(0.401378 -0.0527236 0)
(0.400969 -0.0650056 0)
(0.400727 -0.0810954 0)
(0.400001 -5.77161e-05 0)
(0.400006 -0.000169456 0)
(0.400018 -0.000276988 0)
(0.400036 -0.000383534 0)
(0.400056 -0.000493591 0)
(0.400078 -0.000611944 0)
(0.400101 -0.00074461 0)
(0.400123 -0.000899984 0)
(0.400145 -0.00108904 0)
(0.400165 -0.00132456 0)
(0.400183 -0.00162026 0)
(0.400197 -0.00199039 0)
(0.400207 -0.00245022 0)
(0.40021 -0.00301725 0)
(0.400206 -0.00371258 0)
(0.400192 -0.00456241 0)
(0.400165 -0.00559942 0)
(0.400121 -0.00686426 0)
(0.400055 -0.00840729 0)
(0.399961 -0.0102908 0)
(0.399828 -0.0125918 0)
(0.399645 -0.0154054 0)
(0.399392 -0.0188499 0)
(0.399046 -0.0230717 0)
(0.39857 -0.0282548 0)
(0.397913 -0.0346307 0)
(0.397004 -0.0424946 0)
(0.395731 -0.0522551 0)
(0.393945 -0.0643034 0)
(0.391565 -0.0801041 0)
(0.400001 -5.91086e-05 0)
(0.400004 -0.000173508 0)
(0.400012 -0.0002832 0)
(0.400023 -0.000391109 0)
(0.400035 -0.000501726 0)
(0.400045 -0.000620029 0)
(0.400054 -0.00075217 0)
(0.40006 -0.000906529 0)
(0.400061 -0.00109398 0)
(0.400057 -0.00132722 0)
(0.400044 -0.00161983 0)
(0.400021 -0.00198591 0)
(0.399985 -0.00244056 0)
(0.399932 -0.00300099 0)
(0.399859 -0.00368802 0)
(0.399759 -0.00452739 0)
(0.399626 -0.00555122 0)
(0.399453 -0.00679934 0)
(0.399229 -0.00832107 0)
(0.39894 -0.0101772 0)
(0.398569 -0.0124428 0)
(0.398094 -0.0152103 0)
(0.397483 -0.0185937 0)
(0.396696 -0.022734 0)
(0.395676 -0.0278067 0)
(0.394342 -0.0340314 0)
(0.392592 -0.0416844 0)
(0.390229 -0.0511486 0)
(0.387121 -0.0627749 0)
(0.382702 -0.0779687 0)
(0.4 -5.99854e-05 0)
(0.400002 -0.000176023 0)
(0.400006 -0.000286816 0)
(0.400011 -0.000394939 0)
(0.400015 -0.000504886 0)
(0.400015 -0.000621833 0)
(0.40001 -0.000752016 0)
(0.399999 -0.000903692 0)
(0.399981 -0.00108752 0)
(0.399952 -0.00131597 0)
(0.39991 -0.00160235 0)
(0.399851 -0.00196047 0)
(0.39977 -0.00240504 0)
(0.399661 -0.00295287 0)
(0.399519 -0.00362421 0)
(0.399336 -0.00444411 0)
(0.3991 -0.00544374 0)
(0.3988 -0.00666174 0)
(0.398421 -0.00814581 0)
(0.397943 -0.00995466 0)
(0.39734 -0.0121604 0)
(0.396581 -0.0148516 0)
(0.395623 -0.018137 0)
(0.39441 -0.0221497 0)
(0.392868 -0.027054 0)
(0.390887 -0.0330537 0)
(0.38834 -0.0404002 0)
(0.384956 -0.049439 0)
(0.380614 -0.060471 0)
(0.374328 -0.074766 0)
(0.4 -6.04214e-05 0)
(0.400001 -0.000177214 0)
(0.400001 -0.000288106 0)
(0.400001 -0.000395281 0)
(0.399997 -0.000503299 0)
(0.399987 -0.000617582 0)
(0.399969 -0.00074439 0)
(0.399942 -0.000891745 0)
(0.399905 -0.00106997 0)
(0.399852 -0.00129116 0)
(0.399781 -0.00156825 0)
(0.399687 -0.00191456 0)
(0.399562 -0.00234431 0)
(0.3994 -0.00287366 0)
(0.399192 -0.00352213 0)
(0.398927 -0.00431379 0)
(0.398591 -0.00527855 0)
(0.398169 -0.00645345 0)
(0.39764 -0.00788408 0)
(0.396979 -0.00962639 0)
(0.396153 -0.0117489 0)
(0.395122 -0.0143353 0)
(0.393832 -0.0174875 0)
(0.392214 -0.0213295 0)
(0.390178 -0.0260122 0)
(0.38759 -0.0317198 0)
(0.384302 -0.0386743 0)
(0.379987 -0.0471745 0)
(0.374525 -0.0574642 0)
(0.36661 -0.0706133 0)
(0.4 -6.05184e-05 0)
(0.399999 -0.000177343 0)
(0.399998 -0.0002874 0)
(0.399993 -0.000392443 0)
(0.399982 -0.000497254 0)
(0.399962 -0.000607578 0)
(0.399932 -0.00072961 0)
(0.39989 -0.000871017 0)
(0.399834 -0.0010417 0)
(0.399759 -0.00125328 0)
(0.39966 -0.00151813 0)
(0.399532 -0.00184894 0)
(0.399366 -0.00225926 0)
(0.399152 -0.0027645 0)
(0.398881 -0.00338318 0)
(0.398538 -0.00413818 0)
(0.398107 -0.00505785 0)
(0.397567 -0.00617722 0)
(0.396896 -0.00753934 0)
(0.39606 -0.00919687 0)
(0.395022 -0.011214 0)
(0.393733 -0.0136687 0)
(0.392129 -0.0166553 0)
(0.390131 -0.0202872 0)
(0.387634 -0.0247 0)
(0.384488 -0.0300566 0)
(0.380525 -0.0365462 0)
(0.375382 -0.0444146 0)
(0.36894 -0.0538449 0)
(0.359679 -0.0656606 0)
(0.4 -6.04135e-05 0)
(0.399999 -0.000176756 0)
(0.399995 -0.000285103 0)
(0.399987 -0.000386776 0)
(0.399969 -0.000487069 0)
(0.399941 -0.000592183 0)
(0.399899 -0.000708122 0)
(0.399843 -0.000842024 0)
(0.39977 -0.00100326 0)
(0.399673 -0.0012029 0)
(0.399549 -0.00145265 0)
(0.399388 -0.00176446 0)
(0.399182 -0.00215101 0)
(0.39892 -0.00262678 0)
(0.398589 -0.00320916 0)
(0.398172 -0.00391956 0)
(0.397651 -0.00478451 0)
(0.397001 -0.0058367 0)
(0.396195 -0.00711621 0)
(0.395195 -0.00867193 0)
(0.393958 -0.0105632 0)
(0.392427 -0.0128615 0)
(0.390532 -0.0156528 0)
(0.388182 -0.019039 0)
(0.385263 -0.0231398 0)
(0.381611 -0.028095 0)
(0.377046 -0.0340605 0)
(0.37119 -0.0412264 0)
(0.363918 -0.0497155 0)
(0.353622 -0.0600802 0)
(0.4 -6.02969e-05 0)
(0.399999 -0.000175925 0)
(0.399995 -0.000281694 0)
(0.399984 -0.000378655 0)
(0.399961 -0.000473102 0)
(0.399924 -0.000571802 0)
(0.399872 -0.000680367 0)
(0.399803 -0.000805283 0)
(0.399713 -0.000955328 0)
(0.399597 -0.0011409 0)
(0.399448 -0.00137287 0)
(0.399257 -0.00166228 0)
(0.399015 -0.00202085 0)
(0.398707 -0.002462 0)
(0.39832 -0.00300179 0)
(0.397834 -0.00365998 0)
(0.397229 -0.00446103 0)
(0.396477 -0.00543499 0)
(0.395545 -0.00661863 0)
(0.394394 -0.00805666 0)
(0.392972 -0.00980305 0)
(0.391219 -0.0119225 0)
(0.389057 -0.014492 0)
(0.386386 -0.0176015 0)
(0.383086 -0.0213544 0)
(0.378985 -0.0258676 0)
(0.373895 -0.0312642 0)
(0.367442 -0.03768 0)
(0.359497 -0.0451834 0)
(0.348479 -0.0540535 0)
(0.4 -6.0447e-05 0)
(0.4 -0.00017549 0)
(0.399997 -0.000277752 0)
(0.399985 -0.000368513 0)
(0.399957 -0.000455798 0)
(0.399913 -0.000546877 0)
(0.399851 -0.000646719 0)
(0.39977 -0.000761179 0)
(0.399665 -0.00089848 0)
(0.399531 -0.00106821 0)
(0.39936 -0.0012802 0)
(0.399142 -0.00154441 0)
(0.398865 -0.00187154 0)
(0.398516 -0.00227374 0)
(0.398078 -0.00276558 0)
(0.397529 -0.00336501 0)
(0.396847 -0.00409416 0)
(0.396001 -0.00498017 0)
(0.394955 -0.00605617 0)
(0.393665 -0.00736228 0)
(0.392076 -0.00894679 0)
(0.390121 -0.0108672 0)
(0.387717 -0.0131913 0)
(0.38476 -0.015997 0)
(0.381121 -0.0193718 0)
(0.376629 -0.0234105 0)
(0.371091 -0.0282063 0)
(0.364153 -0.0338459 0)
(0.355686 -0.0403537 0)
(0.344236 -0.047757 0)
(0.400001 -6.13159e-05 0)
(0.400003 -0.000176323 0)
(0.400003 -0.000273837 0)
(0.399991 -0.000356759 0)
(0.39996 -0.000435805 0)
(0.399908 -0.000518295 0)
(0.399838 -0.000608107 0)
(0.399746 -0.000710411 0)
(0.399629 -0.000832877 0)
(0.399478 -0.000984243 0)
(0.399286 -0.00117323 0)
(0.399044 -0.00140872 0)
(0.398737 -0.00170024 0)
(0.39835 -0.0020586 0)
(0.397865 -0.00249675 0)
(0.39726 -0.0030306 0)
(0.396508 -0.0036798 0)
(0.395578 -0.00446842 0)
(0.39443 -0.00542575 0)
(0.393016 -0.00658708 0)
(0.391277 -0.0079947 0)
(0.389143 -0.00969872 0)
(0.386525 -0.0117575 0)
(0.383316 -0.0142376 0)
(0.379383 -0.0172109 0)
(0.374556 -0.0207521 0)
(0.368645 -0.0249285 0)
(0.361325 -0.0297859 0)
(0.352471 -0.0353192 0)
(0.340835 -0.041347 0)
(0.400002 -6.36929e-05 0)
(0.400009 -0.000179724 0)
(0.400015 -0.00027034 0)
(0.400004 -0.00034321 0)
(0.399969 -0.000413125 0)
(0.399912 -0.000486782 0)
(0.399835 -0.000566563 0)
(0.399734 -0.000656915 0)
(0.399605 -0.000764766 0)
(0.39944 -0.000897686 0)
(0.399231 -0.00106306 0)
(0.398966 -0.00126859 0)
(0.398633 -0.00152251 0)
(0.398213 -0.00183421 0)
(0.397687 -0.002215 0)
(0.397033 -0.00267862 0)
(0.39622 -0.00324195 0)
(0.395216 -0.00392568 0)
(0.393978 -0.00475497 0)
(0.392455 -0.00576012 0)
(0.390586 -0.00697725 0)
(0.388296 -0.00844898 0)
(0.385493 -0.0102245 0)
(0.382066 -0.0123593 0)
(0.377884 -0.0149111 0)
(0.372777 -0.0179361 0)
(0.366561 -0.0214815 0)
(0.358948 -0.0255618 0)
(0.349819 -0.030162 0)
(0.33818 -0.0349518 0)
(0.400004 -6.89214e-05 0)
(0.40002 -0.00018801 0)
(0.400035 -0.000268769 0)
(0.400027 -0.000328015 0)
(0.399989 -0.000385321 0)
(0.399926 -0.00044619 0)
(0.399842 -0.000511823 0)
(0.399734 -0.000586271 0)
(0.399594 -0.000675793 0)
(0.399417 -0.000786688 0)
(0.399193 -0.000924798 0)
(0.398911 -0.00109667 0)
(0.398554 -0.00130911 0)
(0.398106 -0.00156985 0)
(0.397546 -0.00188826 0)
(0.396849 -0.00227591 0)
(0.395986 -0.00274703 0)
(0.394918 -0.00331891 0)
(0.393604 -0.00401238 0)
(0.39199 -0.00485243 0)
(0.390011 -0.00586883 0)
(0.387589 -0.00709661 0)
(0.384631 -0.00857614 0)
(0.381023 -0.0103526 0)
(0.376635 -0.012471 0)
(0.371302 -0.0149708 0)
(0.364847 -0.0178841 0)
(0.357018 -0.0212033 0)
(0.347708 -0.0249297 0)
(0.336186 -0.0286543 0)
(0.400008 -7.86842e-05 0)
(0.400039 -0.000202431 0)
(0.400069 -0.000274459 0)
(0.400065 -0.000325476 0)
(0.400024 -0.000375433 0)
(0.399957 -0.00042711 0)
(0.399869 -0.000481623 0)
(0.399754 -0.000542821 0)
(0.399606 -0.000615839 0)
(0.399419 -0.000705724 0)
(0.399183 -0.000816687 0)
(0.398885 -0.000954199 0)
(0.39851 -0.0011237 0)
(0.39804 -0.0013315 0)
(0.397452 -0.00158511 0)
(0.396721 -0.00189351 0)
(0.395816 -0.00226777 0)
(0.394698 -0.00272156 0)
(0.393323 -0.00327145 0)
(0.391636 -0.00393721 0)
(0.38957 -0.00474225 0)
(0.387045 -0.00571397 0)
(0.383965 -0.00688406 0)
(0.380218 -0.00828908 0)
(0.375676 -0.00996257 0)
(0.370182 -0.0119288 0)
(0.363567 -0.0142103 0)
(0.355609 -0.0167797 0)
(0.346215 -0.0196841 0)
(0.334879 -0.022494 0)
(0.400015 -0.000100354 0)
(0.400069 -0.000203128 0)
(0.400117 -0.000243331 0)
(0.400115 -0.000276143 0)
(0.400072 -0.00031281 0)
(0.400003 -0.000350054 0)
(0.399912 -0.000389054 0)
(0.399792 -0.000434065 0)
(0.399639 -0.000488631 0)
(0.399445 -0.00055566 0)
(0.3992 -0.000638674 0)
(0.398891 -0.000740817 0)
(0.398502 -0.00086599 0)
(0.398014 -0.0010188 0)
(0.397405 -0.00120479 0)
(0.396649 -0.0014309 0)
(0.395713 -0.00170556 0)
(0.394558 -0.00203868 0)
(0.39314 -0.00244211 0)
(0.391401 -0.00293002 0)
(0.389275 -0.00351933 0)
(0.386683 -0.00422999 0)
(0.383528 -0.00508512 0)
(0.379703 -0.00611485 0)
(0.375082 -0.0073431 0)
(0.369511 -0.00878091 0)
(0.362836 -0.0104458 0)
(0.354821 -0.0122901 0)
(0.345457 -0.0144167 0)
(0.334021 -0.0162966 0)
(0.400024 -0.000166119 0)
(0.400171 -0.000323542 0)
(0.400221 -0.000317779 0)
(0.400192 -0.000328398 0)
(0.400134 -0.000349321 0)
(0.400057 -0.000371751 0)
(0.399954 -0.000395779 0)
(0.399819 -0.000422427 0)
(0.399645 -0.000456353 0)
(0.399424 -0.000498898 0)
(0.399145 -0.000547931 0)
(0.398797 -0.000611584 0)
(0.398363 -0.000689428 0)
(0.397825 -0.000784816 0)
(0.397159 -0.000901393 0)
(0.396339 -0.00104302 0)
(0.395333 -0.00121477 0)
(0.394102 -0.00142325 0)
(0.392599 -0.0016765 0)
(0.39077 -0.00198392 0)
(0.388546 -0.00235645 0)
(0.385848 -0.00280671 0)
(0.382578 -0.00334917 0)
(0.378632 -0.00399947 0)
(0.373794 -0.0047712 0)
(0.367936 -0.00567321 0)
(0.360933 -0.00671334 0)
(0.352487 -0.00785341 0)
(0.342899 -0.0092188 0)
(0.329761 -0.0098581 0)
(0.399645 -0.000114816 0)
(0.399345 -0.000192385 0)
(0.398876 -0.000208227 0)
(0.398325 -0.000217534 0)
(0.397751 -0.000228431 0)
(0.397159 -0.00023858 0)
(0.39654 -0.000248389 0)
(0.395886 -0.000259435 0)
(0.39519 -0.00027214 0)
(0.394445 -0.000287133 0)
(0.393638 -0.000306016 0)
(0.392756 -0.00032897 0)
(0.391781 -0.000356876 0)
(0.39069 -0.000390731 0)
(0.389459 -0.000431829 0)
(0.388056 -0.000482185 0)
(0.386444 -0.000544039 0)
(0.384578 -0.000619662 0)
(0.382402 -0.000711679 0)
(0.379849 -0.000823429 0)
(0.376839 -0.000959083 0)
(0.373274 -0.00112356 0)
(0.36904 -0.00132235 0)
(0.364008 -0.00155771 0)
(0.358035 -0.00183386 0)
(0.350954 -0.00215647 0)
(0.342581 -0.00253024 0)
(0.332729 -0.00291781 0)
(0.321374 -0.00353235 0)
(0.304529 -0.00291326 0)
(0.484296 -0.00824585 1.18564e-20)
(0.491367 -0.0127823 -1.54203e-17)
(0.497645 -0.0178246 1.54977e-17)
(0.502691 -0.0232945 7.79165e-18)
(0.507084 -0.0291419 5.88587e-18)
(0.511152 -0.0353646 1.18782e-17)
(0.514992 -0.0420141 5.96965e-18)
(0.518672 -0.0491616 1.60826e-17)
(0.522272 -0.0568628 8.12097e-18)
(0.525848 -0.0651536 4.08148e-18)
(0.529415 -0.0740652 -4.13019e-18)
(0.532966 -0.0836358 8.3034e-18)
(0.536491 -0.0939162 4.22549e-18)
(0.539987 -0.104972 4.24772e-18)
(0.54346 -0.116886 8.56692e-18)
(0.546923 -0.12976 4.34605e-18)
(0.550393 -0.14372 1.30797e-17)
(0.553891 -0.158918 0)
(0.557437 -0.175541 0)
(0.561056 -0.193821 4.43473e-18)
(0.564773 -0.214045 -3.66944e-20)
(0.568619 -0.236573 4.5247e-18)
(0.57262 -0.261858 0)
(0.576809 -0.290492 8.99909e-18)
(0.581259 -0.323136 4.47925e-18)
(0.585633 -0.361189 -4.54073e-18)
(0.59182 -0.403678 4.43157e-18)
(0.591875 -0.463079 4.42276e-18)
(0.61154 -0.50029 1.27887e-17)
(0.577253 -0.640789 -4.07166e-18)
(0.490853 -0.0174563 -7.75818e-18)
(0.495287 -0.0218415 8.78182e-18)
(0.498923 -0.027105 -8.85106e-18)
(0.50192 -0.0328046 0)
(0.504776 -0.0388459 -8.02095e-18)
(0.507705 -0.045281 -8.07477e-18)
(0.510697 -0.0521844 -2.03675e-18)
(0.513721 -0.0595989 -1.44055e-17)
(0.516766 -0.0675416 -8.29645e-18)
(0.519807 -0.0760307 -8.40456e-18)
(0.52281 -0.0850992 4.22852e-18)
(0.525744 -0.0947963 -4.28307e-18)
(0.528595 -0.105184 -8.61794e-18)
(0.531362 -0.116335 -8.70323e-18)
(0.534049 -0.128338 -8.78995e-18)
(0.53666 -0.141296 -8.87758e-18)
(0.539198 -0.155333 -1.79909e-17)
(0.541661 -0.170602 4.53094e-18)
(0.544046 -0.187287 -4.59883e-18)
(0.546346 -0.205613 -1.39152e-17)
(0.54855 -0.22586 3.3538e-20)
(0.550641 -0.248373 -5.43168e-20)
(0.552578 -0.273585 -4.73274e-20)
(0.554338 -0.302042 -1.43819e-17)
(0.555815 -0.334399 -9.63009e-18)
(0.556815 -0.371806 -4.72623e-18)
(0.558113 -0.414005 1.1852e-19)
(0.554189 -0.469564 -1.25863e-19)
(0.565734 -0.510929 -1.38857e-17)
(0.525897 -0.639461 0)
(0.488382 -0.0261357 0)
(0.491454 -0.0305378 0)
(0.494186 -0.0358757 0)
(0.496849 -0.0416937 -1.01329e-18)
(0.499583 -0.0478663 9.20941e-18)
(0.502373 -0.0544218 -2.06548e-18)
(0.505138 -0.0614053 2.09055e-18)
(0.507829 -0.0688428 8.42373e-18)
(0.510426 -0.0767616 -2.1281e-18)
(0.512919 -0.0852035 1.07523e-17)
(0.515299 -0.0942223 4.3465e-18)
(0.517561 -0.103876 -4.40583e-18)
(0.519705 -0.114229 4.44238e-18)
(0.52173 -0.125351 -4.50598e-18)
(0.523628 -0.137326 -9.13038e-18)
(0.525388 -0.150256 9.23834e-18)
(0.526992 -0.164264 9.28342e-18)
(0.528419 -0.179496 0)
(0.529642 -0.196133 0)
(0.530628 -0.214393 9.59778e-18)
(0.531326 -0.234542 0)
(0.531678 -0.256908 1.4796e-17)
(0.531582 -0.281901 4.99176e-18)
(0.530951 -0.310023 9.9641e-18)
(0.529549 -0.341915 1.50437e-17)
(0.527216 -0.378506 5.13851e-18)
(0.523969 -0.420042 0)
(0.516205 -0.472265 2.02929e-17)
(0.51879 -0.516716 0)
(0.475664 -0.632709 9.87796e-18)
(0.485589 -0.035138 0)
(0.488113 -0.0397333 0)
(0.490366 -0.0451536 0)
(0.492697 -0.0509966 -8.30393e-18)
(0.495056 -0.057171 0)
(0.497337 -0.0637158 0)
(0.499502 -0.0706831 0)
(0.501555 -0.0781084 8.66965e-18)
(0.503502 -0.0860255 0)
(0.505341 -0.0944754 0)
(0.50706 -0.103504 0)
(0.508647 -0.113161 -9.08974e-18)
(0.510087 -0.123505 -9.20387e-18)
(0.511361 -0.134604 -4.64012e-18)
(0.512445 -0.146541 -4.74844e-20)
(0.513314 -0.159418 -9.48837e-18)
(0.513937 -0.173355 1.58093e-20)
(0.514276 -0.188493 1.47335e-17)
(0.514283 -0.205005 4.94996e-18)
(0.513897 -0.223095 -5.038e-18)
(0.513035 -0.243016 -5.08072e-18)
(0.511598 -0.265069 -5.09025e-18)
(0.509432 -0.289634 -5.20936e-18)
(0.506394 -0.317162 1.59831e-17)
(0.502135 -0.348257 0)
(0.496527 -0.383645 -1.62832e-17)
(0.488961 -0.423887 -5.502e-18)
(0.477458 -0.472788 2.85935e-19)
(0.471434 -0.518077 -1.66241e-17)
(0.426375 -0.621576 5.92188e-19)
(0.481809 -0.0437704 0)
(0.483775 -0.0484175 8.30778e-18)
(0.485453 -0.0538179 -1.04778e-18)
(0.487294 -0.0596423 1.80274e-17)
(0.489171 -0.0658254 0)
(0.490929 -0.0723958 0)
(0.492549 -0.0793901 8.79707e-18)
(0.494056 -0.086834 -8.86733e-18)
(0.495446 -0.094755 0)
(0.496701 -0.10319 0)
(0.497797 -0.112184 0)
(0.498715 -0.121788 9.32517e-18)
(0.499432 -0.132063 9.45024e-18)
(0.499924 -0.143079 -4.79929e-18)
(0.500161 -0.154918 1.45926e-17)
(0.500107 -0.167676 0)
(0.49972 -0.181467 1.00766e-17)
(0.498945 -0.196425 -1.52919e-17)
(0.497712 -0.212709 -5.18017e-18)
(0.495935 -0.230511 0)
(0.493503 -0.25006 0)
(0.490279 -0.271632 0)
(0.486066 -0.29557 0)
(0.48067 -0.32227 -5.54174e-18)
(0.473655 -0.352281 -5.7135e-18)
(0.464907 -0.386159 5.71005e-18)
(0.453326 -0.424662 5.90737e-18)
(0.438277 -0.470096 -1.17592e-17)
(0.424208 -0.514849 1.19244e-17)
(0.378391 -0.606214 -1.1769e-17)
(0.477125 -0.0520212 -8.39304e-18)
(0.478574 -0.0567348 -7.93733e-18)
(0.479718 -0.0621604 -1.60867e-18)
(0.481091 -0.0680032 -6.49938e-18)
(0.482508 -0.0742015 -1.60405e-21)
(0.483769 -0.0807738 -3.33683e-18)
(0.484856 -0.0877502 4.29099e-20)
(0.485802 -0.0951573 -9.15266e-18)
(0.486604 -0.103026 -6.96506e-18)
(0.487233 -0.111396 9.4107e-18)
(0.487665 -0.120313 0)
(0.487877 -0.129827 1.20986e-17)
(0.487844 -0.139996 -1.22852e-17)
(0.487532 -0.150885 -9.98601e-18)
(0.486904 -0.162572 1.51941e-17)
(0.485912 -0.175146 -1.54519e-17)
(0.484497 -0.188713 -5.18357e-18)
(0.482589 -0.203395 -5.41102e-18)
(0.480102 -0.219341 -5.39502e-18)
(0.476927 -0.236723 1.65654e-17)
(0.472926 -0.255746 0)
(0.467933 -0.276657 5.69654e-18)
(0.461713 -0.299755 -1.16377e-17)
(0.454029 -0.325381 1.19969e-17)
(0.444384 -0.354016 6.07817e-18)
(0.432659 -0.386074 1.24981e-17)
(0.417391 -0.42239 0)
(0.399037 -0.464137 1.30921e-17)
(0.377717 -0.507156 0)
(0.332099 -0.586783 -1.36167e-17)
(0.471535 -0.0598235 8.55281e-18)
(0.472479 -0.0645842 4.34512e-18)
(0.473094 -0.0700101 -4.40293e-18)
(0.473986 -0.0758344 3.34847e-18)
(0.474923 -0.0820031 1.35122e-21)
(0.475669 -0.0885345 1.30549e-21)
(0.476207 -0.0954576 -8.08683e-18)
(0.47658 -0.1028 2.31541e-18)
(0.476784 -0.110591 1.42799e-17)
(0.476785 -0.118869 -1.2074e-17)
(0.476553 -0.127675 2.4557e-18)
(0.47606 -0.137057 -1.24507e-17)
(0.475274 -0.147068 1.01133e-17)
(0.474154 -0.157769 1.02808e-17)
(0.472652 -0.169232 -5.18705e-18)
(0.47071 -0.181541 1.06397e-17)
(0.46826 -0.194791 0)
(0.465218 -0.209094 5.49683e-18)
(0.461481 -0.224581 5.65668e-18)
(0.456921 -0.241405 -1.14731e-17)
(0.451381 -0.259745 0)
(0.444667 -0.279813 -6.01023e-18)
(0.436517 -0.301865 1.92504e-20)
(0.426656 -0.326183 -1.24933e-17)
(0.41455 -0.353171 1.29266e-17)
(0.400064 -0.383124 -1.98069e-17)
(0.381487 -0.416865 0)
(0.360138 -0.454733 -1.3769e-17)
(0.332488 -0.495067 1.07706e-19)
(0.287886 -0.563506 1.46871e-17)
(0.465042 -0.0670631 4.39015e-18)
(0.465489 -0.0718499 -3.87791e-18)
(0.465584 -0.0772528 3.93185e-18)
(0.465994 -0.0830336 -9.13441e-18)
(0.466449 -0.0891471 -4.64244e-18)
(0.46668 -0.0956107 -1.17404e-18)
(0.466672 -0.102451 4.78266e-18)
(0.466474 -0.109693 1.08955e-17)
(0.46608 -0.117366 4.93312e-18)
(0.465452 -0.125504 -2.49778e-18)
(0.464552 -0.134146 2.54152e-18)