/*--------------------------------*- C++ -*----------------------------------*\
  =========                 |
  \\      /  F ield         | OpenFOAM: The Open Source CFD Toolbox
   \\    /   O peration     | Website:  https://openfoam.org
    \\  /    A nd           | Version:  11
     \\/     M anipulation  |
\*---------------------------------------------------------------------------*/
FoamFile
{
    format      ascii;
    class       volScalarField;
    location    "6.9";
    object      p;
}
// * * * * * * * * * * * * * * * * * * * * * * * * * * * * * * * * * * * * * //

dimensions      [0 2 -2 0 0 0 0];

internalField   nonuniform List<scalar> 
12600
(
0.0916451
0.0915084
0.091445
0.091427
0.0914115
0.0913904
0.0913672
0.0913436
0.0913191
0.0912928
0.0912641
0.0912321
0.0911961
0.0911553
0.0911085
0.0910544
0.0909912
0.0909169
0.0908288
0.0907239
0.0905987
0.0904479
0.0902652
0.0900433
0.0897738
0.0894443
0.0890394
0.0885368
0.0879045
0.0870544
0.0915688
0.0914997
0.0914474
0.091426
0.0914095
0.0913891
0.0913665
0.0913431
0.0913188
0.0912928
0.0912643
0.0912325
0.0911969
0.0911564
0.09111
0.0910563
0.0909938
0.0909203
0.0908332
0.0907295
0.0906057
0.0904569
0.0902768
0.0900585
0.0897923
0.0894668
0.0890694
0.0885793
0.0880096
0.0873769
0.0915336
0.0915008
0.0914554
0.0914279
0.0914099
0.0913903
0.0913683
0.0913451
0.0913209
0.0912952
0.0912669
0.0912356
0.0912004
0.0911605
0.0911148
0.0910622
0.0910008
0.090929
0.090844
0.0907426
0.0906213
0.0904754
0.0902996
0.0900863
0.0898266
0.0895099
0.0891242
0.0886542
0.0881015
0.0874363
0.0915086
0.0914881
0.0914526
0.0914253
0.091407
0.0913886
0.0913674
0.0913448
0.0913212
0.091296
0.0912684
0.0912378
0.0912034
0.0911645
0.0911201
0.0910688
0.091009
0.0909394
0.0908571
0.090759
0.0906415
0.0905005
0.0903308
0.0901251
0.0898751
0.0895706
0.0891998
0.0887489
0.0882048
0.0875431
0.0914903
0.091477
0.0914506
0.091426
0.0914075
0.0913896
0.0913692
0.0913472
0.0913242
0.0912996
0.0912726
0.0912428
0.0912094
0.0911718
0.0911289
0.0910794
0.091022
0.0909545
0.0908754
0.0907814
0.0906692
0.0905346
0.0903727
0.0901767
0.0899388
0.0896494
0.0892967
0.0888672
0.088341
0.0876997
0.0914768
0.0914675
0.0914474
0.0914254
0.0914069
0.0913892
0.0913698
0.0913486
0.0913261
0.0913022
0.0912761
0.0912473
0.0912151
0.0911788
0.0911376
0.0910904
0.0910358
0.0909717
0.0908966
0.0908077
0.0907017
0.0905749
0.0904224
0.0902383
0.090015
0.0897436
0.0894126
0.0890087
0.0885093
0.0878978
0.0914667
0.0914598
0.0914438
0.0914246
0.0914068
0.0913898
0.0913713
0.0913511
0.0913294
0.0913063
0.0912812
0.0912536
0.0912229
0.0911884
0.0911492
0.0911045
0.0910529
0.0909928
0.0909224
0.0908393
0.0907405
0.0906226
0.0904812
0.0903108
0.0901046
0.0898541
0.0895484
0.0891748
0.0887098
0.0881385
0.091459
0.0914536
0.0914406
0.0914239
0.0914071
0.0913906
0.0913729
0.0913536
0.0913328
0.0913106
0.0912866
0.0912602
0.091231
0.0911984
0.0911616
0.0911197
0.0910716
0.0910159
0.0909508
0.0908743
0.0907837
0.090676
0.090547
0.0903921
0.090205
0.0899782
0.0897014
0.0893628
0.0889398
0.0884185
0.0914532
0.0914488
0.091438
0.0914233
0.0914076
0.0913918
0.0913749
0.0913565
0.0913367
0.0913155
0.0912927
0.0912677
0.0912403
0.0912098
0.0911756
0.0911369
0.0910928
0.0910418
0.0909826
0.0909134
0.0908319
0.0907352
0.0906201
0.0904822
0.0903163
0.0901156
0.0898711
0.0895722
0.0891978
0.0887357
0.0914491
0.0914453
0.0914361
0.091423
0.0914085
0.0913933
0.0913772
0.0913598
0.091341
0.0913209
0.0912993
0.0912759
0.0912503
0.0912221
0.0911907
0.0911555
0.0911155
0.0910697
0.0910169
0.0909555
0.0908837
0.0907991
0.0906988
0.0905794
0.0904363
0.0902641
0.0900548
0.0897997
0.0894801
0.0890857
0.0914463
0.091443
0.0914349
0.0914231
0.0914096
0.0913952
0.0913799
0.0913633
0.0913456
0.0913266
0.0913064
0.0912846
0.0912611
0.0912353
0.0912069
0.0911753
0.0911398
0.0910995
0.0910535
0.0910005
0.090939
0.0908671
0.0907826
0.0906828
0.0905641
0.0904221
0.0902508
0.0900431
0.0897837
0.0894645
0.0914446
0.0914417
0.0914344
0.0914237
0.0914111
0.0913975
0.0913829
0.0913672
0.0913505
0.0913327
0.0913139
0.0912939
0.0912724
0.0912492
0.0912239
0.0911961
0.0911653
0.0911308
0.0910919
0.0910477
0.0909969
0.0909384
0.0908704
0.090791
0.0906977
0.0905876
0.0904561
0.0902987
0.0901039
0.0898664
0.091444
0.0914413
0.0914346
0.0914247
0.0914129
0.0914
0.0913861
0.0913714
0.0913557
0.0913391
0.0913218
0.0913035
0.0912842
0.0912636
0.0912415
0.0912177
0.0911918
0.0911633
0.0911317
0.0910965
0.0910569
0.0910121
0.0909611
0.0909028
0.0908358
0.0907584
0.0906682
0.0905631
0.090436
0.0902849
0.0914443
0.0914418
0.0914356
0.0914263
0.0914151
0.0914028
0.0913897
0.0913757
0.0913611
0.0913457
0.0913299
0.0913134
0.0912963
0.0912784
0.0912597
0.0912399
0.0912189
0.0911966
0.0911725
0.0911465
0.0911183
0.0910875
0.0910537
0.0910168
0.0909764
0.0909323
0.0908841
0.0908322
0.0907746
0.0907127
0.0914455
0.0914431
0.0914372
0.0914283
0.0914176
0.0914059
0.0913934
0.0913803
0.0913666
0.0913525
0.0913381
0.0913235
0.0913086
0.0912935
0.0912781
0.0912624
0.0912465
0.0912303
0.0912138
0.0911971
0.0911803
0.0911635
0.0911471
0.0911316
0.0911178
0.0911069
0.0911007
0.091102
0.0911138
0.0911418
0.0914475
0.0914452
0.0914394
0.0914308
0.0914205
0.0914092
0.0913974
0.091385
0.0913723
0.0913594
0.0913465
0.0913336
0.091321
0.0913086
0.0912965
0.091285
0.0912741
0.091264
0.0912551
0.0912477
0.0912422
0.0912394
0.0912402
0.0912459
0.0912583
0.0912801
0.091315
0.0913683
0.0914479
0.0915635
0.0914503
0.091448
0.0914423
0.0914338
0.0914236
0.0914128
0.0914015
0.0913898
0.091378
0.0913663
0.0913548
0.0913438
0.0913333
0.0913236
0.0913149
0.0913074
0.0913015
0.0912975
0.091296
0.0912977
0.0913034
0.0913143
0.0913319
0.0913583
0.0913962
0.0914497
0.0915241
0.0916271
0.0917711
0.0919697
0.0914539
0.0914516
0.0914457
0.0914371
0.091427
0.0914165
0.0914056
0.0913947
0.0913837
0.0913731
0.091363
0.0913537
0.0913454
0.0913384
0.0913329
0.0913294
0.0913283
0.0913303
0.0913361
0.0913467
0.0913633
0.0913874
0.0914213
0.0914675
0.0915299
0.0916134
0.0917251
0.0918747
0.0920781
0.0923524
0.0914584
0.0914559
0.0914497
0.0914408
0.0914307
0.0914203
0.0914099
0.0913995
0.0913893
0.0913798
0.091371
0.0913634
0.0913572
0.0913527
0.0913504
0.0913508
0.0913544
0.0913621
0.091375
0.0913941
0.0914211
0.091458
0.0915073
0.0915725
0.0916579
0.0917696
0.0919158
0.0921078
0.0923644
0.092705
0.0914637
0.091461
0.0914543
0.0914448
0.0914344
0.0914242
0.0914141
0.0914043
0.0913948
0.0913862
0.0913788
0.0913728
0.0913686
0.0913665
0.0913672
0.0913712
0.0913794
0.0913926
0.0914121
0.0914394
0.0914763
0.0915252
0.0915891
0.091672
0.0917788
0.0919164
0.092094
0.0923238
0.0926262
0.0930223
0.09147
0.091467
0.0914594
0.091449
0.0914382
0.0914281
0.0914183
0.0914089
0.0914001
0.0913924
0.0913862
0.0913817
0.0913793
0.0913796
0.0913831
0.0913906
0.091403
0.0914214
0.0914472
0.0914821
0.0915283
0.0915884
0.0916659
0.091765
0.0918915
0.0920525
0.0922579
0.0925206
0.0928611
0.093301
0.0914775
0.0914738
0.091465
0.0914534
0.0914421
0.0914319
0.0914224
0.0914133
0.091405
0.0913982
0.0913931
0.09139
0.0913894
0.0913919
0.0913981
0.0914088
0.0914252
0.0914484
0.09148
0.091522
0.0915767
0.0916471
0.091737
0.0918509
0.091995
0.0921768
0.0924065
0.0926969
0.093068
0.0935403
0.0914862
0.0914817
0.0914709
0.0914577
0.0914458
0.0914357
0.0914263
0.0914174
0.0914097
0.0914036
0.0913995
0.0913977
0.0913987
0.0914031
0.0914117
0.0914254
0.0914453
0.0914729
0.0915099
0.0915583
0.0916207
0.0917005
0.0918014
0.0919286
0.0920883
0.0922882
0.0925386
0.0928519
0.0932464
0.0937406
0.0914966
0.0914907
0.0914772
0.0914618
0.0914494
0.0914394
0.09143
0.0914212
0.0914139
0.0914086
0.0914054
0.0914048
0.0914072
0.0914134
0.0914242
0.0914406
0.0914638
0.0914953
0.0915371
0.0915912
0.0916606
0.0917486
0.0918594
0.0919982
0.0921713
0.0923866
0.0926541
0.0929859
0.0933979
0.0939055
0.0915092
0.0915009
0.0914834
0.0914656
0.0914528
0.0914429
0.0914333
0.0914244
0.0914174
0.0914126
0.0914102
0.0914106
0.0914143
0.091422
0.0914347
0.0914535
0.0914795
0.0915145
0.0915604
0.0916196
0.091695
0.0917901
0.0919094
0.092058
0.0922425
0.0924706
0.0927521
0.0930983
0.0935232
0.0940385
0.0915247
0.0915125
0.0914889
0.0914687
0.0914563
0.0914466
0.0914368
0.0914279
0.0914212
0.0914169
0.0914152
0.0914164
0.0914212
0.0914303
0.0914446
0.0914653
0.0914938
0.0915317
0.0915811
0.0916445
0.091725
0.0918261
0.0919524
0.0921092
0.0923029
0.0925412
0.0928335
0.0931906
0.0936255
0.0941461
0.0915447
0.0915254
0.0914928
0.0914701
0.0914582
0.0914484
0.0914382
0.0914293
0.0914229
0.0914191
0.091418
0.0914199
0.0914256
0.0914358
0.0914515
0.0914739
0.0915044
0.0915448
0.0915971
0.091664
0.0917486
0.0918545
0.0919864
0.0921498
0.0923508
0.0925967
0.092897
0.0932618
0.0937056
0.0942318
0.091571
0.0915394
0.091497
0.0914743
0.0914629
0.0914523
0.0914414
0.0914324
0.0914262
0.0914226
0.0914218
0.0914242
0.0914305
0.0914415
0.0914582
0.0914817
0.0915137
0.0915559
0.0916104
0.0916799
0.0917677
0.0918772
0.0920132
0.0921813
0.0923875
0.0926388
0.0929439
0.0933126
0.093765
0.0943055
0.091607
0.0915393
0.0914901
0.0914735
0.0914639
0.0914525
0.0914413
0.0914325
0.0914266
0.0914233
0.0914229
0.0914257
0.0914325
0.0914442
0.0914616
0.0914861
0.0915191
0.0915625
0.0916186
0.0916899
0.0917797
0.0918919
0.0920311
0.0922023
0.0924117
0.0926661
0.092973
0.0933407
0.0937907
0.094364
0.0916839
0.0915484
0.0914881
0.0914751
0.0914666
0.0914545
0.0914428
0.091434
0.0914281
0.0914249
0.0914245
0.0914275
0.0914345
0.0914464
0.0914642
0.0914891
0.0915226
0.0915666
0.0916235
0.0916958
0.0917865
0.0919003
0.0920412
0.0922139
0.0924248
0.0926805
0.0929872
0.0933507
0.0937604
0.0942003
0.0869446
0.0861745
0.0857801
0.0857007
0.0855976
0.085392
0.0851484
0.0849078
0.084677
0.0844534
0.0842366
0.0840273
0.0838255
0.08363
0.0834391
0.0832511
0.0830643
0.082876
0.0826825
0.0824788
0.0822569
0.0820012
0.0817015
0.081256
0.0808188
0.0793464
0.079241
0.0711709
0.0747338
0.0242089
0.0874086
0.0866988
0.0862064
0.0860328
0.0858747
0.0856526
0.085412
0.0851954
0.0849988
0.0848115
0.0846321
0.0844617
0.0843011
0.0841495
0.0840068
0.0838729
0.0837478
0.0836313
0.0835231
0.0834222
0.0833264
0.083231
0.0831274
0.0829756
0.0828111
0.0821038
0.082101
0.0766723
0.0793796
0.0383675
0.087021
0.0866063
0.0863052
0.0861774
0.086047
0.0858609
0.0856663
0.0854939
0.0853367
0.085186
0.0850431
0.0849114
0.0847924
0.0846865
0.0845946
0.0845183
0.0844593
0.0844199
0.0844031
0.0844124
0.0844517
0.0845252
0.0846351
0.0847742
0.0849484
0.0849114
0.0852619
0.0821294
0.084487
0.0525662
0.0870292
0.0868064
0.0866191
0.0864744
0.0863285
0.0861633
0.0860029
0.0858621
0.085736
0.0856197
0.0855148
0.0854247
0.0853508
0.0852945
0.085258
0.0852444
0.0852574
0.0853022
0.0853849
0.0855139
0.0856996
0.0859553
0.0862958
0.0867387
0.0872952
0.0878914
0.0887685
0.0876766
0.0901145
0.0665765
0.0871604
0.0870068
0.0868728
0.086741
0.0866122
0.0864859
0.0863686
0.0862656
0.0861756
0.0860977
0.0860341
0.0859881
0.0859621
0.0859586
0.0859813
0.086035
0.0861256
0.0862609
0.0864506
0.0867081
0.0870503
0.0874999
0.0880853
0.088845
0.0898138
0.0910222
0.0925559
0.0932744
0.0961777
0.0803193
0.0873691
0.0872644
0.0871785
0.0870751
0.0869706
0.0868763
0.0867939
0.0867247
0.0866698
0.0866304
0.0866091
0.0866091
0.0866336
0.0866864
0.0867724
0.0868981
0.0870716
0.0873035
0.0876074
0.0880014
0.0885096
0.0891639
0.0900065
0.0910962
0.0924965
0.09431
0.0965815
0.0989176
0.102576
0.0936921
0.0876386
0.0875716
0.0875227
0.0874466
0.0873683
0.0873057
0.0872592
0.087227
0.0872105
0.0872125
0.087236
0.0872847
0.0873627
0.087475
0.087628
0.08783
0.0880913
0.0884255
0.0888499
0.0893878
0.0900699
0.090938
0.0920477
0.0934774
0.095321
0.0977354
0.100789
0.104574
0.10923
0.106508
0.087958
0.0879243
0.0879091
0.0878624
0.0878137
0.0877843
0.0877737
0.0877788
0.0878015
0.0878457
0.0879153
0.0880146
0.0881483
0.088323
0.0885463
0.0888283
0.0891817
0.0896228
0.090173
0.0908606
0.0917231
0.0928116
0.0941951
0.0959708
0.0982623
0.101271
0.10512
0.110204
0.116031
0.118596
0.0883241
0.088321
0.088337
0.0883201
0.0883019
0.0883056
0.0883307
0.0883738
0.0884369
0.0885249
0.0886423
0.088794
0.0889858
0.0892251
0.0895214
0.0898863
0.090335
0.0908866
0.0915665
0.0924077
0.0934546
0.0947673
0.0964276
0.0985503
0.101287
0.104876
0.109508
0.115754
0.122855
0.129797
0.0887315
0.0887573
0.088803
0.0888161
0.0888291
0.0888663
0.0889275
0.089009
0.0891133
0.0892459
0.0894121
0.0896173
0.0898683
0.0901739
0.0905448
0.0909945
0.0915404
0.0922046
0.0930159
0.0940125
0.095245
0.0967821
0.0987175
0.101182
0.104353
0.1085
0.11388
0.121155
0.129554
0.139937
0.0891761
0.0892291
0.0893025
0.0893454
0.0893899
0.0894605
0.0895575
0.0896775
0.0898232
0.0900007
0.090216
0.0904752
0.0907861
0.0911584
0.0916044
0.0921394
0.0927828
0.0935596
0.0945021
0.095653
0.0970689
0.0988264
0.10103
0.103826
0.107412
0.112083
0.118158
0.12633
0.135959
0.148802
0.0896509
0.0897294
0.0898288
0.0899008
0.0899767
0.0900804
0.0902127
0.0903707
0.0905574
0.0907794
0.0910433
0.091356
0.0917261
0.0921645
0.0926848
0.0933038
0.0940432
0.0949304
0.0960011
0.0973021
0.0988954
0.100865
0.103324
0.106432
0.110405
0.115558
0.122257
0.13119
0.141893
0.156208
0.0901485
0.0902505
0.0903736
0.0904738
0.0905804
0.0907163
0.0908827
0.0910775
0.0913041
0.0915693
0.0918803
0.0922449
0.0926724
0.0931748
0.0937668
0.0944669
0.0952985
0.0962915
0.0974844
0.0989279
0.100689
0.102857
0.105554
0.108948
0.113271
0.118851
0.12609
0.135645
0.147211
0.162211
0.0906591
0.0907825
0.0909269
0.0910538
0.09119
0.0913566
0.0915553
0.0917849
0.0920492
0.0923554
0.0927112
0.0931248
0.0936066
0.0941692
0.0948286
0.0956047
0.0965225
0.0976139
0.0989201
0.100495
0.102409
0.104757
0.107667
0.111315
0.115943
0.121886
0.129571
0.139599
0.151819
0.167087
0.0911722
0.0913147
0.0914777
0.0916293
0.0917931
0.0919881
0.0922167
0.0924783
0.0927774
0.0931213
0.0935181
0.0939766
0.0945079
0.0951254
0.0958462
0.0966911
0.0976866
0.0988664
0.100274
0.101965
0.104013
0.106518
0.109611
0.113474
0.118355
0.124588
0.132615
0.142967
0.155639
0.170617
0.0916763
0.0918353
0.0920141
0.0921877
0.0923766
0.0925971
0.0928521
0.0931423
0.0934722
0.0938494
0.0942823
0.0947803
0.095355
0.0960205
0.0967946
0.0976991
0.0987616
0.100017
0.10151
0.1033
0.105461
0.108094
0.111336
0.115368
0.120441
0.126885
0.135141
0.145662
0.158537
0.172576
0.0921596
0.0923325
0.0925241
0.0927166
0.0929272
0.0931697
0.0934471
0.0937613
0.0941171
0.0945223
0.0949854
0.0955162
0.0961268
0.0968318
0.0976495
0.0986026
0.0997193
0.101036
0.102597
0.104463
0.106711
0.109443
0.112793
0.116945
0.122146
0.128714
0.137079
0.147597
0.160345
0.173106
0.0926114
0.0927951
0.0929965
0.0932043
0.0934327
0.0936928
0.0939881
0.0943211
0.0946972
0.0951241
0.0956104
0.0961663
0.0968041
0.0975389
0.0983892
0.0993782
0.100535
0.101895
0.103505
0.105425
0.107731
0.110526
0.113944
0.118162
0.123423
0.130025
0.138372
0.148699
0.160992
0.172271
0.0930219
0.0932136
0.0934217
0.0936409
0.0938826
0.0941555
0.0944634
0.0948096
0.0951997
0.0956413
0.0961432
0.0967157
0.0973712
0.098125
0.0989958
0.100007
0.101187
0.102573
0.10421
0.106159
0.108494
0.111317
0.114758
0.118988
0.124238
0.130781
0.138985
0.148937
0.160591
0.169943
0.0933843
0.0935809
0.0937927
0.0940192
0.0942692
0.0945499
0.0948649
0.0952183
0.0956157
0.0960646
0.0965738
0.0971537
0.0978167
0.0985781
0.0994566
0.100475
0.101663
0.103055
0.104698
0.10665
0.108984
0.111798
0.115217
0.119406
0.124578
0.130974
0.138918
0.148321
0.159266
0.165977
0.0936939
0.0938925
0.0941051
0.0943345
0.094588
0.0948711
0.0951877
0.0955419
0.0959397
0.0963884
0.0968967
0.0974748
0.0981351
0.0988927
0.099766
0.100778
0.101956
0.103337
0.104963
0.106893
0.109196
0.111967
0.115324
0.119419
0.124448
0.130613
0.138199
0.146892
0.157076
0.160687
0.0939507
0.0941485
0.0943589
0.0945871
0.0948392
0.0951195
0.0954319
0.0957809
0.0961723
0.0966133
0.0971123
0.0976795
0.0983269
0.0990694
0.0999251
0.100916
0.102069
0.10342
0.10501
0.106893
0.109138
0.111833
0.115088
0.11904
0.123869
0.129723
0.136868
0.144705
0.154093
0.154292
0.0941559
0.0943503
0.0945557
0.0947787
0.0950247
0.0952974
0.0956006
0.0959388
0.0963176
0.0967439
0.0972259
0.0977735
0.0983985
0.0991152
0.0999411
0.100898
0.102011
0.103314
0.104848
0.106663
0.108824
0.111412
0.114529
0.118296
0.122871
0.128348
0.134987
0.141833
0.15041
0.146479
0.094317
0.094505
0.0947021
0.0949159
0.0951512
0.0954116
0.0957004
0.0960219
0.0963818
0.0967868
0.0972448
0.0977651
0.0983591
0.0990405
0.099826
0.100736
0.101796
0.103037
0.104497
0.106224
0.108278
0.110733
0.113681
0.117225
0.121505
0.126548
0.132632
0.138349
0.146134
0.137288
0.0944408
0.09462
0.094805
0.0950057
0.0952277
0.0954732
0.0957443
0.0960449
0.0963807
0.0967583
0.0971852
0.0976706
0.0982253
0.0988624
0.0995978
0.100451
0.101446
0.102611
0.103983
0.105605
0.107533
0.109833
0.112587
0.115879
0.11983
0.124392
0.129887
0.134324
0.141377
0.126998
0.0945438
0.0947098
0.0948742
0.0950552
0.0952594
0.0954857
0.0957346
0.0960107
0.0963196
0.0966665
0.0970583
0.0975036
0.0980129
0.0985986
0.0992757
0.100063
0.100982
0.10206
0.103331
0.104835
0.106622
0.108749
0.11129
0.114306
0.117903
0.121945
0.126838
0.129875
0.136242
0.115803
0.0946445
0.0947928
0.0949256
0.0950871
0.0952789
0.095485
0.0957058
0.0959504
0.0962256
0.0965357
0.0968866
0.0972866
0.0977452
0.0982736
0.0988862
0.0996002
0.100436
0.10142
0.102581
0.103956
0.10559
0.107533
0.109846
0.11257
0.115798
0.119289
0.123585
0.125053
0.130844
0.103959
0.0947857
0.0948622
0.0949196
0.0950532
0.0952375
0.0954324
0.0956333
0.0958521
0.0960954
0.0963668
0.0966731
0.0970238
0.0974267
0.0978922
0.0984341
0.0990682
0.0998137
0.100694
0.101736
0.102974
0.104446
0.106194
0.10827
0.110692
0.113545
0.116459
0.120203
0.119919
0.125352
0.0916867
0.0951861
0.0951062
0.0950164
0.095094
0.0952481
0.0954122
0.0955836
0.0957751
0.0959866
0.0962175
0.0964782
0.0967798
0.0971258
0.0975265
0.0979963
0.0985496
0.0992035
0.0999793
0.100902
0.102001
0.103309
0.104862
0.106699
0.108814
0.111295
0.113606
0.116862
0.114639
0.119908
0.079212
0.0951428
0.0948331
0.0947403
0.094901
0.0951133
0.095294
0.0954519
0.0956091
0.0957804
0.0959695
0.0961816
0.0964263
0.0967094
0.0970389
0.0974268
0.0978875
0.0984374
0.0990958
0.0998859
0.100834
0.101968
0.103316
0.104911
0.106715
0.108846
0.11051
0.113445
0.109042
0.114412
0.0667803
0.0558982
0.0444776
0.0316398
0.0184422
0.00564868
-0.00640767
-0.0174245
-0.0269979
-0.0346106
-0.0396712
-0.0416439
-0.0402868
-0.0361343
-0.0305562
-0.0252591
-0.0211007
-0.0183565
-0.0167294
-0.0146672
-0.0130642
-0.0132738
-0.0142166
-0.0144773
-0.0140443
-0.0134877
-0.0130564
-0.0125735
-0.0120338
-0.0115892
-0.0117847
0.108756
0.100391
0.0913815
0.0825358
0.073358
0.0636555
0.0537729
0.0440352
0.0346567
0.0259212
0.0181787
0.0121572
0.00803851
0.0053126
0.00296074
-8.59062e-05
-0.00339056
-0.00675417
-0.00997308
-0.0124549
-0.0143204
-0.0145261
-0.0123212
-0.00879975
-0.00516551
-0.00215481
0.000403909
0.00305691
0.00563317
0.00675913
0.104546
0.0991154
0.0927579
0.0856833
0.0777146
0.0689367
0.0595225
0.0498461
0.0406143
0.0324276
0.0254108
0.0195928
0.0151512
0.0117813
0.00866138
0.00502241
0.000856283
-0.00311367
-0.00624333
-0.00824685
-0.00918306
-0.00871518
-0.00659732
-0.0035319
-0.000395196
0.00240972
0.00447925
0.0051482
0.0031205
-0.0014431
0.110814
0.107184
0.102475
0.0970865
0.0909108
0.0838239
0.0759022
0.0673812
0.0585807
0.0498576
0.04154
0.0340684
0.027747
0.0225542
0.0181433
0.014096
0.0104298
0.00758285
0.00567672
0.00457387
0.00412858
0.00413202
0.00434932
0.00436024
0.00362825
0.00182035
-0.00165785
-0.0072367
-0.015317
-0.0244764
0.108415
0.106105
0.103242
0.0995476
0.0949709
0.0895149
0.0831662
0.0759593
0.0680645
0.0598172
0.0516362
0.0439525
0.0371078
0.0312563
0.0263123
0.0220617
0.0184595
0.0156415
0.0135839
0.0121404
0.0112211
0.0105274
0.00969822
0.008406
0.00625931
0.00295846
-0.00171769
-0.00764396
-0.0145767
-0.0212484
0.107346
0.105864
0.103822
0.100997
0.0973453
0.0928247
0.0873899
0.0810429
0.0738926
0.0661885
0.0582959
0.0506292
0.0435743
0.0373872
0.0321192
0.0276705
0.0239769
0.0210541
0.0188535
0.0172436
0.0160296
0.0148842
0.0134738
0.0115172
0.00882505
0.00537434
0.00137018
-0.00278879
-0.0065835
-0.00975203
0.105542
0.104569
0.103177
0.101141
0.0983482
0.0947318
0.0902171
0.0847604
0.0784062
0.0713219
0.0638074
0.0562621
0.0491069
0.0426753
0.0371253
0.0324537
0.0286154
0.0255822
0.0232761
0.0215301
0.0200937
0.0186653
0.0169883
0.0149236
0.0125081
0.00996827
0.00768959
0.00613089
0.00573889
0.00660425
0.104002
0.103393
0.102451
0.10092
0.0987156
0.0957673
0.0919735
0.0872537
0.0816025
0.0751239
0.068055
0.0607572
0.0536537
0.047124
0.041406
0.0365757
0.0326202
0.0294942
0.0270928
0.0252282
0.0236553
0.0221358
0.0205281
0.0188396
0.0172437
0.0160515
0.0156435
0.0162978
0.0181851
0.02091
0.102597
0.102214
0.101566
0.100407
0.0986596
0.0962394
0.0930263
0.0889155
0.0838667
0.0779368
0.0713095
0.0643042
0.057332
0.0507989
0.0450003
0.040075
0.0360441
0.0328602
0.0304075
0.0285033
0.0269376
0.0255447
0.0242712
0.0232142
0.0226054
0.0227204
0.0237885
0.0258163
0.0287164
0.0317426
0.101397
0.101167
0.100722
0.0998329
0.0984254
0.0964122
0.0936636
0.090059
0.0855305
0.0800946
0.0738872
0.0671862
0.060384
0.0539006
0.0480745
0.0430967
0.0390225
0.0358139
0.0333584
0.031493
0.0300478
0.0289148
0.0281064
0.027763
0.0280928
0.0292596
0.0313095
0.034041
0.0372682
0.0401608
0.100379
0.100249
0.0999375
0.0992409
0.0980941
0.0964008
0.0940269
0.0908428
0.0867602
0.0817629
0.0759455
0.0695464
0.0629347
0.0565352
0.0507186
0.0457199
0.0416293
0.0384256
0.0360094
0.034246
0.0329971
0.0322042
0.0319164
0.0322676
0.0333924
0.0353243
0.037962
0.0409993
0.0442626
0.0469404
0.0995262
0.0994635
0.0992428
0.0986878
0.0977364
0.0962927
0.0942198
0.0913827
0.087679
0.0830657
0.0776026
0.0714916
0.0650766
0.058781
0.0529993
0.0480045
0.0439207
0.0407493
0.0384089
0.0367953
0.0357955
0.0353837
0.0356161
0.036586
0.0383364
0.0407876
0.043741
0.0468647
0.0500281
0.0524575
0.0988147
0.0987971
0.0986384
0.0981871
0.0973855
0.0961382
0.0943086
0.0917592
0.0883773
0.0840993
0.0789548
0.0731125
0.0668917
0.0607098
0.0549791
0.0500061
0.045948
0.0428325
0.0406068
0.0391641
0.0384424
0.0384205
0.0391378
0.0406297
0.0428493
0.0456315
0.0487241
0.0518165
0.0548129
0.0570082
0.0982224
0.0982362
0.0981208
0.0977471
0.097062
0.0959706
0.0943382
0.0920274
0.088919
0.0849326
0.0800722
0.0744772
0.0684423
0.0623768
0.0567066
0.0517674
0.0477487
0.0447058
0.0426035
0.0413639
0.0409336
0.0412904
0.0424413
0.0443577
0.0469145
0.0498904
0.0530115
0.0560151
0.0588241
0.0608496
0.097729
0.0977661
0.0976821
0.0973679
0.0967751
0.0958089
0.0943376
0.0922257
0.0893497
0.0856164
0.081008
0.0756377
0.0697769
0.0638255
0.0582199
0.0533219
0.0493524
0.0463938
0.0444307
0.0434063
0.0432676
0.0439791
0.0455059
0.0477564
0.0505442
0.0536165
0.0567016
0.0595987
0.0622383
0.0641859
0.0973173
0.0973728
0.097313
0.097046
0.0965275
0.0956644
0.0943263
0.092381
0.0897031
0.0861891
0.0818032
0.0766349
0.0709344
0.0650914
0.0595504
0.0546973
0.0507831
0.0479182
0.046103
0.0452983
0.0454433
0.0464791
0.0483241
0.0508298
0.0537654
0.0568675
0.0598847
0.062685
0.0652008
0.0671646
0.0969727
0.0970439
0.0970039
0.0967763
0.0963204
0.0955429
0.0943164
0.0925121
0.0900037
0.0866799
0.0824896
0.0775016
0.0719462
0.066203
0.0607237
0.0559163
0.0520603
0.0492917
0.0476318
0.0470464
0.0474619
0.0487886
0.0508975
0.0535914
0.0566112
0.0596997
0.062641
0.0653707
0.0678167
0.0698681
0.0966829
0.0967683
0.0967456
0.0965525
0.096151
0.0954468
0.0943155
0.092632
0.0902698
0.0871111
0.0830922
0.0782637
0.0728376
0.067184
0.0617607
0.0569968
0.0531995
0.0505295
0.0490272
0.0486569
0.0493262
0.0509101
0.0532333
0.0560596
0.0591162
0.0621661
0.0650387
0.0677283
0.070148
0.0723213
0.0964372
0.0965364
0.0965299
0.0963681
0.0960156
0.0953766
0.0943284
0.09275
0.0905146
0.0874999
0.0836308
0.0789423
0.0736293
0.0680534
0.0626786
0.0579541
0.0542135
0.051643
0.0502975
0.0501355
0.0510403
0.0528485
0.0553421
0.0582556
0.0613152
0.0643155
0.0671353
0.0698097
0.0722137
0.0745462
0.0962277
0.0963399
0.0963486
0.0962167
0.0959103
0.0953314
0.0943574
0.0928719
0.0907481
0.0878593
0.0841212
0.0795543
0.0743382
0.068827
0.0634916
0.0588004
0.0551128
0.0526405
0.0514493
0.0514877
0.0526091
0.0546102
0.0572357
0.0602014
0.0632427
0.0661907
0.0689693
0.0716312
0.0741024
0.0765811
0.0960488
0.0961727
0.0961953
0.0960922
0.0958299
0.0953086
0.0944035
0.0930021
0.0909777
0.0882
0.0845763
0.0801139
0.0749786
0.0695181
0.0642114
0.0595461
0.0559064
0.0535283
0.0524886
0.0527187
0.054038
0.0562039
0.0589285
0.0619183
0.0649307
0.0678346
0.0705908
0.0732788
0.0758062
0.0783463
0.0958954
0.0960298
0.0960643
0.0959892
0.0957701
0.0953009
0.0944653
0.0931425
0.0912087
0.0885302
0.0850064
0.0806329
0.0755623
0.0701377
0.064848
0.0601999
0.0566059
0.054313
0.0534213
0.0538341
0.0553323
0.0576372
0.0604369
0.0634338
0.0664099
0.0692836
0.0720468
0.0747831
0.0773266
0.0798221
0.0957631
0.0959071
0.0959513
0.0959033
0.0957279
0.0953133
0.0945413
0.0932935
0.0914446
0.0888562
0.0854203
0.0811212
0.076099
0.0706942
0.0654081
0.0607668
0.0572066
0.0550007
0.0542536
0.0548401
0.0564993
0.0589166
0.0617677
0.0647716
0.0677258
0.0705759
0.0733573
0.07616
0.0786617
0.080951
0.0956493
0.0958023
0.0958529
0.0958303
0.0956978
0.0953381
0.0946304
0.0934555
0.0916874
0.0891826
0.0858253
0.081589
0.0766006
0.0712007
0.0659042
0.0612569
0.0577239
0.0556007
0.0549913
0.0557403
0.0575465
0.060062
0.0629412
0.0659314
0.0688868
0.0717622
0.0746074
0.0774301
0.0797699
0.0816369
0.0955498
0.0957133
0.095767
0.0957684
0.0956765
0.0953702
0.0947313
0.0936299
0.0919388
0.0895098
0.0862204
0.0820333
0.0770611
0.0716478
0.0663307
0.0616601
0.0581283
0.0560904
0.0556276
0.0565345
0.0584718
0.0610796
0.0640109
0.0669967
0.069897
0.0727826
0.0757744
0.0785523
0.0806168
0.0817876
0.0954581
0.0956355
0.0956916
0.0957167
0.0956628
0.095403
0.0948347
0.0938188
0.0922119
0.0898626
0.0866402
0.0824975
0.0775298
0.0720839
0.0667306
0.0620589
0.0585258
0.0565397
0.0562007
0.0572425
0.0592803
0.0619337
0.0649013
0.0679914
0.0709617
0.07391
0.0769349
0.0794721
0.0811145
0.0812609
0.0953689
0.0955582
0.0956225
0.0956757
0.0956604
0.095448
0.0949089
0.0939812
0.0924466
0.0901679
0.0869979
0.0828823
0.077902
0.0724072
0.0669686
0.0621959
0.0587175
0.0568339
0.0566479
0.0578478
0.0600119
0.0627255
0.0656426
0.0686323
0.0716182
0.0749035
0.0779457
0.0801646
0.0813551
0.0801357
0.0952924
0.0954683
0.0955472
0.0956327
0.0956589
0.0955222
0.095113
0.0942528
0.0927987
0.0906151
0.0875216
0.0834361
0.0784215
0.0728821
0.0674439
0.0626559
0.0589591
0.0571337
0.0570703
0.0584017
0.0606859
0.0635566
0.0667008
0.0698549
0.0729168
0.0760663
0.0789079
0.0804763
0.0806624
0.0777489
0.0952601
0.0953746
0.0954669
0.0955711
0.0956062
0.0954815
0.0950885
0.094293
0.092951
0.0908393
0.0877673
0.0836552
0.0785568
0.0729208
0.0674691
0.0626015
0.0590041
0.0572822
0.0573361
0.0587457
0.0610266
0.0637759
0.0667688
0.0699624
0.0734681
0.0768815
0.079572
0.0808737
0.0805575
0.075785
0.0953188
0.095341
0.0954406
0.0955704
0.0956515
0.0956129
0.0953459
0.0946915
0.093469
0.0914795
0.0885504
0.0844884
0.0793323
0.0735437
0.0678391
0.0627077
0.0590483
0.057398
0.0576631
0.0593478
0.0619237
0.0649141
0.0681932
0.0715716
0.0749662
0.0780562
0.0801805
0.0800678
0.0766123
0.0700361
-0.0850358
-0.0851812
-0.00807631
0.0334956
0.0560114
0.0673618
0.0711376
0.07168
0.0710431
0.0702476
0.0696813
0.069425
0.0694851
0.0698115
0.0703225
0.0709481
0.0716354
0.072346
0.0730555
0.0737474
0.0744278
0.0750751
0.0757276
0.0763398
0.0770215
0.0776485
0.0784621
0.0791733
0.0804192
0.0795453
-0.086247
-0.0843519
-0.013748
0.0346464
0.0591062
0.0702805
0.073892
0.0740475
0.0728965
0.0716058
0.0706046
0.0699673
0.0697192
0.0698145
0.070161
0.0706754
0.0712922
0.0719615
0.0726505
0.0733349
0.0740136
0.0746653
0.0753158
0.075921
0.0765522
0.0771129
0.0777638
0.0782307
0.0789449
0.0787872
-0.0876217
-0.0875105
-0.0213465
0.03454
0.0619736
0.0735781
0.0772065
0.0769966
0.0752358
0.0733252
0.0717748
0.0706559
0.0700157
0.0698167
0.0699575
0.0703373
0.0708735
0.0715003
0.0721727
0.0728585
0.0735459
0.0742163
0.0748775
0.0755071
0.0761304
0.0767059
0.0773016
0.0778138
0.0784429
0.0789362
-0.0883435
-0.0921112
-0.0285503
0.0345637
0.0658604
0.0782308
0.0814968
0.0805343
0.077862
0.0751521
0.0729682
0.0713375
0.0703135
0.0698508
0.0698273
0.070116
0.070611
0.0712284
0.0719097
0.0726154
0.0733258
0.0740247
0.0747115
0.0753778
0.0760336
0.0766679
0.0773088
0.0779303
0.0785905
0.0792069
-0.0878281
-0.0956465
-0.035591
0.0338497
0.0699714
0.0838356
0.0867052
0.0847665
0.0809262
0.077248
0.0743185
0.0720804
0.0706086
0.0698401
0.0696314
0.0698239
0.0702812
0.070896
0.0715931
0.0723244
0.0730631
0.073792
0.0745056
0.0751998
0.0758788
0.0765411
0.0771967
0.0778403
0.0784809
0.0791204
-0.0857349
-0.0976921
-0.0426752
0.0314155
0.0731739
0.089822
0.0927799
0.0898853
0.0845896
0.0796633
0.0758644
0.0728898
0.0708543
0.0696848
0.0692351
0.0693081
0.069726
0.0703476
0.0710746
0.0718468
0.0726295
0.0734016
0.0741536
0.0748813
0.0755856
0.0762678
0.0769325
0.0775859
0.0782221
0.078895
-0.0819217
-0.0987526
-0.0492076
0.0267564
0.0743562
0.095361
0.0993942
0.0953524
0.0890149
0.0823661
0.0774383
0.0736368
0.0709799
0.069309
0.0685532
0.0684918
0.0688897
0.0695503
0.0703402
0.0711839
0.072039
0.0728794
0.0736922
0.074473
0.0752215
0.0759408
0.0766341
0.0773136
0.0779629
0.0786545
-0.0768069
-0.0981015
-0.055442
0.0195847
0.0722746
0.0988483
0.105739
0.101227
0.0933821
0.0853764
0.0788811
0.0740197
0.0707971
0.0686035
0.0674711
0.06725
0.0676557
0.0684081
0.0693155
0.0702788
0.0712485
0.072193
0.0730968
0.0739558
0.0747702
0.0755443
0.0762807
0.0769944
0.0776638
0.0783722
-0.0708282
-0.0955455
-0.0610409
0.00886775
0.0650445
0.0967869
0.108266
0.105961
0.0975162
0.0884775
0.0799471
0.0738737
0.0697575
0.0671859
0.0657011
0.0653453
0.0658239
0.0667508
0.0678524
0.0690024
0.0701479
0.0712493
0.0722873
0.0732598
0.0741689
0.0750204
0.075818
0.0765799
0.0772819
0.0780192
-0.0647307
-0.0914359
-0.0672961
-0.00516148
0.0508107
0.086724
0.10319