/*--------------------------------*- C++ -*----------------------------------*\
  =========                 |
  \\      /  F ield         | OpenFOAM: The Open Source CFD Toolbox
   \\    /   O peration     | Website:  https://openfoam.org
    \\  /    A nd           | Version:  11
     \\/     M anipulation  |
\*---------------------------------------------------------------------------*/
FoamFile
{
    format      ascii;
    class       volVectorField;
    location    "6.9";
    object      U;
}
// * * * * * * * * * * * * * * * * * * * * * * * * * * * * * * * * * * * * * //

dimensions      [0 1 -1 0 0 0 0];

internalField   nonuniform List<vector> 
12600
(
(0.399658 0.000102324 0)
(0.399412 0.00017398 0)
(0.399044 0.000176251 0)
(0.398642 0.000172326 0)
(0.398271 0.000170038 0)
(0.39794 0.000165687 0)
(0.397645 0.000158151 0)
(0.397387 0.000147817 0)
(0.397178 0.000134899 0)
(0.397029 0.000119338 0)
(0.396954 0.000102008 0)
(0.396967 7.73955e-05 0)
(0.397091 4.25588e-05 0)
(0.397349 -5.56121e-07 0)
(0.397773 -5.2328e-05 0)
(0.398402 -0.000110072 0)
(0.399282 -0.000183241 0)
(0.400469 -0.000275245 0)
(0.402031 -0.000387339 0)
(0.404046 -0.000521488 0)
(0.406617 -0.000686005 0)
(0.409881 -0.000890579 0)
(0.413996 -0.00114348 0)
(0.41915 -0.00145255 0)
(0.425575 -0.00182797 0)
(0.433516 -0.00227842 0)
(0.443317 -0.00283849 0)
(0.455336 -0.00342199 0)
(0.469921 -0.00450955 0)
(0.490415 -0.00388629 0)
(0.400037 0.000147071 0)
(0.400181 0.000248336 0)
(0.400365 0.000218004 0)
(0.400491 0.000191402 0)
(0.400631 0.000169586 0)
(0.400805 0.000145237 0)
(0.401013 0.000117333 0)
(0.401257 8.47328e-05 0)
(0.401543 4.37064e-05 0)
(0.401884 -6.51083e-06 0)
(0.402291 -6.83129e-05 0)
(0.402778 -0.000143521 0)
(0.403362 -0.000233955 0)
(0.404063 -0.000343617 0)
(0.404904 -0.000477827 0)
(0.405916 -0.00064354 0)
(0.407127 -0.000847743 0)
(0.408599 -0.00109889 0)
(0.410362 -0.00140802 0)
(0.412589 -0.00178934 0)
(0.41532 -0.00225773 0)
(0.418654 -0.00282975 0)
(0.422723 -0.00352783 0)
(0.427695 -0.00438117 0)
(0.433777 -0.00541969 0)
(0.441224 -0.00667807 0)
(0.450329 -0.00821085 0)
(0.461473 -0.00997295 0)
(0.475 -0.0124735 0)
(0.491782 -0.0132311 0)
(0.400024 7.23106e-05 0)
(0.400112 0.000115188 0)
(0.400236 8.70869e-05 0)
(0.400358 5.18876e-05 0)
(0.400491 2.61438e-05 0)
(0.400653 -6.70603e-06 0)
(0.400849 -5.26393e-05 0)
(0.40108 -0.000108108 0)
(0.401354 -0.000173464 0)
(0.401678 -0.000252358 0)
(0.402066 -0.00034852 0)
(0.402532 -0.000465892 0)
(0.403094 -0.000609358 0)
(0.403771 -0.00078467 0)
(0.404592 -0.000998732 0)
(0.405587 -0.00125919 0)
(0.406797 -0.00157854 0)
(0.408271 -0.0019704 0)
(0.410064 -0.00245668 0)
(0.412244 -0.00306322 0)
(0.414895 -0.00380708 0)
(0.418129 -0.00471098 0)
(0.422087 -0.00581341 0)
(0.426933 -0.00716369 0)
(0.432861 -0.00881437 0)
(0.440131 -0.0108234 0)
(0.448997 -0.0132736 0)
(0.459976 -0.0161541 0)
(0.472989 -0.0199682 0)
(0.49045 -0.022628 0)
(0.400016 3.93026e-05 0)
(0.400079 7.87704e-05 0)
(0.400187 6.60626e-05 0)
(0.400305 3.14133e-05 0)
(0.400432 -8.39583e-06 0)
(0.400585 -5.73755e-05 0)
(0.400773 -0.000117628 0)
(0.400998 -0.000190004 0)
(0.401263 -0.000278033 0)
(0.401577 -0.000385762 0)
(0.401952 -0.000517753 0)
(0.402403 -0.000679377 0)
(0.402946 -0.00087698 0)
(0.403602 -0.00111812 0)
(0.404395 -0.00141234 0)
(0.405357 -0.00177152 0)
(0.406527 -0.00221199 0)
(0.407948 -0.00275364 0)
(0.409678 -0.00342251 0)
(0.411782 -0.00424737 0)
(0.414343 -0.00525703 0)
(0.417468 -0.00649063 0)
(0.42129 -0.00800117 0)
(0.425971 -0.00985203 0)
(0.4317 -0.0121163 0)
(0.438734 -0.0148761 0)
(0.447312 -0.0182487 0)
(0.457981 -0.0222459 0)
(0.470591 -0.027434 0)
(0.487773 -0.0318442 0)
(0.400011 1.90264e-05 0)
(0.400058 3.54229e-05 0)
(0.400146 1.04062e-05 0)
(0.400255 -4.25124e-05 0)
(0.400378 -0.000102972 0)
(0.400525 -0.000168775 0)
(0.400705 -0.000245858 0)
(0.40092 -0.000338576 0)
(0.401174 -0.000450949 0)
(0.401475 -0.00058766 0)
(0.401835 -0.000754477 0)
(0.402266 -0.000958278 0)
(0.402786 -0.00120714 0)
(0.403413 -0.0015108 0)
(0.404172 -0.00188145 0)
(0.405091 -0.00233435 0)
(0.406206 -0.00288926 0)
(0.407562 -0.00357053 0)
(0.409211 -0.00440811 0)
(0.411217 -0.00543795 0)
(0.41366 -0.00670134 0)
(0.416642 -0.00824888 0)
(0.420287 -0.0101452 0)
(0.424753 -0.0124697 0)
(0.43022 -0.0153169 0)
(0.436939 -0.0187943 0)
(0.445137 -0.0230478 0)
(0.455378 -0.0281373 0)
(0.46744 -0.0346235 0)
(0.484169 -0.0408447 0)
(0.400008 4.24995e-06 0)
(0.400045 -5.00429e-07 0)
(0.40012 -3.48688e-05 0)
(0.40022 -9.30251e-05 0)
(0.400338 -0.000162814 0)
(0.400478 -0.000240835 0)
(0.400648 -0.000331941 0)
(0.400851 -0.000441345 0)
(0.401091 -0.000574021 0)
(0.401376 -0.0007359 0)
(0.401716 -0.000934046 0)
(0.402124 -0.00117664 0)
(0.402615 -0.00147328 0)
(0.403207 -0.00183563 0)
(0.403922 -0.00227823 0)
(0.404788 -0.00281935 0)
(0.405839 -0.00348213 0)
(0.407114 -0.00429521 0)
(0.408665 -0.00529376 0)
(0.410552 -0.00652063 0)
(0.41285 -0.00802652 0)
(0.415654 -0.00987307 0)
(0.419083 -0.0121378 0)
(0.423283 -0.0149159 0)
(0.428426 -0.0183218 0)
(0.434756 -0.0224883 0)
(0.44248 -0.0275906 0)
(0.452175 -0.0337399 0)
(0.463554 -0.0414871 0)
(0.479647 -0.0494924 0)
(0.400007 -6.66644e-06 0)
(0.400037 -2.99133e-05 0)
(0.400101 -7.55925e-05 0)
(0.400192 -0.000143823 0)
(0.400301 -0.000226825 0)
(0.400433 -0.000320555 0)
(0.400591 -0.000428286 0)
(0.400781 -0.000556003 0)
(0.401005 -0.00071014 0)
(0.401272 -0.000897828 0)
(0.401589 -0.00112721 0)
(0.401969 -0.00140765 0)
(0.402426 -0.00175025 0)
(0.402977 -0.00216848 0)
(0.403641 -0.00267913 0)
(0.404445 -0.00330322 0)
(0.40542 -0.0040671 0)
(0.406602 -0.00500344 0)
(0.408039 -0.00615236 0)
(0.409786 -0.00756294 0)
(0.411914 -0.00929438 0)
(0.414511 -0.0114189 0)
(0.417684 -0.0140259 0)
(0.421572 -0.0172257 0)
(0.426334 -0.0211519 0)
(0.4322 -0.0259625 0)
(0.439361 -0.0318618 0)
(0.448392 -0.039015 0)
(0.458955 -0.0479607 0)
(0.474215 -0.0577089 0)
(0.400006 -1.60051e-05 0)
(0.400031 -5.41694e-05 0)
(0.400087 -0.000112187 0)
(0.400167 -0.000191259 0)
(0.400269 -0.000285811 0)
(0.40039 -0.00039225 0)
(0.400537 -0.000513503 0)
(0.400711 -0.000656337 0)
(0.400918 -0.000828502 0)
(0.401163 -0.00103827 0)
(0.401455 -0.00129482 0)
(0.401804 -0.00160864 0)
(0.402222 -0.00199216 0)
(0.402726 -0.00246051 0)
(0.403333 -0.0030325 0)
(0.404067 -0.00373161 0)
(0.404955 -0.00458722 0)
(0.406032 -0.00563572 0)
(0.407339 -0.00692186 0)
(0.408928 -0.00850055 0)
(0.410863 -0.0104386 0)
(0.413223 -0.0128178 0)
(0.416107 -0.015739 0)
(0.419638 -0.0193265 0)
(0.423963 -0.0237322 0)
(0.429297 -0.0291385 0)
(0.435808 -0.035778 0)
(0.44406 -0.0438708 0)
(0.453673 -0.0539449 0)
(0.467884 -0.0653799 0)
(0.400005 -2.31662e-05 0)
(0.400026 -7.54168e-05 0)
(0.400074 -0.000145199 0)
(0.400147 -0.000234394 0)
(0.400238 -0.000339455 0)
(0.400349 -0.000457671 0)
(0.400482 -0.00059189 0)
(0.40064 -0.000749324 0)
(0.400828 -0.00093873 0)
(0.401049 -0.00116938 0)
(0.401312 -0.00145135 0)
(0.401626 -0.00179612 0)
(0.402002 -0.00221733 0)
(0.402453 -0.00273159 0)
(0.402997 -0.00335948 0)
(0.403653 -0.00412672 0)
(0.404446 -0.00506537 0)
(0.405406 -0.00621515 0)
(0.40657 -0.00762501 0)
(0.407985 -0.00935504 0)
(0.409705 -0.0114788 0)
(0.411803 -0.0140865 0)
(0.414364 -0.0172894 0)
(0.417499 -0.0212246 0)
(0.421337 -0.026061 0)
(0.426073 -0.0320033 0)
(0.431853 -0.039312 0)
(0.439214 -0.048261 0)
(0.447748 -0.0593711 0)
(0.460679 -0.0724034 0)
(0.400004 -2.93586e-05 0)
(0.400022 -9.3636e-05 0)
(0.400064 -0.000174125 0)
(0.400128 -0.000273025 0)
(0.400209 -0.00038788 0)
(0.400309 -0.000516686 0)
(0.400427 -0.000662446 0)
(0.400568 -0.000832755 0)
(0.400734 -0.00103718 0)
(0.40093 -0.00128588 0)
(0.401162 -0.0015898 0)
(0.401438 -0.00196132 0)
(0.401768 -0.00241513 0)
(0.402162 -0.00296913 0)
(0.402637 -0.00364549 0)
(0.403208 -0.00447185 0)
(0.403898 -0.00548263 0)
(0.404731 -0.0067205 0)
(0.405741 -0.00823804 0)
(0.406965 -0.0101 0)
(0.408453 -0.0123856 0)
(0.410265 -0.0151926 0)
(0.412475 -0.0186412 0)
(0.415178 -0.0228798 0)
(0.418485 -0.0280926 0)
(0.422565 -0.0345046 0)
(0.427539 -0.0424022 0)
(0.433902 -0.0521103 0)
(0.441233 -0.0641458 0)
(0.452645 -0.0786498 0)
(0.400003 -3.46004e-05 0)
(0.400019 -0.000109237 0)
(0.400055 -0.000199395 0)
(0.40011 -0.000307196 0)
(0.400182 -0.000430785 0)
(0.400269 -0.000568795 0)
(0.400372 -0.00072453 0)
(0.400494 -0.000905941 0)
(0.400638 -0.00112326 0)
(0.400806 -0.00138743 0)
(0.401005 -0.00171015 0)
(0.401241 -0.00210457 0)
(0.401521 -0.00258627 0)
(0.401855 -0.00317422 0)
(0.402256 -0.00389192 0)
(0.402737 -0.00476864 0)
(0.403316 -0.00584077 0)
(0.404014 -0.00715344 0)
(0.404858 -0.00876231 0)
(0.40588 -0.0107359 0)
(0.40712 -0.0131584 0)
(0.408626 -0.0161335 0)
(0.410461 -0.019789 0)
(0.412701 -0.0242831 0)
(0.415437 -0.0298125 0)
(0.41881 -0.0366199 0)
(0.422913 -0.0450146 0)
(0.428182 -0.0553675 0)
(0.434198 -0.0681939 0)
(0.443854 -0.0839996 0)
(0.400003 -3.9038e-05 0)
(0.400016 -0.000122548 0)
(0.400047 -0.000221151 0)
(0.400094 -0.000336783 0)
(0.400155 -0.000467923 0)
(0.400229 -0.000613695 0)
(0.400317 -0.000777744 0)
(0.400419 -0.000968361 0)
(0.400539 -0.0011963 0)
(0.400679 -0.00147315 0)
(0.400843 -0.0018112 0)
(0.401036 -0.00222423 0)
(0.401264 -0.00272854 0)
(0.401535 -0.00334396 0)
(0.401858 -0.00409505 0)
(0.402244 -0.00501239 0)
(0.402706 -0.00613396 0)
(0.403262 -0.00750684 0)
(0.403932 -0.00918916 0)
(0.404741 -0.0112525 0)
(0.405719 -0.0137848 0)
(0.406905 -0.0168944 0)
(0.408344 -0.0207153 0)
(0.410096 -0.025413 0)
(0.41223 -0.0311946 0)
(0.414853 -0.0383165 0)
(0.418031 -0.0471069 0)
(0.422121 -0.057976 0)
(0.426724 -0.071437 0)
(0.434403 -0.0883288 0)
(0.400002 -4.27678e-05 0)
(0.400013 -0.00013376 0)
(0.400039 -0.000239523 0)
(0.400078 -0.000361777 0)
(0.400129 -0.000499159 0)
(0.40019 -0.000651169 0)
(0.400261 -0.000821781 0)
(0.400344 -0.00101959 0)
(0.400439 -0.00125575 0)
(0.40055 -0.0015423 0)
(0.400677 -0.00189202 0)
(0.400826 -0.00231918 0)
(0.400999 -0.00284062 0)
(0.401204 -0.00347683 0)
(0.401446 -0.00425317 0)
(0.401733 -0.00520115 0)
(0.402075 -0.00635995 0)
(0.402484 -0.00777808 0)
(0.402973 -0.00951544 0)
(0.403561 -0.0116458 0)
(0.404268 -0.0142598 0)
(0.40512 -0.0174692 0)
(0.406148 -0.0214121 0)
(0.407394 -0.0262593 0)
(0.4089 -0.0322248 0)
(0.410742 -0.0395749 0)
(0.412952 -0.0486514 0)
(0.415799 -0.0598943 0)
(0.418911 -0.0738123 0)
(0.424422 -0.0915297 0)
(0.400002 -4.58547e-05 0)
(0.400011 -0.000143023 0)
(0.400032 -0.000254647 0)
(0.400063 -0.00038221 0)
(0.400104 -0.00052442 0)
(0.400151 -0.000681065 0)
(0.400206 -0.00085641 0)
(0.400268 -0.00105929 0)
(0.400339 -0.00130114 0)
(0.400418 -0.00159432 0)
(0.400509 -0.00195195 0)
(0.400612 -0.00238863 0)
(0.40073 -0.00292157 0)
(0.400867 -0.00357167 0)
(0.401026 -0.0043648 0)
(0.401212 -0.0053331 0)
(0.40143 -0.00651646 0)
(0.401687 -0.00796432 0)
(0.401991 -0.00973765 0)
(0.402352 -0.0119115 0)
(0.40278 -0.0145782 0)
(0.403291 -0.0178514 0)
(0.403899 -0.0218713 0)
(0.404625 -0.0268117 0)
(0.405489 -0.0328902 0)
(0.406528 -0.0403784 0)
(0.407743 -0.0496249 0)
(0.409302 -0.0610888 0)
(0.410871 -0.075269 0)
(0.414069 -0.0935117 0)
(0.400002 -4.835e-05 0)
(0.400009 -0.00015047 0)
(0.400025 -0.000266661 0)
(0.400049 -0.000398156 0)
(0.400079 -0.000543697 0)
(0.400114 -0.000703308 0)
(0.400152 -0.0008815 0)
(0.400193 -0.00108728 0)
(0.400238 -0.00133222 0)
(0.400287 -0.00162889 0)
(0.400339 -0.00199057 0)
(0.400396 -0.00243205 0)
(0.400458 -0.00297071 0)
(0.400526 -0.00362765 0)
(0.400601 -0.00442897 0)
(0.400684 -0.00540706 0)
(0.400776 -0.00660213 0)
(0.40088 -0.00806394 0)
(0.400996 -0.00985386 0)
(0.401127 -0.0120474 0)
(0.401274 -0.0147373 0)
(0.401439 -0.0180376 0)
(0.401622 -0.0220891 0)
(0.401822 -0.0270656 0)
(0.402037 -0.0331848 0)
(0.402264 -0.0407187 0)
(0.402473 -0.0500155 0)
(0.402724 -0.0615411 0)
(0.402726 -0.0757765 0)
(0.403527 -0.0942149 0)
(0.400001 -5.03009e-05 0)
(0.400007 -0.000156231 0)
(0.400019 -0.000275718 0)
(0.400036 -0.000409733 0)
(0.400056 -0.000557046 0)
(0.400077 -0.000717906 0)
(0.400099 -0.000897022 0)
(0.40012 -0.00110348 0)
(0.400139 -0.00134889 0)
(0.400157 -0.00164583 0)
(0.400171 -0.00200766 0)
(0.400181 -0.00244918 0)
(0.400187 -0.00298774 0)
(0.400185 -0.00364442 0)
(0.400176 -0.00444525 0)
(0.400155 -0.00542253 0)
(0.400122 -0.00661634 0)
(0.400072 -0.00807622 0)
(0.4 -0.00986324 0)
(0.399901 -0.0120525 0)
(0.399766 -0.0147359 0)
(0.399584 -0.0180268 0)
(0.399342 -0.0220641 0)
(0.399019 -0.0270195 0)
(0.398586 -0.0331071 0)
(0.398005 -0.0405943 0)
(0.397213 -0.0498211 0)
(0.396162 -0.0612472 0)
(0.394606 -0.0753261 0)
(0.392999 -0.0936151 0)
(0.400001 -5.17579e-05 0)
(0.400005 -0.000160448 0)
(0.400013 -0.000282001 0)
(0.400024 -0.000417104 0)
(0.400034 -0.000564591 0)
(0.400043 -0.000724952 0)
(0.400048 -0.000903051 0)
(0.400048 -0.00110796 0)
(0.400042 -0.00135117 0)
(0.400029 -0.0016452 0)
(0.400006 -0.00200327 0)
(0.39997 -0.00244005 0)
(0.399919 -0.0029727 0)
(0.399849 -0.00362202 0)
(0.399755 -0.00441372 0)
(0.399632 -0.00537964 0)
(0.399474 -0.00655928 0)
(0.399271 -0.00800144 0)
(0.399013 -0.00976619 0)
(0.398685 -0.0119273 0)
(0.398271 -0.014575 0)
(0.397748 -0.0178201 0)
(0.397087 -0.0217983 0)
(0.396247 -0.0266764 0)
(0.395178 -0.0326615 0)
(0.393805 -0.0400114 0)
(0.392033 -0.0490506 0)
(0.389715 -0.0602196 0)
(0.386642 -0.0739337 0)
(0.382694 -0.0917302 0)
(0.400001 -5.27792e-05 0)
(0.400003 -0.000163289 0)
(0.400008 -0.000285731 0)
(0.400012 -0.000420481 0)
(0.400014 -0.000566514 0)
(0.40001 -0.000724616 0)
(0.399999 -0.000899762 0)
(0.399979 -0.00110089 0)
(0.399949 -0.00133928 0)
(0.399905 -0.0016272 0)
(0.399845 -0.00197765 0)
(0.399764 -0.00240498 0)
(0.399658 -0.00292598 0)
(0.39952 -0.00356095 0)
(0.399344 -0.00433498 0)
(0.399121 -0.00527913 0)
(0.398839 -0.00643191 0)
(0.398487 -0.00784081 0)
(0.398045 -0.00956428 0)
(0.397495 -0.0116739 0)
(0.396808 -0.0142573 0)
(0.395951 -0.0174213 0)
(0.39488 -0.0212965 0)
(0.393539 -0.0260429 0)
(0.391852 -0.0318574 0)
(0.389715 -0.0389834 0)
(0.387002 -0.0477234 0)
(0.383476 -0.0584864 0)
(0.37896 -0.0716401 0)
(0.372816 -0.0886215 0)
(0.4 -5.34367e-05 0)
(0.400002 -0.000164959 0)
(0.400004 -0.000287174 0)
(0.400003 -0.000420131 0)
(0.399996 -0.000563072 0)
(0.39998 -0.000717156 0)
(0.399953 -0.000887431 0)
(0.399914 -0.00108259 0)
(0.39986 -0.00131355 0)
(0.399787 -0.00159225 0)
(0.399691 -0.00193129 0)
(0.399566 -0.00234458 0)
(0.399406 -0.0028483 0)
(0.399202 -0.00346209 0)
(0.398946 -0.00421013 0)
(0.398625 -0.00512238 0)
(0.398225 -0.00623592 0)
(0.397727 -0.00759647 0)
(0.397109 -0.00926018 0)
(0.396342 -0.0112958 0)
(0.395391 -0.013787 0)
(0.394212 -0.0168359 0)
(0.392748 -0.0205665 0)
(0.390924 -0.0251296 0)
(0.388648 -0.0307091 0)
(0.385785 -0.0375306 0)
(0.382182 -0.0458686 0)
(0.377531 -0.0560909 0)
(0.371676 -0.0685096 0)
(0.363549 -0.0843921 0)
(0.4 -5.38242e-05 0)
(0.400001 -0.000165739 0)
(0.4 -0.000286668 0)
(0.399995 -0.000416343 0)
(0.39998 -0.000554553 0)
(0.399953 -0.000702908 0)
(0.399912 -0.000866442 0)
(0.399854 -0.00105348 0)
(0.399777 -0.00127449 0)
(0.399676 -0.00154093 0)
(0.399545 -0.00186492 0)
(0.399378 -0.00225971 0)
(0.399166 -0.00274076 0)
(0.3989 -0.00332677 0)
(0.398567 -0.00404081 0)
(0.398153 -0.00491139 0)
(0.397638 -0.00597379 0)
(0.397001 -0.00727147 0)
(0.396213 -0.00885772 0)
(0.39524 -0.0107977 0)
(0.394037 -0.0131704 0)
(0.392551 -0.016072 0)
(0.390712 -0.0196186 0)
(0.388432 -0.0239501 0)
(0.385601 -0.0292354 0)
(0.382059 -0.035679 0)
(0.377632 -0.0435238 0)
(0.371956 -0.0530886 0)
(0.36489 -0.064626 0)
(0.355048 -0.0791801 0)
(0.4 -5.40633e-05 0)
(0.4 -0.000165913 0)
(0.399998 -0.000284643 0)
(0.39999 -0.00040958 0)
(0.399968 -0.000541319 0)
(0.39993 -0.000682246 0)
(0.399875 -0.00083726 0)
(0.3998 -0.00101411 0)
(0.399701 -0.00122271 0)
(0.399574 -0.00147399 0)
(0.39941 -0.00177941 0)
(0.399203 -0.00215146 0)
(0.398942 -0.00260468 0)
(0.398616 -0.00315666 0)
(0.398211 -0.00382909 0)
(0.397707 -0.00464875 0)
(0.397085 -0.00564875 0)
(0.396316 -0.00686984 0)
(0.395368 -0.00836191 0)
(0.394199 -0.0101858 0)
(0.392759 -0.0124153 0)
(0.390984 -0.0151395 0)
(0.388794 -0.0184654 0)
(0.386089 -0.0225211 0)
(0.382742 -0.0274588 0)
(0.378576 -0.0334596 0)
(0.373398 -0.0407331 0)
(0.366811 -0.0495444 0)
(0.358683 -0.0600874 0)
(0.347426 -0.0731487 0)
(0.4 -5.4346e-05 0)
(0.400001 -0.000165937 0)
(0.399998 -0.000281532 0)
(0.399987 -0.000400253 0)
(0.399959 -0.000523818 0)
(0.399912 -0.00065564 0)
(0.399844 -0.00080041 0)
(0.399753 -0.00096514 0)
(0.399634 -0.00115908 0)
(0.399482 -0.00139248 0)
(0.399287 -0.001676 0)
(0.399043 -0.00202124 0)
(0.398737 -0.00244167 0)
(0.398355 -0.00295361 0)
(0.397881 -0.00357714 0)
(0.397295 -0.00433705 0)
(0.396572 -0.00526394 0)
(0.39568 -0.00639544 0)
(0.394583 -0.00777759 0)
(0.393233 -0.00946638 0)
(0.391572 -0.0115296 0)
(0.389529 -0.0140487 0)
(0.387015 -0.0171208 0)
(0.383918 -0.0208611 0)
(0.3801 -0.025404 0)
(0.375371 -0.0309066 0)
(0.369523 -0.0375446 0)
(0.362143 -0.045529 0)
(0.353108 -0.0549996 0)
(0.340747 -0.0664739 0)
(0.4 -5.49534e-05 0)
(0.400002 -0.000166577 0)
(0.400001 -0.000277929 0)
(0.399989 -0.000388626 0)
(0.399956 -0.000502437 0)
(0.399899 -0.000623638 0)
(0.39982 -0.000756446 0)
(0.399714 -0.000907146 0)
(0.399577 -0.00108432 0)
(0.399401 -0.00129745 0)
(0.399179 -0.00155623 0)
(0.3989 -0.00187121 0)
(0.398552 -0.00225466 0)
(0.398119 -0.00272142 0)
(0.397583 -0.00328975 0)
(0.396921 -0.00398217 0)
(0.396105 -0.00482646 0)
(0.395101 -0.00585674 0)
(0.393867 -0.00711471 0)
(0.39235 -0.00865103 0)
(0.390488 -0.0105269 0)
(0.3882 -0.0128155 0)
(0.385392 -0.0156038 0)
(0.381941 -0.0189933 0)
(0.3777 -0.0231003 0)
(0.372471 -0.0280576 0)
(0.366035 -0.0340091 0)
(0.357984 -0.0411145 0)
(0.348197 -0.0494691 0)
(0.335028 -0.0593301 0)
(0.400001 -5.62397e-05 0)
(0.400005 -0.000168669 0)
(0.400008 -0.000274459 0)
(0.399995 -0.000375198 0)
(0.399958 -0.00047791 0)
(0.399894 -0.000587229 0)
(0.399804 -0.000706365 0)
(0.399685 -0.000840889 0)
(0.399531 -0.000998802 0)
(0.399335 -0.00118873 0)
(0.399088 -0.00141933 0)
(0.398778 -0.00169999 0)
(0.398392 -0.00204167 0)
(0.397913 -0.00245761 0)
(0.39732 -0.00296407 0)
(0.39659 -0.00358114 0)
(0.395691 -0.00433351 0)
(0.394585 -0.00525152 0)
(0.393228 -0.00637216 0)
(0.391562 -0.00774033 0)
(0.389519 -0.00941021 0)
(0.387013 -0.0114464 0)
(0.383941 -0.0139252 0)
(0.380176 -0.0169345 0)
(0.375563 -0.020572 0)
(0.369898 -0.0249471 0)
(0.362958 -0.0301749 0)
(0.354349 -0.0363691 0)
(0.343956 -0.0435943 0)
(0.330239 -0.0518774 0)
(0.400002 -5.93435e-05 0)
(0.400011 -0.000173368 0)
(0.40002 -0.000271349 0)
(0.400009 -0.000359766 0)
(0.399967 -0.000450235 0)
(0.399897 -0.000547143 0)
(0.399798 -0.000652277 0)
(0.399668 -0.000770388 0)
(0.3995 -0.000908689 0)
(0.399285 -0.00107471 0)
(0.399016 -0.00127596 0)
(0.398679 -0.00152055 0)
(0.398259 -0.00181797 0)
(0.39774 -0.00217972 0)
(0.397098 -0.00261989 0)
(0.396307 -0.00315584 0)
(0.395335 -0.00380894 0)
(0.394141 -0.00460539 0)
(0.392675 -0.00557714 0)
(0.390879 -0.00676296 0)
(0.388676 -0.00820962 0)
(0.385979 -0.00997286 0)
(0.382677 -0.0121185 0)
(0.378639 -0.0147205 0)
(0.373705 -0.0178586 0)
(0.367669 -0.0216196 0)
(0.360305 -0.0260944 0)
(0.351243 -0.0313578 0)
(0.340372 -0.0374629 0)
(0.326326 -0.0442508 0)
(0.400004 -6.52772e-05 0)
(0.400022 -0.000183025 0)
(0.400041 -0.000270418 0)
(0.400032 -0.000342915 0)
(0.399987 -0.00041735 0)
(0.39991 -0.000497546 0)
(0.399804 -0.000584342 0)
(0.399664 -0.000681989 0)
(0.399483 -0.000796801 0)
(0.399253 -0.000934954 0)
(0.398965 -0.00110276 0)
(0.398604 -0.00130703 0)
(0.398157 -0.00155562 0)
(0.397603 -0.00185814 0)
(0.396919 -0.00222643 0)
(0.396077 -0.00267505 0)
(0.395042 -0.00322184 0)
(0.393772 -0.00388863 0)
(0.392215 -0.00470201 0)
(0.390307 -0.00569428 0)
(0.38797 -0.00690453 0)
(0.38511 -0.00837946 0)
(0.381613 -0.0101751 0)
(0.377346 -0.0123514 0)
(0.372146 -0.0149693 0)
(0.365806 -0.0180954 0)
(0.358103 -0.0218015 0)
(0.348694 -0.0261285 0)
(0.337477 -0.031146 0)
(0.323295 -0.0365572 0)
(0.400008 -7.58101e-05 0)
(0.400041 -0.000198455 0)
(0.400075 -0.000276072 0)
(0.400071 -0.00033787 0)
(0.400022 -0.000401417 0)
(0.399941 -0.00046834 0)
(0.399829 -0.00053949 0)
(0.399681 -0.000618912 0)
(0.39949 -0.000711808 0)
(0.399248 -0.000822836 0)
(0.398944 -0.000957075 0)
(0.398564 -0.00112008 0)
(0.398094 -0.00131826 0)
(0.397512 -0.0015592 0)
(0.396794 -0.00185224 0)
(0.39591 -0.00220889 0)
(0.394825 -0.00264332 0)
(0.393495 -0.00317282 0)
(0.391864 -0.00381843 0)
(0.389868 -0.00460562 0)
(0.387424 -0.00556548 0)
(0.384435 -0.0067353 0)
(0.380786 -0.00816411 0)
(0.376345 -0.00989827 0)
(0.370953 -0.0119777 0)
(0.364401 -0.014451 0)
(0.356478 -0.0173784 0)
(0.346855 -0.0207668 0)
(0.335463 -0.0247342 0)
(0.321282 -0.0288608 0)
(0.400016 -9.91145e-05 0)
(0.400072 -0.000201472 0)
(0.400123 -0.000246495 0)
(0.400121 -0.000287616 0)
(0.400071 -0.000334044 0)
(0.399987 -0.000381985 0)
(0.399871 -0.000432647 0)
(0.399717 -0.000490324 0)
(0.399519 -0.000558708 0)
(0.399268 -0.000640975 0)
(0.398952 -0.000740232 0)
(0.398559 -0.000860292 0)
(0.398071 -0.00100591 0)
(0.397469 -0.0011829 0)
(0.396726 -0.00139824 0)
(0.395813 -0.00166042 0)
(0.394693 -0.00197971 0)
(0.39332 -0.00236866 0)
(0.391641 -0.00284256 0)
(0.389587 -0.00341991 0)
(0.387079 -0.00412362 0)
(0.384015 -0.00498031 0)
(0.380289 -0.00603502 0)
(0.375763 -0.00732481 0)
(0.370275 -0.00886742 0)
(0.363612 -0.0106925 0)
(0.355575 -0.0128505 0)
(0.345802 -0.015318 0)
(0.334347 -0.0182649 0)
(0.319785 -0.0210211 0)
(0.400024 -0.000163657 0)
(0.400179 -0.000324003 0)
(0.400225 -0.000321023 0)
(0.40019 -0.000336642 0)
(0.40012 -0.000363285 0)
(0.400022 -0.000392638 0)
(0.39989 -0.000424099 0)
(0.399716 -0.000459499 0)
(0.399494 -0.000501346 0)
(0.399214 -0.000549371 0)
(0.398866 -0.000610434 0)
(0.398435 -0.000684904 0)
(0.397905 -0.000775594 0)
(0.397255 -0.000886132 0)
(0.396458 -0.00102092 0)
(0.395485 -0.00118548 0)
(0.394299 -0.00138664 0)
(0.392853 -0.00163265 0)
(0.391095 -0.00193348 0)
(0.388956 -0.00230125 0)
(0.386357 -0.00275066 0)
(0.383195 -0.00329934 0)
(0.379375 -0.00396832 0)
(0.374556 -0.00477918 0)
(0.368688 -0.00575143 0)
(0.361569 -0.00690616 0)
(0.353008 -0.00826711 0)
(0.342549 -0.00980723 0)
(0.330563 -0.0117291 0)
(0.313799 -0.0126659 0)
(0.399645 -0.000112914 0)
(0.399345 -0.000190339 0)
(0.398875 -0.000207347 0)
(0.398319 -0.000218819 0)
(0.397733 -0.000232243 0)
(0.397119 -0.000244768 0)
(0.396468 -0.000256865 0)
(0.395773 -0.000270396 0)
(0.395025 -0.000286282 0)
(0.394216 -0.000305429 0)
(0.393333 -0.000328248 0)
(0.39236 -0.000355413 0)
(0.391278 -0.000388043 0)
(0.390062 -0.000427698 0)
(0.388682 -0.000476216 0)
(0.387102 -0.00053567 0)
(0.385277 -0.000608542 0)
(0.383151 -0.000697937 0)
(0.380657 -0.000807745 0)
(0.377712 -0.000942803 0)
(0.374213 -0.00110867 0)
(0.370039 -0.00131301 0)
(0.365051 -0.00155506 0)
(0.359096 -0.00183924 0)
(0.351971 -0.00218266 0)
(0.34343 -0.00259599 0)
(0.333208 -0.00308839 0)
(0.321011 -0.00361503 0)
(0.306794 -0.0044494 0)
(0.285089 -0.00388214 0)
(0.497546 -0.00894477 1.09243e-20)
(0.504821 -0.0138225 -1.73654e-17)
(0.511519 -0.0193976 1.74402e-17)
(0.517067 -0.0255189 8.76311e-18)
(0.521987 -0.0320943 6.61512e-18)
(0.526591 -0.0391016 1.33334e-17)
(0.530976 -0.0465814 6.70013e-18)
(0.535206 -0.0546009 1.80281e-17)
(0.539359 -0.0632167 9.09302e-18)
(0.543489 -0.0724673 4.56778e-18)
(0.547611 -0.0823857 -4.61731e-18)
(0.55172 -0.0930115 9.28017e-18)
(0.555807 -0.104397 4.70744e-18)
(0.559869 -0.116608 4.73219e-18)
(0.563915 -0.129729 9.53749e-18)
(0.567961 -0.143862 4.83053e-18)
(0.57203 -0.159134 1.45307e-17)
(0.576146 -0.175698 0)
(0.580338 -0.193743 0)
(0.584641 -0.213503 4.90765e-18)
(0.589093 -0.235267 -3.18054e-20)
(0.593739 -0.259403 4.99219e-18)
(0.598637 -0.28636 0)
(0.603798 -0.316773 9.89145e-18)
(0.609488 -0.351202 4.89973e-18)
(0.614906 -0.391395 -4.95848e-18)
(0.623422 -0.435457 4.83669e-18)
(0.623243 -0.498363 4.78867e-18)
(0.649611 -0.535056 1.3709e-17)
(0.607687 -0.684526 -4.35221e-18)
(0.503906 -0.0194601 -8.73272e-18)
(0.508768 -0.0244154 9.8794e-18)
(0.512919 -0.0303537 -9.95005e-18)
(0.516451 -0.0367726 0)
(0.519823 -0.0435619 -9.00111e-18)
(0.523246 -0.0507726 -9.05813e-18)
(0.526722 -0.0584842 -2.28306e-18)
(0.530226 -0.0667458 -1.61321e-17)
(0.53375 -0.0755791 -9.28605e-18)
(0.537271 -0.0850034 -9.39336e-18)
(0.540755 -0.0950526 4.72402e-18)
(0.544174 -0.105776 -4.78009e-18)
(0.547514 -0.117238 -9.61308e-18)
(0.550776 -0.129512 -9.69892e-18)
(0.553968 -0.142687 -9.78562e-18)
(0.557097 -0.156869 -9.87246e-18)
(0.56017 -0.172184 -1.99711e-17)
(0.563191 -0.188786 5.02248e-18)
(0.566164 -0.206863 -5.09199e-18)
(0.569093 -0.226643 -1.53704e-17)
(0.571977 -0.248411 4.02883e-20)
(0.574815 -0.27252 -5.01134e-20)
(0.577593 -0.299405 -5.74202e-20)
(0.580271 -0.329652 -1.57494e-17)
(0.582904 -0.363831 -1.05065e-17)
(0.584893 -0.403421 -5.13798e-18)
(0.588336 -0.447272 1.43838e-19)
(0.58413 -0.506508 -1.17506e-19)
(0.602096 -0.547276 -1.49023e-17)
(0.554409 -0.684841 0)
(0.501153 -0.0293406 0)
(0.504644 -0.0342746 0)
(0.507822 -0.0402234 0)
(0.510929 -0.0467056 -1.13778e-18)
(0.514099 -0.053593 1.03342e-17)
(0.51732 -0.0609116 -2.31576e-18)
(0.52052 -0.0687048 2.34159e-18)
(0.523651 -0.0769977 9.43162e-18)
(0.526692 -0.0858158 -2.38007e-18)
(0.529631 -0.0952002 1.20178e-17)
(0.53246 -0.105205 4.85226e-18)
(0.535176 -0.115889 -4.91359e-18)
(0.537779 -0.127318 4.94932e-18)
(0.54027 -0.139566 -5.01508e-18)
(0.542644 -0.152717 -1.0144e-17)
(0.544893 -0.166876 1.0251e-17)
(0.547003 -0.182168 1.03011e-17)
(0.54896 -0.198743 0)
(0.550744 -0.216784 0)
(0.552328 -0.236516 1.06016e-17)
(0.553677 -0.258211 0)
(0.554742 -0.282206 1.6266e-17)
(0.555446 -0.308916 5.47636e-18)
(0.555687 -0.338876 1.0907e-17)
(0.555367 -0.372666 1.6403e-17)
(0.553954 -0.411497 5.55902e-18)
(0.5527 -0.454815 0)
(0.544544 -0.51073 2.1812e-17)
(0.553331 -0.554875 0)
(0.50218 -0.679803 1.04444e-17)
(0.498085 -0.0395071 0)
(0.501007 -0.04465 0)
(0.503671 -0.0507024 0)
(0.506402 -0.0572329 -9.31508e-18)
(0.509158 -0.0641422 0)
(0.511838 -0.0714633 0)
(0.514403 -0.0792458 0)
(0.516857 -0.0875253 9.69366e-18)
(0.519206 -0.0963366 0)
(0.521446 -0.105722 0)
(0.52357 -0.115729 0)
(0.525565 -0.126409 -1.01242e-17)
(0.527419 -0.137821 -1.02401e-17)
(0.529114 -0.150038 -5.15922e-18)
(0.530629 -0.163145 -3.83633e-20)
(0.531944 -0.177247 -1.05298e-17)
(0.53303 -0.192464 1.9554e-20)
(0.533856 -0.208946 1.62874e-17)
(0.53438 -0.226866 5.46361e-18)
(0.53455 -0.246439 -5.55421e-18)
(0.534293 -0.267921 -5.58527e-18)
(0.53352 -0.291625 -5.59379e-18)
(0.532097 -0.31794 -5.69737e-18)
(0.529869 -0.347344 1.74327e-17)
(0.526602 -0.380396 0)
(0.521836 -0.418059 -1.76463e-17)
(0.516098 -0.460205 -5.94116e-18)
(0.504094 -0.512765 2.77259e-19)
(0.504126 -0.557942 -1.76883e-17)
(0.450554 -0.67016 6.27176e-19)
(0.493936 -0.0492846 0)
(0.496268 -0.0544938 9.32896e-18)
(0.498318 -0.0605338 -1.17612e-18)
(0.500511 -0.0670462 2.0219e-17)
(0.502735 -0.0739597 0)
(0.504845 -0.0813011 0)
(0.506821 -0.0891067 9.83934e-18)
(0.508683 -0.0974029 -9.91767e-18)
(0.510431 -0.106218 0)
(0.512046 -0.115588 0)
(0.513506 -0.125561 0)
(0.514792 -0.136188 1.03906e-17)
(0.515883 -0.147533 1.05186e-17)
(0.516757 -0.159669 -5.3317e-18)
(0.517387 -0.17268 1.62008e-17)
(0.517741 -0.186667 0)
(0.517779 -0.201746 1.1141e-17)
(0.517451 -0.218057 -1.68944e-17)
(0.516696 -0.235764 -5.71424e-18)
(0.515433 -0.255066 0)
(0.513561 -0.2762 0)
(0.510951 -0.299453 0)
(0.507421 -0.325176 0)
(0.502768 -0.353793 -6.05507e-18)
(0.496653 -0.385817 -6.20732e-18)
(0.488664 -0.422004 6.19547e-18)
(0.478741 -0.462524 6.3655e-18)
(0.463089 -0.511565 -1.25993e-17)
(0.454919 -0.556453 1.27039e-17)
(0.400022 -0.656305 -1.24306e-17)
(0.488793 -0.0586687 -9.42829e-18)
(0.490576 -0.0639564 -8.91547e-18)
(0.492056 -0.0700287 -1.80505e-18)
(0.493741 -0.0765646 -7.29052e-18)
(0.495463 -0.0834977 -1.72641e-21)
(0.497035 -0.0908454 -3.73541e-18)
(0.498439 -0.0986373 3.89771e-20)
(0.499702 -0.1069 -1.02229e-17)
(0.500821 -0.115664 -7.77062e-18)
(0.501771 -0.124971 1.04904e-17)
(0.502526 -0.134866 0)
(0.503065 -0.145404 1.34583e-17)
(0.503365 -0.156644 -1.365e-17)
(0.503394 -0.168656 -1.10794e-17)
(0.503118 -0.181518 1.68375e-17)
(0.50249 -0.195326 -1.71002e-17)
(0.501458 -0.210189 -5.7407e-18)
(0.499956 -0.226236 -5.95347e-18)
(0.497901 -0.243619 -5.93993e-18)
(0.495192 -0.262519 1.81999e-17)
(0.491699 -0.283152 0)
(0.487262 -0.305771 6.22718e-18)
(0.481659 -0.330689 -1.26938e-17)
(0.474645 -0.358269 1.30423e-17)
(0.4658 -0.388966 6.59184e-18)
(0.454749 -0.423359 1.34707e-17)
(0.44096 -0.461791 0)
(0.421916 -0.507077 1.39708e-17)
(0.406308 -0.550459 0)
(0.351086 -0.63833 -1.4342e-17)
(0.48265 -0.0675808 9.61217e-18)
(0.483896 -0.0729271 4.87644e-18)
(0.484814 -0.0790067 -4.93738e-18)
(0.485979 -0.0855291 3.75139e-18)
(0.487181 -0.0924365 1.51015e-21)
(0.488196 -0.0997462 1.49724e-21)
(0.48901 -0.107487 -9.04737e-18)
(0.489659 -0.115687 2.59489e-18)
(0.49014 -0.124375 1.59429e-17)
(0.490421 -0.133592 -1.34678e-17)
(0.490471 -0.143379 2.73462e-18)
(0.490264 -0.153788 -1.38578e-17)
(0.489769 -0.164875 1.12439e-17)
(0.488948 -0.176704 1.14154e-17)
(0.487756 -0.189351 -5.7603e-18)
(0.486138 -0.202903 1.178e-17)
(0.484027 -0.217462 0)
(0.481345 -0.233143 6.07302e-18)
(0.477993 -0.250086 6.22678e-18)
(0.47385 -0.26845 -1.26086e-17)
(0.468762 -0.288425 0)
(0.462543 -0.310231 -6.56109e-18)
(0.454939 -0.334136 3.16579e-20)
(0.44567 -0.360441 -1.35657e-17)
(0.434261 -0.389535 1.39818e-17)
(0.420361 -0.421846 -2.13613e-17)
(0.403083 -0.457787 0)
(0.380973 -0.499113 -1.46983e-17)
(0.358825 -0.540034 1.51239e-19)
(0.304139 -0.616443 1.55064e-17)
(0.475507 -0.0759033 4.93042e-18)
(0.476225 -0.0812866 -4.35557e-18)
(0.476589 -0.0873501 4.41277e-18)
(0.477235 -0.0938346 -1.02387e-17)
(0.477914 -0.100692 -5.19697e-18)
(0.478375 -0.107938 -1.31374e-18)
(0.478603 -0.1156 5.34436e-18)
(0.478642 -0.123704 1.21697e-17)
(0.478485 -0.132278 5.50121e-18)
(0.478095 -0.141359 -2.78381e-18)
(0.477436 -0.150988 2.83006e-18)
(0.476476 -0.161212 -2.89202e-18)