/*--------------------------------*- C++ -*----------------------------------*\
  =========                 |
  \\      /  F ield         | OpenFOAM: The Open Source CFD Toolbox
   \\    /   O peration     | Website:  https://openfoam.org
    \\  /    A nd           | Version:  11
     \\/     M anipulation  |
\*---------------------------------------------------------------------------*/
FoamFile
{
    format      ascii;
    class       volScalarField;
    location    "2.1";
    object      p;
}
// * * * * * * * * * * * * * * * * * * * * * * * * * * * * * * * * * * * * * //

dimensions      [0 2 -2 0 0 0 0];

internalField   nonuniform List<scalar> 
12600
(
0.82746
0.827324
0.827253
0.827221
0.827184
0.827135
0.827075
0.827004
0.826921
0.826823
0.826705
0.826563
0.826391
0.826182
0.82593
0.825623
0.825247
0.824787
0.824222
0.823529
0.822672
0.821617
0.820321
0.818722
0.816736
0.814266
0.811185
0.807326
0.802504
0.79638
0.827389
0.827317
0.827256
0.827221
0.827184
0.827136
0.827077
0.827007
0.826925
0.826828
0.826711
0.826571
0.826401
0.826196
0.825946
0.825642
0.825271
0.824819
0.824262
0.823579
0.822734
0.821689
0.820411
0.818833
0.816874
0.814434
0.811389
0.807575
0.802782
0.79675
0.827357
0.827321
0.827268
0.827227
0.827189
0.827142
0.827084
0.827016
0.826936
0.826841
0.826726
0.826589
0.826422
0.826221
0.825977
0.82568
0.825317
0.824874
0.82433
0.823662
0.822838
0.821822
0.820575
0.819034
0.817121
0.814738
0.811758
0.808029
0.803308
0.797406
0.827337
0.827313
0.82727
0.827229
0.827191
0.827146
0.827092
0.827026
0.826949
0.826856
0.826745
0.826612
0.826451
0.826256
0.82602
0.825733
0.825383
0.824955
0.82443
0.823786
0.822992
0.822015
0.820813
0.819327
0.817481
0.815182
0.812303
0.808697
0.804107
0.798372
0.827325
0.827308
0.827274
0.827237
0.8272
0.827157
0.827104
0.827041
0.826967
0.826878
0.826772
0.826644
0.82649
0.826304
0.826079
0.825804
0.82547
0.825062
0.824562
0.823948
0.823193
0.822264
0.82112
0.819705
0.817949
0.81576
0.813015
0.809571
0.805167
0.799661
0.827318
0.827306
0.827278
0.827244
0.827208
0.827167
0.827117
0.827058
0.826987
0.826903
0.826802
0.826682
0.826536
0.826361
0.826148
0.82589
0.825575
0.825191
0.824721
0.824145
0.823437
0.822566
0.821493
0.820167
0.81852
0.816466
0.813887
0.810646
0.80648
0.801263
0.827316
0.827307
0.827284
0.827253
0.827219
0.82718
0.827134
0.827078
0.827012
0.826933
0.826839
0.826727
0.826591
0.826428
0.82623
0.825991
0.825699
0.825343
0.824908
0.824376
0.823722
0.822919
0.821929
0.820706
0.819187
0.817292
0.814909
0.81191
0.808034
0.803167
0.827318
0.82731
0.82729
0.827263
0.827232
0.827196
0.827153
0.827101
0.82704
0.826967
0.826881
0.826777
0.826653
0.826504
0.826323
0.826104
0.825839
0.825515
0.82512
0.824637
0.824044
0.823317
0.822421
0.821315
0.819941
0.818228
0.816071
0.81335
0.809815
0.80536
0.827322
0.827315
0.827298
0.827274
0.827246
0.827213
0.827173
0.827126
0.827071
0.827005
0.826927
0.826834
0.826722
0.826588
0.826426
0.826231
0.825994
0.825705
0.825354
0.824925
0.8244
0.823757
0.822965
0.821988
0.820775
0.819263
0.817357
0.814951
0.811805
0.807826
0.827328
0.827322
0.827308
0.827287
0.827261
0.827231
0.827196
0.827154
0.827104
0.827046
0.826977
0.826895
0.826797
0.826679
0.826538
0.826368
0.826162
0.825912
0.825608
0.825238
0.824785
0.824232
0.823552
0.822714
0.821676
0.820383
0.818753
0.816691
0.813981
0.810538
0.827337
0.827332
0.82732
0.827301
0.827278
0.827252
0.827221
0.827184
0.82714
0.82709
0.82703
0.82696
0.826876
0.826776
0.826657
0.826514
0.826341
0.826132
0.825878
0.82557
0.825195
0.824737
0.824176
0.823487
0.822634
0.821574
0.820238
0.818548
0.816314
0.813463
0.827347
0.827343
0.827332
0.827316
0.827297
0.827273
0.827247
0.827215
0.827178
0.827136
0.827086
0.827028
0.82696
0.826879
0.826783
0.826667
0.826529
0.826363
0.826162
0.825919
0.825625
0.825266
0.82483
0.824295
0.823636
0.82282
0.821793
0.820496
0.818772
0.816561
0.827359
0.827355
0.827346
0.827333
0.827316
0.827296
0.827274
0.827248
0.827218
0.827184
0.827145
0.8271
0.827047
0.826985
0.826913
0.826827
0.826725
0.826602
0.826456
0.82628
0.826069
0.825813
0.825504
0.825128
0.824668
0.824103
0.823395
0.822505
0.821315
0.819781
0.827372
0.827369
0.827361
0.82735
0.827336
0.82732
0.827302
0.827282
0.827259
0.827233
0.827205
0.827173
0.827136
0.827095
0.827046
0.82699
0.826925
0.826848
0.826757
0.82665
0.826523
0.826371
0.826191
0.825976
0.825718
0.825406
0.825021
0.824543
0.823899
0.823065
0.827386
0.827383
0.827377
0.827368
0.827357
0.827344
0.827331
0.827316
0.8273
0.827284
0.827266
0.827247
0.827227
0.827206
0.827182
0.827156
0.827128
0.827096
0.827062
0.827023
0.826981
0.826934
0.826883
0.826828
0.82677
0.82671
0.826646
0.826578
0.82648
0.826348
0.8274
0.827398
0.827393
0.827386
0.827378
0.827369
0.82736
0.827351
0.827342
0.827334
0.827328
0.827322
0.827318
0.827317
0.827318
0.827322
0.827331
0.827345
0.827366
0.827396
0.827438
0.827494
0.827571
0.827674
0.827813
0.827999
0.828247
0.828577
0.829009
0.829562
0.827416
0.827414
0.827411
0.827405
0.827399
0.827393
0.827389
0.827385
0.827384
0.827385
0.827389
0.827396
0.827409
0.827427
0.827453
0.827487
0.827533
0.827592
0.827668
0.827765
0.827889
0.828047
0.828248
0.828504
0.828832
0.829254
0.8298
0.830508
0.831439
0.832639
0.827432
0.827431
0.827428
0.827424
0.82742
0.827418
0.827417
0.827419
0.827425
0.827434
0.827449
0.827469
0.827498
0.827536
0.827585
0.827649
0.82773
0.827833
0.827963
0.828125
0.828329
0.828585
0.828905
0.829308
0.829816
0.83046
0.831284
0.832342
0.833729
0.835516
0.827449
0.827448
0.827445
0.827443
0.827441
0.827442
0.827445
0.827453
0.827465
0.827482
0.827507
0.827541
0.827584
0.827641
0.827714
0.827806
0.827922
0.828067
0.828248
0.828473
0.828754
0.829102
0.829536
0.830077
0.830754
0.831604
0.832681
0.834053
0.835842
0.838138
0.827466
0.827465
0.827463
0.827461
0.827461
0.827465
0.827473
0.827485
0.827503
0.827529
0.827563
0.827609
0.827668
0.827743
0.827837
0.827957
0.828105
0.828291
0.828521
0.828806
0.829159
0.829595
0.830135
0.830804
0.831635
0.832672
0.833976
0.835621
0.837748
0.840462
0.827483
0.827482
0.82748
0.827479
0.827481
0.827487
0.827498
0.827516
0.82754
0.827573
0.827617
0.827673
0.827746
0.827838
0.827954
0.828099
0.828279
0.828502
0.828778
0.829119
0.829539
0.830057
0.830695
0.831481
0.832453
0.833656
0.835156
0.837032
0.839431
0.842463
0.827501
0.8275
0.827498
0.827496
0.827499
0.827508
0.827523
0.827544
0.827574
0.827614
0.827666
0.827734
0.82782
0.827928
0.828063
0.828232
0.828441
0.828699
0.829018
0.82941
0.829893
0.830485
0.831212
0.832104
0.8332
0.834548
0.836214
0.838278
0.840881
0.844132
0.827519
0.827518
0.827514
0.827513
0.827517
0.827528
0.827546
0.827571
0.827606
0.827652
0.827712
0.82779
0.827888
0.82801
0.828164
0.828354
0.82859
0.82888
0.829238
0.829677
0.830215
0.830875
0.831681
0.832667
0.833871
0.835343
0.837146
0.839356
0.842101
0.845478
0.827538
0.827535
0.82753
0.827527
0.827533
0.827546
0.827566
0.827595
0.827634
0.827686
0.827754
0.82784
0.827949
0.828085
0.828254
0.828464
0.828723
0.829043
0.829435
0.829916
0.830504
0.831223
0.832099
0.833166
0.834463
0.836039
0.837952
0.84027
0.843103
0.846527
0.827558
0.827553
0.827545
0.827541
0.827547
0.827562
0.827584
0.827616
0.827659
0.827716
0.82779
0.827884
0.828002
0.82815
0.828334
0.828561
0.828841
0.829185
0.829608
0.830125
0.830757
0.831527
0.832463
0.833599
0.834973
0.836633
0.838632
0.841028
0.843906
0.847317
0.82758
0.827572
0.827557
0.827552
0.827559
0.827576
0.8276
0.827634
0.827681
0.827743
0.827822
0.827923
0.828049
0.828206
0.828402
0.828644
0.828942
0.829307
0.829756
0.830304
0.830972
0.831785
0.832771
0.833963
0.835401
0.837127
0.839191
0.841639
0.844533
0.847894
0.827605
0.82759
0.827567
0.82756
0.827569
0.827587
0.827612
0.827648
0.827698
0.827763
0.827847
0.827953
0.828086
0.828252
0.828457
0.828711
0.829023
0.829406
0.829876
0.830449
0.831146
0.831994
0.83302
0.834257
0.835744
0.837521
0.839632
0.842114
0.84501
0.84831
0.827635
0.827608
0.827576
0.827569
0.827579
0.827597
0.827624
0.827661
0.827713
0.827781
0.827868
0.827978
0.828116
0.828288
0.828501
0.828764
0.829087
0.829483
0.829969
0.83056
0.831281
0.832154
0.83321
0.834482
0.836005
0.837819
0.839963
0.842464
0.845361
0.848622
0.827673
0.827611
0.827574
0.827572
0.827584
0.827602
0.827629
0.827668
0.827721
0.827791
0.827881
0.827994
0.828135
0.828312
0.82853
0.828799
0.82913
0.829536
0.830032
0.830636
0.831372
0.832263
0.83334
0.834634
0.836182
0.83802
0.840185
0.842694
0.845584
0.848839
0.827749
0.827622
0.827573
0.827575
0.827588
0.827606
0.827633
0.827673
0.827727
0.827798
0.827889
0.828004
0.828147
0.828325
0.828546
0.828819
0.829154
0.829565
0.830067
0.83068
0.831424
0.832326
0.833414
0.834721
0.836283
0.838134
0.840306
0.842819
0.845675
0.848833
0.790912
0.788658
0.786864
0.785371
0.783801
0.782069
0.780238
0.778357
0.776433
0.774459
0.772427
0.770331
0.768156
0.765881
0.763477
0.760908
0.75813
0.755086
0.751702
0.747883
0.743505
0.738402
0.73235
0.725043
0.71607
0.704752
0.690666
0.669916
0.652756
0.597643
0.792088
0.790198
0.788545
0.787075
0.785547
0.783915
0.782245
0.78057
0.778879
0.777153
0.775384
0.773562
0.771672
0.769695
0.767606
0.765374
0.762963
0.760323
0.757392
0.754088
0.750304
0.745898
0.740679
0.734385
0.726658
0.716946
0.704759
0.687601
0.670969
0.626102
0.792511
0.791015
0.789682
0.788366
0.786997
0.785587
0.784167
0.78274
0.781293
0.779814
0.778299
0.776742
0.775131
0.773451
0.771681
0.769797
0.767767
0.765551
0.763096
0.760333
0.757173
0.753496
0.749142
0.743895
0.737444
0.729356
0.719132
0.705089
0.690121
0.654167
0.793533
0.792405
0.791383
0.790241
0.789029
0.787813
0.786605
0.785393
0.784167
0.782925
0.781662
0.780372
0.779046
0.77767
0.776228
0.774701
0.773063
0.77128
0.769311
0.7671
0.764574
0.761635
0.75815
0.753944
0.748756
0.742251
0.733934
0.722702
0.709866
0.681692
0.79495
0.794085
0.7933
0.792326
0.791282
0.790269
0.789283
0.7883
0.78731
0.786314
0.785311
0.784296
0.78326
0.782195
0.781089
0.779928
0.778691
0.777354
0.775884
0.774237
0.772356
0.770163
0.767553
0.764384
0.760441
0.755471
0.749005
0.740368
0.729837
0.708468
0.79673
0.796104
0.795551
0.794765
0.793908
0.793101
0.792336
0.791578
0.79082
0.790069
0.789325
0.788585
0.787843
0.787093
0.786329
0.78554
0.784712
0.783827
0.782862
0.781783
0.780549
0.779099
0.777351
0.775196
0.772461
0.768954
0.764252
0.757989
0.749756
0.734249
0.798864
0.798464
0.798131
0.797532
0.796861
0.796257
0.795708
0.795175
0.794652
0.794148
0.793667
0.793206
0.792762
0.792333
0.791914
0.791501
0.791085
0.790656
0.790196
0.789684
0.78909
0.78837
0.787464
0.786288
0.784707
0.782577
0.779531
0.775412
0.769388
0.758833
0.801348
0.801161
0.80104
0.800628
0.800143
0.799743
0.799411
0.799103
0.798815
0.798559
0.79834
0.798158
0.798012
0.797903
0.797831
0.797794
0.797789
0.79781
0.79785
0.797895
0.797925
0.797913
0.797813
0.797565
0.797067
0.796212
0.794689
0.792468
0.788498
0.782056
0.804168
0.804183
0.804262
0.804035
0.803738
0.803539
0.80342
0.803335
0.80328
0.80327
0.803312
0.803407
0.803558
0.803767
0.804037
0.804371
0.804769
0.805233
0.805759
0.806341
0.806971
0.807631
0.808291
0.808908
0.809407
0.809706
0.809554
0.808976
0.806864
0.803735
0.807303
0.807508
0.807774
0.807728
0.807618
0.807617
0.807707
0.807841
0.808016
0.808247
0.808546
0.808913
0.809354
0.809874
0.810478
0.811172
0.811961
0.812849
0.813839
0.814933
0.816127
0.817413
0.818774
0.82018
0.821575
0.822897
0.823944
0.824753
0.824271
0.823708
0.810719
0.811099
0.811538
0.811669
0.811742
0.811934
0.812227
0.812574
0.812971
0.813437
0.813984
0.814615
0.815336
0.816154
0.817078
0.818115
0.819274
0.820563
0.821989
0.823557
0.82527
0.827127
0.829119
0.831227
0.833407
0.835611
0.837674
0.839621
0.840519
0.841843
0.814371
0.81491
0.815505
0.815805
0.816057
0.816434
0.81692
0.81747
0.81808
0.818771
0.819553
0.820434
0.82142
0.82252
0.823744
0.825102
0.826605
0.828263
0.830086
0.832084
0.834263
0.836627
0.839172
0.841885
0.844733
0.847673
0.850569
0.85342
0.855443
0.858064
0.818196
0.818876
0.81961
0.820069
0.820492
0.821044
0.821712
0.822452
0.823262
0.824162
0.825164
0.826277
0.827508
0.828867
0.830365
0.832015
0.833829
0.835818
0.837994
0.84037
0.842955
0.845753
0.848766
0.851982
0.855374
0.858902
0.862449
0.865989
0.868885
0.872311
0.822122
0.822924
0.823776
0.824381
0.824965
0.82568
0.826514
0.827427
0.82842
0.82951
0.830713
0.832035
0.833486
0.835077
0.83682
0.838727
0.840812
0.843088
0.845568
0.848265
0.851188
0.854344
0.857733
0.861346
0.865156
0.869119
0.873133
0.877143
0.880636
0.884468
0.826062
0.826965
0.827915
0.828652
0.829382
0.830243
0.831225
0.832293
0.833448
0.834707
0.836085
0.837591
0.839233
0.841023
0.842975
0.8451
0.847414
0.849928
0.852657
0.855612
0.858804
0.862237
0.865911
0.869814
0.873916
0.878167
0.882466
0.886717
0.890492
0.89436
0.829923
0.830907
0.831933
0.832786
0.833645
0.834634
0.835742
0.836942
0.838235
0.839637
0.841163
0.842822
0.844623
0.846577
0.848699
0.851
0.853495
0.856196
0.859116
0.862267
0.865655
0.869286
0.873154
0.877244
0.881522
0.885925
0.890351
0.894659
0.898482
0.902054
0.833611
0.834655
0.835736
0.836684
0.837654
0.838749
0.839961
0.841268
0.842672
0.844189
0.845833
0.847612
0.849536
0.851617
0.853867
0.8563
0.858927
0.861761
0.864814
0.868095
0.87161
0.87536
0.879336
0.883518
0.887864
0.892303
0.896727
0.900963
0.90471
0.907913
0.837036
0.838119
0.839235
0.840259
0.841317
0.842494
0.843785
0.845173
0.84666
0.848262
0.84999
0.851855
0.853866
0.856033
0.85837
0.860887
0.863598
0.866512
0.86964
0.872989
0.876562
0.880356
0.884358
0.888541
0.892857
0.897226
0.901531
0.905573
0.909093
0.911745
0.840118
0.841223
0.842356
0.843433
0.844557
0.845792
0.847135
0.848576
0.850117
0.851772
0.853553
0.855468
0.857527
0.859741
0.862121
0.864678
0.867422
0.870364
0.87351
0.876866
0.880431
0.884198
0.888149
0.892249
0.896442
0.900636
0.9047
0.908407
0.911496
0.913418
0.8428
0.843909
0.845043
0.846151
0.847316
0.848584
0.849954
0.851419
0.852985
0.854662
0.856462
0.858392
0.860463
0.862684
0.865065
0.867616
0.870347
0.873264
0.876374
0.879679
0.883173
0.886846
0.890672
0.894608
0.898589
0.902505
0.906207
0.909434
0.911943
0.913071
0.845045
0.846144
0.847264
0.848383
0.849563
0.85084
0.852211
0.853675
0.855236
0.856904
0.85869
0.860602
0.862647
0.864836
0.867178
0.86968
0.872351
0.875196
0.878218
0.881416
0.88478
0.888294
0.891926
0.895622
0.899304
0.902848
0.906094
0.908737
0.910597
0.910525
0.846846
0.847922
0.849014
0.850124
0.851298
0.852559
0.853908
0.855343
0.856872
0.858502
0.860244
0.862103
0.864089
0.86621
0.868473
0.870885
0.873453
0.876179
0.879063
0.882101
0.885279
0.888574
0.891945
0.895331
0.898642
0.901731
0.904433
0.906372
0.907521
0.905746
0.848222
0.849262
0.850317
0.851399
0.852544
0.853768
0.855072
0.856455
0.857926
0.859491
0.861159
0.862936
0.86483
0.866848
0.868996
0.87128
0.873703
0.876267
0.878968
0.881798
0.884737
0.887756
0.890808
0.893818
0.896683
0.899234
0.901302
0.902402
0.902811
0.899113
0.849215
0.85021
0.851218
0.852257
0.853354
0.854521
0.855759
0.857069
0.858458
0.859933
0.8615
0.863166
0.864937
0.86682
0.868819
0.870938
0.873179
0.87554
0.878014
0.880589
0.88324
0.88593
0.888602
0.891168
0.893513
0.895439
0.896785
0.89691
0.896478
0.890728
0.849889
0.850832
0.851784
0.852765
0.853799
0.854893
0.856048
0.857267
0.858556
0.859919
0.861364
0.862896
0.864519
0.866238
0.868058
0.869979
0.872001
0.87412
0.876325
0.878598
0.880909
0.883213
0.885443
0.887497
0.889246
0.890454
0.890974
0.889958
0.888505
0.880274
0.850326
0.851212
0.852097
0.853005
0.853959
0.854965
0.856023
0.857134
0.858302
0.859535
0.860835
0.862208
0.863657
0.865186
0.866797
0.868488
0.870258
0.872097
0.873993
0.875921
0.877845
0.879711
0.88144
0.882915
0.883987
0.884377
0.883951
0.881605
0.878963
0.867777
0.850608
0.851435
0.852243
0.85307
0.853939
0.854851
0.855804
0.856798
0.857837
0.858926
0.860068
0.861267
0.862524
0.863841
0.865218
0.866652
0.868137
0.869661
0.871207
0.872745
0.87423
0.8756
0.876761
0.877577
0.877881
0.877335
0.875833
0.871958
0.867979
0.85337
0.850885
0.851604
0.852272
0.85299
0.853768
0.854576
0.855411
0.856277
0.857173
0.858102
0.859068
0.860072
0.861117
0.862204
0.863326
0.864476
0.865647
0.866825
0.867985
0.869092
0.870093
0.870913
0.871447
0.871532
0.870984
0.869393
0.866699
0.861086
0.855693
0.837098
0.851448
0.851948
0.852371
0.85297
0.853677
0.854396
0.855122
0.85587
0.85663
0.857411
0.858213
0.859013
0.859831
0.860681
0.861534
0.862379
0.863209
0.864008
0.864743
0.865371
0.865829
0.866029
0.865848
0.865098
0.863572
0.860783
0.85675
0.84905
0.84231
0.818917
0.852037
0.852038
0.852166
0.852662
0.853292
0.853931
0.85454
0.855122
0.855703
0.856291
0.856894
0.857493
0.858079
0.858654
0.859206
0.859722
0.860187
0.860576
0.860855
0.860972
0.860855
0.8604
0.859465
0.857832
0.855272
0.851184
0.845844
0.835431
0.828086
0.798466
0.77676
0.752598
0.724712
0.694341
0.661912
0.626865
0.588942
0.548764
0.507332
0.465527
0.42491
0.385747
0.349559
0.32126
0.306329
0.30658
0.31921
0.338904
0.359935
0.378554
0.39125
0.398016
0.402696
0.407205
0.409088
0.405982
0.395632
0.379218
0.36028
0.338325
0.813701
0.792945
0.76822
0.741464
0.712302
0.680241
0.644418
0.605235
0.562905
0.517935
0.471524
0.42487
0.379808
0.341171
0.318136
0.314086
0.325272
0.345266
0.366937
0.385066
0.396213
0.402215
0.407415
0.412143
0.412654
0.406562
0.395647
0.380874
0.363246
0.344525
0.821044
0.802485
0.780048
0.754628
0.726301
0.694357
0.658656
0.619872
0.578017
0.533605
0.487204
0.440377
0.394989
0.355165
0.330896
0.32648
0.337716
0.357732
0.37859
0.395095
0.404443
0.408751
0.412109
0.413424
0.409855
0.400749
0.387806
0.369869
0.342294
0.315086
0.835281
0.818907
0.798639
0.775897
0.749966
0.719508
0.684572
0.645458
0.602377
0.556053
0.507692
0.459055
0.412189
0.371329
0.3456
0.339763
0.349892
0.369348
0.389571
0.405107
0.413988
0.41789
0.420194
0.418764
0.411861
0.39942
0.382069
0.360106
0.332744
0.306887
0.842174
0.828221
0.810588
0.790364
0.766894
0.738888
0.705917
0.668068
0.625514
0.578794
0.529156
0.478574
0.429654
0.386925
0.359073
0.351429
0.360684
0.37988
0.399712
0.414538
0.422874
0.426487
0.427256
0.423709
0.415346
0.403012
0.38829
0.371989
0.357675
0.346065
0.847947
0.836138
0.820639
0.802407
0.780747
0.754514
0.723072
0.686326
0.644382
0.59765
0.547241
0.495213
0.444597
0.400221
0.370661
0.361683
0.370522
0.389592
0.409041
0.423176
0.43089
0.43378
0.432992
0.427873
0.418927
0.40783
0.397174
0.38834
0.386627
0.391921
0.851807
0.841778
0.82843
0.812284
0.792617
0.768303
0.738546
0.703005
0.661656
0.61486
0.563699
0.51033
0.458117
0.412227
0.381246
0.371188
0.379688
0.398623
0.417694
0.431187
0.438223
0.440192
0.437982
0.431728
0.423019
0.41441
0.409197
0.408235
0.418789
0.435991
0.854526
0.846126
0.834627
0.820365
0.802596
0.780206
0.75228
0.718228
0.677792
0.631196
0.57947
0.52485
0.471013
0.423536
0.391148
0.380049
0.388249
0.407103
0.425863
0.438762
0.445065
0.446
0.442473
0.43546
0.427757
0.422829
0.424648
0.432141
0.451388
0.470499
0.85636
0.849363
0.839515
0.826967
0.810963
0.790395
0.764268
0.731793
0.69248
0.646355
0.594325
0.538635
0.483232
0.434145
0.400376
0.388332
0.396338
0.41519
0.433679
0.445981
0.45147
0.451257
0.446496
0.439188
0.433421
0.433523
0.441323
0.457734
0.480043
0.493932
0.857567
0.851785
0.843396
0.832394
0.818021
0.799184
0.774805
0.743923
0.705828
0.660335
0.60819
0.551598
0.494732
0.444071
0.408998
0.396139
0.404053
0.422949
0.441184
0.452863
0.457462
0.45599
0.450109
0.443111
0.440171
0.445354
0.458996
0.479109
0.498856
0.506004
0.85832
0.853586
0.846471
0.83686
0.823987
0.806788
0.784113
0.754839
0.718043
0.67331
0.621197
0.563843
0.505598
0.453398
0.417088
0.403525
0.411434
0.430412
0.448407
0.459431
0.463065
0.460339
0.453558
0.447434
0.447893
0.457171
0.474812
0.49337
0.507315
0.508288
0.858742
0.854915
0.848924
0.840539
0.829033
0.813371
0.792338
0.76467
0.729236
0.685382
0.633443
0.575452
0.515902
0.462184
0.424682
0.410518
0.41851
0.437611
0.455378
0.465699
0.468272
0.46429
0.456827
0.45187
0.45571
0.468188
0.485267
0.499867
0.508917
0.503397
0.858923
0.85588
0.850873
0.843582
0.833314
0.819081
0.799613
0.773525
0.739492
0.696613
0.644976
0.586463
0.525677
0.470457
0.431803
0.417145
0.42531
0.444573
0.462117
0.471675
0.473119
0.467328
0.459216
0.456742
0.462825
0.475795
0.490379
0.500696
0.506639
0.495393
0.858925
0.856563
0.852418
0.846106
0.836966
0.824048
0.80606
0.781512
0.7489
0.70707
0.655842
0.596914
0.534956
0.478246
0.43848
0.423435
0.431863
0.451323
0.468646
0.477375
0.477615
0.469446
0.461902
0.46118
0.467765
0.480087
0.492115
0.4988
0.501031
0.486759
0.858795
0.857024
0.853636
0.84819
0.840091
0.828382
0.811787
0.788731
0.757541
0.716818
0.666094
0.606848
0.543775
0.485585
0.444738
0.429416
0.438192
0.457887
0.474996
0.482841
0.481309
0.471797
0.464856
0.463703
0.4705
0.482191
0.49265
0.495589
0.493647
0.477699
0.858564
0.85731
0.854593
0.849934
0.84276
0.832166
0.816882
0.795264
0.765489
0.725918
0.675781
0.616303
0.552169
0.4925
0.450601
0.43511
0.444317
0.464285
0.481186
0.488022
0.483725
0.474867
0.466364
0.464716
0.472237
0.483754
0.49258
0.491087
0.485699
0.468835
0.858256
0.857453
0.855331
0.851379
0.845048
0.83548
0.821425
0.801184
0.772806
0.73442
0.684944
0.625314
0.560165
0.499017
0.456091
0.44054
0.450262
0.470541
0.487181
0.492518
0.486441
0.47688
0.466311
0.465219
0.473691
0.485793
0.491165
0.485847
0.47743
0.460136
0.85789
0.85748
0.855885
0.852574
0.847017
0.838391
0.825481
0.806557
0.779553
0.742373
0.69362
0.633912
0.567792
0.505155
0.461227
0.445726
0.456047
0.476682
0.492963
0.496061
0.489791
0.477299
0.465343
0.466058
0.476562
0.48706
0.488559
0.480261
0.469333
0.451412
0.857481
0.85741
0.856284
0.853552
0.848713
0.840959
0.829113
0.811441
0.785779
0.749821
0.701845
0.642126
0.575074
0.510935
0.466025
0.450684
0.461688
0.48273
0.498591
0.499575
0.492098
0.476311
0.464649
0.468039
0.47987
0.487116
0.484994
0.474188
0.461378
0.442815
0.85704
0.857262
0.856551
0.854345
0.850148
0.843228
0.832374
0.815888
0.791534
0.756803
0.709652
0.649983
0.582033
0.516375
0.470503
0.455429
0.467199
0.488655
0.503791
0.503321
0.493003
0.474663
0.464901
0.471372
0.482232
0.486204
0.480632
0.467769
0.453585
0.434377
0.856575
0.857047
0.856705
0.85498
0.851395
0.845226
0.835302
0.819946
0.79686
0.763357
0.71707
0.657507
0.588691
0.521488
0.474674
0.459976
0.472597
0.494367
0.507628
0.506834
0.492557
0.473314
0.46674
0.474953
0.483746
0.484197
0.475636
0.461272
0.445987
0.426092
0.856092
0.856774
0.856759
0.855474
0.852455
0.846986
0.837937
0.823653
0.801795
0.769515
0.724127
0.664723
0.595069
0.526294
0.478554
0.464343
0.477912
0.499786
0.511247
0.509024
0.490974
0.47262
0.469206
0.477906
0.484355
0.48129
0.470298
0.45477
0.438563
0.41794
0.855593
0.856453
0.856725
0.855843
0.85335
0.848538
0.840311
0.827045
0.806375
0.775309
0.730849
0.671649
0.601179
0.530823
0.482183
0.468517
0.483127
0.504827
0.515214
0.509277
0.488933
0.472447
0.471954
0.480235
0.483861
0.477745
0.464761
0.448261
0.431218
0.409921
0.855085
0.856094
0.856614
0.856099
0.854095
0.849903
0.842452
0.830154
0.81063
0.780766
0.737262
0.678312
0.607045
0.535091
0.485521
0.472523
0.488141
0.50908
0.518358
0.508116
0.486912
0.472871
0.474486
0.481884
0.482519
0.473756
0.459134
0.441817
0.423903
0.402093
0.854583
0.855711
0.856438
0.856255
0.854707
0.851097
0.844383
0.833005
0.814588
0.785909
0.743375
0.684713
0.61266
0.539099
0.488505
0.476333
0.492791
0.51294
0.52014
0.506218
0.48496
0.473451
0.476653
0.48274
0.480558
0.469454
0.453451
0.4354
0.416561
0.394443
0.854103
0.855313
0.856207
0.856323
0.855196
0.852134
0.846123
0.835621
0.81828
0.790784
0.749253
0.690923
0.618102
0.542866
0.491348
0.480029
0.497064
0.516566
0.520405
0.503922
0.483201
0.474175
0.478466
0.482856
0.478007
0.464876
0.447717
0.429007
0.409093
0.387106
0.853646
0.854898
0.855931
0.856313
0.855569
0.853029
0.847693
0.838014
0.821678
0.795309
0.754768
0.696797
0.623227
0.546227
0.49346
0.483381
0.501066
0.51904
0.519761
0.501534
0.481695
0.474966
0.479947
0.482513
0.475434
0.460764
0.442503
0.422382
0.401574
0.379919
0.853224
0.854469
0.855623
0.856249
0.855838
0.853781
0.84912
0.84031
0.825047
0.799858
0.760353
0.702816
0.62863
0.550299
0.496369
0.486738
0.504508
0.520207
0.518703
0.499217
0.480392
0.475709
0.480978
0.481444
0.471552
0.454472
0.434931
0.414355
0.394532
0.37309
0.852875
0.854029
0.855274
0.856137
0.856066
0.854349
0.850143
0.841966
0.827507
0.803272
0.764545
0.707109
0.631942
0.551618
0.497147
0.488709
0.506818
0.520658
0.517585
0.496954
0.479074
0.476398
0.481841
0.480928
0.469875
0.451893
0.431733
0.409869
0.388108
0.366278
0.85263
0.853557
0.854784
0.85583
0.856169
0.855149
0.851794
0.8447
0.831608
0.809016
0.771996
0.715602
0.639777
0.557261
0.500691
0.490778
0.508199
0.520681
0.515949
0.49444
0.478223
0.477334
0.482271
0.478794
0.464366
0.443778
0.421577
0.39814
0.374919
0.358955
0.426818
0.402344
0.367946
0.349637
0.344031
0.355089
0.390109
0.444224
0.496236
0.539603
0.574967
0.603264
0.625741
0.643939
0.658958
0.671613
0.68263
0.692567
0.701822
0.710678
0.71934
0.727934
0.736628
0.745285
0.754363
0.763166
0.773121
0.782351
0.794842
0.800415
0.401215
0.36511
0.322029
0.299373
0.300466
0.3234
0.360684
0.411827
0.470354
0.523414
0.565979
0.59833
0.622861
0.642297
0.658033
0.670987
0.681986
0.691662
0.700497
0.708847
0.716975
0.72501
0.733134
0.741251
0.749662
0.757932
0.766783
0.774791
0.784499
0.791345
0.385476
0.340691
0.288598
0.25751
0.257668
0.287637
0.328811
0.377779
0.437593
0.499195
0.550727
0.58973
0.618147
0.639965
0.656849
0.670269
0.681347
0.690809
0.69922
0.707017
0.714522
0.721931
0.72942
0.737015
0.744845
0.752789
0.761107
0.76936
0.778417
0.787716
0.393995
0.340366
0.278521
0.234755
0.228982
0.255918
0.298575
0.34919
0.41055
0.477616
0.538653
0.584942
0.618492
0.643427
0.661367
0.674973
0.685716
0.694552
0.702212
0.709209
0.715912
0.722572
0.729374
0.736415
0.743776
0.75145
0.759516
0.767873
0.776566
0.785505
0.43311
0.368001
0.293343
0.237552
0.221298
0.239423
0.27795
0.328294
0.390025
0.459624
0.52656
0.581593
0.622838
0.650772
0.669746
0.683453
0.693449
0.70117
0.707588
0.713301
0.718743
0.724217
0.729931
0.736011
0.74252
0.74947
0.756872
0.764684
0.772822
0.781214
0.494389
0.422301
0.336659
0.266099
0.234042
0.239043
0.269874
0.317043
0.37713
0.446658
0.51731
0.579582
0.627471
0.660519
0.68233
0.69608
0.704867
0.710921
0.715483
0.719316
0.722939
0.726694
0.730823
0.735488
0.740759
0.746626
0.753084
0.760127
0.767695
0.775694
0.554493
0.485227
0.395502
0.31504
0.266963
0.255288
0.273939
0.314298
0.371511
0.440208
0.512403
0.579406
0.63403
0.673494
0.698969
0.71386
0.72196
0.726035
0.728019
0.729139
0.730165
0.731499
0.733442
0.736191
0.739815
0.744269
0.74949
0.755485
0.762196
0.769487
0.593976
0.531882
0.446954
0.366211
0.30784
0.281041
0.287027
0.317925
0.369452
0.435616
0.508346
0.578934
0.639977
0.686837
0.718262
0.73639
0.744794
0.747134
0.74634
0.744316
0.742009
0.739838
0.738529
0.738574
0.739947
0.742488
0.746044
0.750635
0.756185
0.76254
0.595213
0.546629
0.47281
0.39716
0.335224
0.301486
0.295568
0.315428
0.361406
0.423719
0.496033
0.569476
0.636186
0.691135
0.731907
0.757707
0.770162
0.772973
0.769984
0.764487
0.758588
0.752877
0.747564
0.743534
0.741681
0.741423
0.742531
0.745165
0.749163
0.754117
0.553785
0.523011
0.464014
0.397957
0.338235
0.297865
0.282099
0.294419
0.32933
0.385239
0.456841
0.533768
0.608122
0.67282
0.724437
0.761745
0.784972
0.794776
0.794267
0.787746
0.778447
0.768693
0.759505
0.751695
0.745673
0.741425
0.739141
0.739265
0.741108
0.743636
0.486736
0.474344
0.428407
0.372169
0.315841
0.270416
0.243906
0.242761
0.267613
0.314086
0.377692
0.456126
0.537214
0.61447
0.681311
0.734142
0.771752
0.794216
0.804546
0.804407
0.796401
0.78452
0.771721
0.759769
0.749608
0.74165
0.73604
0.732434
0.730633
0.730627
0.412672
0.42058
0.380846
0.331177
0.276517
0.226943
0.190749
0.175005
0.182964
0.214946
0.269149
0.337822
0.417496
0.502995
0.585092
0.657593
0.716056
0.758658
0.786037
0.799056
0.79983
0.792163
0.780137
0.766019
0.75222
0.740183
0.730495
0.723277
0.718516
0.716155
0.359481
0.377042
0.338537
0.292956
0.238116
0.184163
0.138736
0.109206
0.100411
0.114292
0.150694
0.205258
0.276267
0.358187
0.444879
0.53023
0.608162
0.673241
0.721253
0.753791
0.770831
0.775179
0.769911
0.759197
0.746011
0.732598
0.720477
0.710396
0.702548
0.69714
0.34465
0.357827
0.318997
0.275716
0.221791
0.166034
0.114998
0.0760609
0.0547252
0.0533773
0.0709827
0.107573
0.161607
0.229514
0.307235
0.390806
0.474953
0.553158
0.618725
0.668571
0.701671
0.719439
0.725021
0.722213
0.714332
0.703966
0.693171
0.683297
0.674865
0.668191
0.37082
0.375759
0.332483
0.288125
0.236749
0.181919
0.129275
0.0854198
0.0556485
0.0423462
0.0454791
0.065366
0.101512
0.15124
0.211655
0.280924
0.356654
0.433399
0.50415
0.563505
0.607681
0.636001
0.650728
0.6553
0.653377
0.647958
0.641014
0.633833
0.627288
0.621795
0.430472
0.425397
0.377986
0.332539
0.284695
0.233003
0.182083
0.137248
0.102725
0.0809292
0.072775
0.078423
0.0982431
0.12996
0.171338
0.221882
0.281622
0.347004
0.410266
0.467007
0.513792
0.545878
0.564877
0.573927
0.576221
0.574718
0.571572
0.567863
0.5641
0.560599
0.497295
0.486587
0.44383
0.400411
0.355742
0.307169
0.25843
0.214025
0.177274
0.150166
0.133566
0.128787
0.13576
0.152685
0.177952
0.21171
0.25516
0.306458
0.357192
0.403753
0.44223
0.46987
0.486959
0.495703
0.499248
0.500055
0.499366
0.497964
0.496182
0.493918
0.541295
0.537105
0.513626
0.481019
0.441204
0.394866
0.346458
0.300831
0.261395
0.229907
0.207921
0.196032
0.193562
0.199323
0.212832
0.234608
0.264736
0.301532
0.340312
0.373515
0.398386
0.417014
0.428153
0.433635
0.435934
0.436666
0.436428
0.435252
0.433214
0.429908
0.54809
0.559528
0.56839
0.561685
0.535648
0.494655
0.446609
0.398394
0.35625
0.320932
0.293541
0.274292
0.262952
0.259653
0.265021
0.278925
0.29666
0.318867
0.343797
0.363622
0.377696
0.386519
0.390896
0.392457
0.392474
0.391302
0.388801
0.384872
0.379643
0.372474
0.532526
0.556415
0.59439
0.622633
0.62198
0.593983
0.550124
0.502093
0.453978
0.411471
0.376596
0.349768
0.331742
0.323739
0.322509
0.323253
0.332081
0.346715
0.358345
0.366006
0.370461
0.372234
0.372241
0.370792
0.367543
0.362717
0.35611
0.347342
0.336848