/*--------------------------------*- C++ -*----------------------------------*\
  =========                 |
  \\      /  F ield         | OpenFOAM: The Open Source CFD Toolbox
   \\    /   O peration     | Website:  https://openfoam.org
    \\  /    A nd           | Version:  11
     \\/     M anipulation  |
\*---------------------------------------------------------------------------*/
FoamFile
{
    format      ascii;
    class       volScalarField;
    location    "7.5";
    object      p;
}
// * * * * * * * * * * * * * * * * * * * * * * * * * * * * * * * * * * * * * //

dimensions      [0 2 -2 0 0 0 0];

internalField   nonuniform List<scalar> 
12600
(
0.0898856
0.0897499
0.0896868
0.0896694
0.0896548
0.0896346
0.0896124
0.0895902
0.0895675
0.0895436
0.0895178
0.0894895
0.0894583
0.0894233
0.0893838
0.0893385
0.0892861
0.0892253
0.0891544
0.0890705
0.0889704
0.0888505
0.0887063
0.0885318
0.0883189
0.0880567
0.0877338
0.0873268
0.0868179
0.0861029
0.0898105
0.0897408
0.0896889
0.0896683
0.0896527
0.0896333
0.0896117
0.0895896
0.0895671
0.0895434
0.0895178
0.0894897
0.0894588
0.0894241
0.0893849
0.0893401
0.0892883
0.0892283
0.0891581
0.0890753
0.0889767
0.0888586
0.0887163
0.0885437
0.0883338
0.0880758
0.0877621
0.087363
0.0869095
0.0864198
0.0897745
0.0897416
0.0896968
0.0896702
0.0896529
0.0896343
0.0896133
0.0895914
0.0895691
0.0895456
0.0895201
0.0894924
0.0894618
0.0894277
0.0893892
0.0893453
0.0892947
0.0892359
0.089167
0.0890856
0.0889892
0.0888738
0.0887348
0.0885667
0.0883623
0.0881122
0.0878068
0.0874301
0.0869922
0.0864753
0.0897495
0.0897292
0.0896941
0.0896674
0.0896498
0.0896322
0.0896121
0.0895909
0.089569
0.089546
0.0895212
0.089494
0.0894641
0.0894306
0.089393
0.0893504
0.0893014
0.0892442
0.0891773
0.0890985
0.0890053
0.0888938
0.0887599
0.088598
0.0884014
0.0881615
0.0878686
0.0875108
0.0870774
0.0865519
0.0897311
0.089718
0.0896919
0.0896678
0.08965
0.0896329
0.0896136
0.0895929
0.0895715
0.0895491
0.0895248
0.0894983
0.0894693
0.0894367
0.0894001
0.0893587
0.0893112
0.0892562
0.089192
0.0891165
0.0890273
0.0889209
0.0887933
0.0886393
0.0884527
0.0882254
0.0879478
0.0876087
0.0871886
0.0866788
0.0897175
0.0897084
0.0896885
0.089667
0.0896491
0.0896322
0.0896138
0.0895938
0.089573
0.089551
0.0895274
0.0895014
0.0894735
0.0894422
0.0894071
0.0893673
0.089322
0.0892696
0.0892086
0.0891372
0.0890528
0.0889525
0.0888326
0.0886882
0.0885134
0.0883011
0.0880415
0.0877241
0.0873263
0.0868422
0.0897071
0.0897004
0.0896848
0.089666
0.0896487
0.0896323
0.0896148
0.0895957
0.0895756
0.0895543
0.0895316
0.0895071
0.0894797
0.0894497
0.0894162
0.0893784
0.0893355
0.0892861
0.0892288
0.0891619
0.0890833
0.0889901
0.0888789
0.0887455
0.0885846
0.0883894
0.0881508
0.0878589
0.0874904
0.0870415
0.0896992
0.0896939
0.0896813
0.0896649
0.0896486
0.0896327
0.0896159
0.0895976
0.0895781
0.0895576
0.0895357
0.0895121
0.089486
0.0894575
0.0894258
0.0893903
0.08935
0.089304
0.0892509
0.0891892
0.0891169
0.0890316
0.0889304
0.0888094
0.0886639
0.0884879
0.0882732
0.0880107
0.0876777
0.0872725
0.0896932
0.0896889
0.0896783
0.0896639
0.0896487
0.0896334
0.0896172
0.0895998
0.0895811
0.0895614
0.0895405
0.0895179
0.0894933
0.0894664
0.0894368
0.0894037
0.0893664
0.0893241
0.0892756
0.0892196
0.0891543
0.0890778
0.0889874
0.0888799
0.0887514
0.0885966
0.0884083
0.0881789
0.0878869
0.0875331
0.0896887
0.0896851
0.089676
0.0896632
0.089649
0.0896344
0.0896189
0.0896022
0.0895844
0.0895656
0.0895456
0.0895242
0.0895011
0.089476
0.0894485
0.089418
0.089384
0.0893457
0.0893021
0.0892521
0.0891944
0.0891272
0.0890484
0.0889555
0.0888452
0.0887133
0.0885538
0.0883605
0.0881146
0.0878189
0.0896856
0.0896824
0.0896744
0.0896629
0.0896496
0.0896357
0.0896208
0.0896049
0.0895879
0.08957
0.0895511
0.089531
0.0895095
0.0894862
0.089461
0.0894333
0.0894028
0.0893687
0.0893303
0.0892868
0.089237
0.0891797
0.0891132
0.0890357
0.0889446
0.0888369
0.088708
0.0885537
0.088358
0.0881261
0.0896836
0.0896807
0.0896735
0.089663
0.0896506
0.0896372
0.089623
0.0896079
0.0895917
0.0895748
0.0895569
0.0895382
0.0895182
0.089497
0.0894741
0.0894494
0.0894224
0.0893928
0.0893598
0.089323
0.0892815
0.0892344
0.0891807
0.0891191
0.089048
0.0889655
0.0888686
0.088755
0.0886127
0.0884493
0.0896826
0.0896799
0.0896733
0.0896635
0.0896519
0.0896391
0.0896255
0.089611
0.0895957
0.0895797
0.089563
0.0895456
0.0895274
0.0895081
0.0894878
0.0894661
0.0894428
0.0894177
0.0893904
0.0893604
0.0893274
0.0892909
0.0892502
0.0892049
0.0891542
0.0890974
0.0890332
0.0889616
0.0888746
0.0887827
0.0896825
0.08968
0.0896738
0.0896646
0.0896535
0.0896412
0.0896282
0.0896144
0.0895999
0.0895849
0.0895693
0.0895533
0.0895367
0.0895196
0.0895017
0.0894831
0.0894637
0.0894432
0.0894215
0.0893986
0.0893742
0.0893483
0.0893208
0.0892919
0.0892616
0.0892306
0.0891994
0.0891699
0.089139
0.0891196
0.0896833
0.0896809
0.089675
0.0896661
0.0896554
0.0896436
0.0896311
0.089618
0.0896043
0.0895902
0.0895758
0.0895611
0.0895463
0.0895312
0.0895159
0.0895004
0.0894848
0.089469
0.089453
0.0894371
0.0894214
0.0894061
0.0893917
0.089379
0.089369
0.0893634
0.0893645
0.0893765
0.0894008
0.089453
0.0896849
0.0896825
0.0896767
0.0896681
0.0896577
0.0896463
0.0896342
0.0896217
0.0896087
0.0895955
0.0895822
0.089569
0.0895558
0.0895428
0.0895301
0.0895178
0.0895059
0.0894947
0.0894845
0.0894755
0.0894683
0.0894635
0.089462
0.0894651
0.0894749
0.0894939
0.0895262
0.0895779
0.0896551
0.0897754
0.0896873
0.089685
0.0896792
0.0896705
0.0896602
0.0896491
0.0896375
0.0896255
0.0896132
0.0896009
0.0895887
0.0895768
0.0895654
0.0895544
0.0895442
0.0895349
0.0895268
0.0895203
0.0895156
0.0895135
0.0895146
0.0895199
0.0895309
0.0895493
0.089578
0.0896204
0.0896821
0.0897709
0.0898971
0.09008
0.0896905
0.0896881
0.0896822
0.0896733
0.089663
0.0896521
0.0896409
0.0896293
0.0896177
0.0896062
0.0895951
0.0895846
0.0895748
0.0895658
0.0895581
0.0895518
0.0895474
0.0895452
0.089546
0.0895505
0.0895596
0.0895748
0.0895976
0.0896307
0.089677
0.0897414
0.0898301
0.0899525
0.0901225
0.0903602
0.0896946
0.0896921
0.0896857
0.0896765
0.0896661
0.0896553
0.0896443
0.0896332
0.0896222
0.0896115
0.0896014
0.0895921
0.0895839
0.0895769
0.0895715
0.0895682
0.0895673
0.0895694
0.0895754
0.0895862
0.089603
0.0896275
0.0896616
0.0897082
0.0897711
0.0898553
0.0899684
0.0901204
0.0903278
0.0906107
0.0896996
0.0896968
0.0896899
0.0896801
0.0896693
0.0896585
0.0896478
0.089637
0.0896265
0.0896166
0.0896075
0.0895994
0.0895927
0.0895876
0.0895845
0.0895839
0.0895863
0.0895926
0.0896036
0.0896204
0.0896444
0.0896775
0.0897221
0.0897813
0.0898591
0.0899612
0.0900956
0.0902726
0.0905105
0.0908281
0.0897055
0.0897024
0.0896946
0.0896839
0.0896726
0.0896618
0.0896512
0.0896408
0.0896307
0.0896214
0.0896133
0.0896064
0.0896011
0.0895977
0.0895967
0.0895987
0.0896044
0.0896145
0.0896301
0.0896525
0.0896832
0.0897244
0.0897786
0.0898491
0.0899403
0.0900581
0.0902105
0.090408
0.0906691
0.0910102
0.0897127
0.0897089
0.0896998
0.0896878
0.0896759
0.0896651
0.0896546
0.0896444
0.0896347
0.089626
0.0896187
0.0896129
0.0896089
0.0896072
0.0896082
0.0896127
0.0896213
0.089635
0.0896549
0.0896824
0.0897194
0.0897679
0.0898307
0.0899114
0.0900143
0.0901455
0.0903128
0.0905262
0.0908034
0.0911576
0.0897212
0.0897165
0.0897054
0.0896918
0.0896792
0.0896684
0.089658
0.0896478
0.0896384
0.0896303
0.0896238
0.0896189
0.0896161
0.0896159
0.0896187
0.0896254
0.0896367
0.0896536
0.0896775
0.0897097
0.0897522
0.0898073
0.0898778
0.0899673
0.0900804
0.0902226
0.0904018
0.090627
0.090914
0.091272
0.0897313
0.0897252
0.0897114
0.0896955
0.0896824
0.0896715
0.0896611
0.0896509
0.0896418
0.0896343
0.0896285
0.0896245
0.0896228
0.089624
0.0896285
0.0896372
0.0896509
0.0896708
0.0896981
0.0897345
0.089782
0.0898429
0.0899201
0.0900172
0.0901387
0.09029
0.0904783
0.0907114
0.0910032
0.0913581
0.0897437
0.0897353
0.0897173
0.089699
0.0896855
0.0896746
0.0896639
0.0896535
0.0896446
0.0896375
0.0896323
0.0896291
0.0896283
0.0896306
0.0896366
0.0896471
0.089663
0.0896854
0.0897158
0.0897558
0.0898076
0.0898735
0.0899564
0.09006
0.0901884
0.0903467
0.0905416
0.0907796
0.0910726
0.0914203
0.089759
0.0897467
0.0897226
0.0897019
0.0896886
0.0896779
0.0896669
0.0896565
0.0896478
0.0896411
0.0896364
0.0896338
0.0896339
0.0896372
0.0896444
0.0896564
0.0896741
0.0896987
0.0897317
0.0897748
0.0898302
0.0899003
0.089988
0.0900967
0.0902305
0.0903941
0.0905933
0.0908338
0.0911261
0.0914653
0.0897789
0.0897595
0.0897264
0.0897031
0.0896903
0.0896795
0.0896681
0.0896575
0.0896491
0.0896428
0.0896385
0.0896365
0.0896373
0.0896415
0.0896498
0.0896631
0.0896823
0.0897087
0.0897439
0.0897895
0.0898479
0.0899214
0.0900129
0.0901257
0.0902637
0.0904309
0.0906326
0.0908734
0.0911654
0.0914979
0.089805
0.0897732
0.0897305
0.0897071
0.0896948
0.0896832
0.089671
0.0896603
0.089652
0.0896458
0.0896418
0.0896401
0.0896414
0.0896462
0.0896553
0.0896695
0.0896898
0.0897177
0.0897545
0.0898019
0.0898626
0.0899387
0.090033
0.0901489
0.0902897
0.0904591
0.0906613
0.0908995
0.0911912
0.0915304
0.0898416
0.0897731
0.0897237
0.0897062
0.0896956
0.0896832
0.0896707
0.0896602
0.0896522
0.0896463
0.0896425
0.0896413
0.089643
0.0896483
0.0896579
0.0896729
0.0896941
0.089723
0.0897611
0.0898102
0.0898724
0.0899503
0.0900466
0.0901646
0.0903073
0.090478
0.0906791
0.0909116
0.0911889
0.0915452
0.0899175
0.0897825
0.0897218
0.0897077
0.0896982
0.0896851
0.0896721
0.0896617
0.0896536
0.0896477
0.089644
0.0896429
0.0896447
0.0896502
0.0896601
0.0896754
0.0896971
0.0897265
0.0897653
0.0898155
0.0898785
0.0899573
0.0900548
0.0901739
0.0903178
0.0904892
0.0906893
0.090917
0.0911541
0.0913607
0.0860679
0.0853014
0.0849089
0.0848672
0.0848172
0.0846643
0.0844636
0.0842619
0.0840696
0.0838846
0.0837064
0.0835352
0.0833704
0.0832104
0.0830531
0.0828964
0.0827373
0.0825711
0.0823912
0.0821868
0.0819418
0.0816238
0.0812097
0.0805009
0.0797845
0.0772085
0.0767788
0.0638201
0.0677876
-0.00508803
0.0865292
0.0858237
0.0853564
0.0852434
0.0851261
0.084931
0.0847226
0.0845399
0.0843772
0.0842236
0.0840769
0.0839383
0.083808
0.0836848
0.0835681
0.0834569
0.0833497
0.083244
0.0831354
0.0830171
0.082877
0.0826944
0.0824376
0.0820033
0.0814462
0.0797241
0.0790362
0.0691907
0.0716011
0.00971948
0.0861082
0.0857061
0.0854339
0.0853504
0.0852565
0.0850998
0.0849377
0.0847971
0.0846693
0.0845463
0.0844299
0.0843234
0.0842277
0.0841426
0.0840682
0.0840049
0.0839526
0.0839109
0.0838781
0.0838512
0.0838235
0.0837825
0.0837039
0.0835284
0.0832303
0.0822162
0.0816167
0.0744733
0.0759018
0.024756
0.0860918
0.0858879
0.0857333
0.0856263
0.0855107
0.0853709
0.0852362
0.0851208
0.0850184
0.0849243
0.0848403
0.0847691
0.0847116
0.0846684
0.0846408
0.0846303
0.0846388
0.0846678
0.0847189
0.084793
0.0848892
0.0850035
0.0851226
0.0852166
0.0852397
0.0848704
0.0846013
0.0798447
0.0807969
0.0396988
0.0861981
0.0860639
0.0859571
0.0858534
0.0857482
0.0856433
0.0855479
0.0854662
0.0853956
0.0853349
0.0852864
0.0852528
0.0852359
0.0852376
0.0852602
0.0853069
0.0853811
0.0854869
0.085629
0.0858127
0.0860432
0.0863251
0.0866582
0.0870353
0.0874237
0.0876635
0.0879157
0.0852678
0.0862764
0.0544199
0.0863715
0.0862838
0.0862205
0.0861397
0.0860542
0.0859774
0.0859124
0.0858594
0.0858184
0.0857904
0.085778
0.0857837
0.0858101
0.0858598
0.0859366
0.0860448
0.08619
0.0863788
0.0866191
0.0869209
0.0872957
0.0877575
0.0883193
0.0889957
0.089779
0.0906169
0.0915186
0.0907614
0.0922216
0.0688651
0.0865963
0.0865437
0.0865136
0.0864552
0.0863907
0.0863407
0.0863065
0.0862853
0.0862773
0.0862849
0.0863111
0.0863587
0.0864309
0.0865318
0.0866662
0.0868402
0.0870613
0.0873386
0.0876838
0.0881114
0.0886399
0.0892923
0.0900957
0.0910855
0.0922842
0.0937183
0.0953526
0.0962982
0.0985131
0.0828932
0.086862
0.0868398
0.0868397
0.0868061
0.086766
0.086744
0.0867407
0.0867515
0.0867769
0.0868206
0.0868863
0.0869773
0.0870977
0.0872524
0.0874476
0.0876911
0.0879923
0.0883632
0.0888191
0.0893795
0.0900693
0.0909214
0.0919766
0.0932909
0.094918
0.0969473
0.0993601
0.101843
0.105057
0.0963192
0.0871655
0.0871708
0.0871984
0.08719
0.0871752
0.087181
0.0872081
0.0872513
0.0873112
0.0873924
0.0874992
0.0876355
0.087806
0.0880168
0.0882756
0.0885916
0.0889765
0.0894451
0.0900163
0.0907146
0.0915718
0.09263
0.0939438
0.095589
0.0976502
0.100269
0.103476
0.107347
0.111734
0.108964
0.0875016
0.0875328
0.0875863
0.0876032
0.0876145
0.0876484
0.0877062
0.0877821
0.0878772
0.0879967
0.0881453
0.0883279
0.0885498
0.0888184
0.0891425
0.0895331
0.0900042
0.0905732
0.0912628
0.0921023
0.0931303
0.0943979
0.095973
0.09795
0.100443
0.103639
0.10763
0.112746
0.118405
0.120657
0.0878665
0.0879215
0.087999
0.0880411
0.0880787
0.0881407
0.0882288
0.0883374
0.0884679
0.0886258
0.0888168
0.0890461
0.0893202
0.0896472
0.0900375
0.0905038
0.091062
0.0917325
0.0925415
0.093523
0.094722
0.0961985
0.0980327
0.100336
0.103251
0.106999
0.111742
0.117965
0.124923
0.131252
0.0882537
0.0883308
0.0884302
0.0884968
0.0885607
0.0886505
0.0887684
0.0889094
0.0890749
0.0892709
0.0895038
0.0897795
0.0901053
0.0904905
0.0909466
0.0914879
0.0921326
0.0929036
0.0938304
0.0949519
0.0963187
0.0979992
0.100085
0.102702
0.106018
0.110285
0.115727
0.122915
0.131126
0.140619
0.0886564
0.0887534
0.0888724
0.0889625
0.0890522
0.089169
0.0893156
0.0894878
0.0896872
0.0899203
0.0901939
0.0905147
0.0908908
0.0913324
0.0918523
0.0924665
0.0931949
0.094063
0.0951036
0.0963595
0.097887
0.0997616
0.102085
0.104997
0.108685
0.113425
0.119496
0.127502
0.136849
0.148609
0.0890659
0.0891805
0.0893164
0.0894286
0.0895431
0.0896856
0.0898593
0.0900608
0.0902924
0.0905605
0.0908726
0.091236
0.0916596
0.0921545
0.0927347
0.0934175
0.0942248
0.0951841
0.0963312
0.0977126
0.0993894
0.101443
0.103985
0.107165
0.111186
0.116343
0.122958
0.131629
0.141924
0.155021
0.0894725
0.0896022
0.0897523
0.0898846
0.0900223
0.0901885
0.0903869
0.0906153
0.0908762
0.0911764
0.0915237
0.0919261
0.092393
0.0929365
0.0935716
0.0943168
0.0951956
0.0962376
0.0974809
0.0989751
0.100786
0.102999
0.105733
0.109146
0.113455
0.118964
0.126026
0.135208
0.146221
0.159784
0.0898662
0.0900083
0.0901695
0.0903194
0.090478
0.0906653
0.0908854
0.0911373
0.0914239
0.0917522
0.0921302
0.0925665
0.0930712
0.0936571
0.0943399
0.0951393
0.09608
0.0971934
0.0985196
0.100111
0.102035
0.104384
0.107279
0.110885
0.115428
0.121216
0.12862
0.138161
0.149655
0.16317
0.0902367
0.0903885
0.0905577
0.0907222
0.0908986
0.0911037
0.0913417
0.0916129
0.0919208
0.0922722
0.0926754
0.0931395
0.0936751
0.0942954
0.095017
0.0958605
0.0968515
0.0980226
0.0994155
0.101084
0.103099
0.105555
0.108575
0.112329
0.117046
0.123033
0.13067
0.140417
0.15217
0.165256
0.0905746
0.0907331
0.0909074
0.0910829
0.0912735
0.0914925
0.0917441
0.0920298
0.0923534
0.0927221
0.0931441
0.0936287
0.0941869
0.0948326
0.0955827
0.0964584
0.0974862
0.0986993
0.100141
0.101865
0.103945
0.106474
0.109581
0.113433
0.11826
0.124364
0.13212
0.141919
0.153702
0.16584
0.0908722
0.0910345
0.0912108
0.0913935
0.091594
0.0918225
0.0920828
0.0923775
0.092711
0.0930903
0.0935237
0.0940207
0.0945926
0.0952534
0.0960205
0.0969154
0.0979648
0.0992027
0.100672
0.102429
0.104544
0.107115
0.110265
0.114163
0.119034
0.125167
0.132926
0.142616
0.154149
0.165011
0.0911239
0.0912874
0.0914627
0.0916486
0.0918545
0.0920875
0.0923513
0.0926492
0.0929861
0.093369
0.0938059
0.0943065
0.0948823
0.0955474
0.0963192
0.0972193
0.0982746
0.099519
0.100995
0.102759
0.104882
0.107457
0.110609
0.1145
0.119347
0.125423
0.133066
0.142472
0.153478
0.162885
0.0913269
0.0914887
0.0916603
0.0918454
0.0920517
0.0922842
0.0925461
0.0928412
0.0931748
0.0935539
0.0939863
0.0944816
0.0950514
0.0957096
0.0964735
0.0973647
0.0984097
0.099642
0.101104
0.10285
0.10495
0.107496
0.110606
0.114437
0.119195
0.125127
0.132538
0.141492
0.151822
0.159358
0.0914824
0.09164
0.0918053
0.0919855
0.0921875
0.0924144
0.092669
0.0929553
0.093279
0.0936468
0.0940666
0.0945476
0.0951012
0.0957414
0.0964851
0.0973533
0.0983722
0.0995744
0.101001
0.102706
0.104755
0.107237
0.110266
0.113987
0.118594
0.124302
0.131379
0.139724
0.149311
0.154299
0.0915932
0.0917442
0.0919006
0.0920722
0.0922652
0.0924818
0.092724
0.092996
0.0933037
0.0936535
0.094053
0.0945113
0.0950394
0.0956509
0.0963625
0.0971945
0.0981722
0.0993272
0.100699
0.102339
0.104312
0.106699
0.109609
0.113176
0.117575
0.122983
0.129637
0.137225
0.14603
0.147934
0.0916673
0.0918094
0.0919543
0.0921134
0.0922931
0.0924944
0.0927189
0.0929709
0.0932562
0.0935812
0.0939531
0.0943806
0.0948744
0.0954476
0.0961161
0.0968997
0.0978226
0.0989149
0.100215
0.101769
0.103641
0.105905
0.108662
0.112033
0.116173
0.121214
0.127372
0.134074
0.142071
0.140609
0.091713
0.091844
0.0919742
0.0921173
0.092281
0.0924648
0.0926687
0.0928965
0.0931543
0.0934486
0.0937864
0.0941757
0.0946269
0.0951526
0.095768
0.0964918
0.097347
0.0983622
0.0995733
0.101025
0.102774
0.104891
0.107466
0.110604
0.114443
0.119063
0.124673
0.130371
0.137559
0.132262
0.0917469
0.0918645
0.0919723
0.0920916
0.0922336
0.0923957
0.092575
0.092775
0.0930016
0.0932611
0.0935598
0.0939054
0.0943079
0.0947791
0.0953335
0.0959888
0.0967666
0.0976934
0.0988024
0.100135
0.101744
0.103693
0.106062
0.108941
0.112446
0.116599
0.121626
0.1262
0.132635
0.122802
0.091784
0.0918857
0.0919667
0.0920648
0.0921891
0.0923277
0.0924769
0.0926427
0.0928326
0.0930521
0.0933061
0.0936018
0.0939485
0.0943578
0.0948432
0.0954215
0.0961126
0.0969413
0.0979382
0.0991413
0.100598
0.102363
0.104509
0.107105
0.110252
0.113901
0.118329
0.121641
0.127418
0.112383
0.0918757
0.0918984
0.0918976
0.0919706
0.0920949
0.0922238
0.0923485
0.0924805
0.0926325
0.0928106
0.0930186
0.0932625
0.0935508
0.0938943
0.0943063
0.0948026
0.0954009
0.096122
0.0969954
0.0980565
0.099348
0.100918
0.102826
0.105124
0.107898
0.111013
0.11485
0.116747
0.122014
0.10127
0.0922552
0.0921163
0.0919449
0.0919476
0.092048
0.0921611
0.0922632
0.0923596
0.0924675
0.0925965
0.0927519
0.0929388
0.0931634
0.0934357
0.0937683
0.0941785
0.0946839
0.0953
0.0960517
0.0969697
0.0980931
0.0994635
0.101129
0.103121
0.105516
0.108068
0.111339
0.111648
0.116559
0.0897158
0.0922044
0.091875
0.091743
0.091832
0.0919629
0.0920607
0.0921274
0.0921949
0.0922711
0.092358
0.0924617
0.0925899
0.0927509
0.0929515
0.0932012
0.0935101
0.0938965
0.0943872
0.0950013
0.0957633
0.0967057
0.0978629
0.0992755
0.100949
0.102969
0.10492
0.107722
0.106224
0.111037
0.0778981
0.0671951
0.0561998
0.0441076
0.031466
0.0188367
0.00653702
-0.00513607
-0.0158355
-0.0251661
-0.0326668
-0.037864
-0.0405141
-0.0410221
-0.040736
-0.0415303
-0.0439532
-0.0475854
-0.0511306
-0.053007
-0.0534466
-0.0537044
-0.0541833
-0.0547766
-0.0556021
-0.0568744
-0.0585573
-0.0598892
-0.0605688
-0.060552
-0.0594926
0.105335
0.0975392
0.088759
0.0797957
0.0705801
0.0608143
0.0506176
0.0402974
0.030059
0.0200826
0.0105525
0.00215369
-0.00505437
-0.0114512
-0.018003
-0.0260684
-0.0351599
-0.0437937
-0.0495256
-0.0514792
-0.0515763
-0.0522682
-0.0543479
-0.0579322
-0.0626227
-0.0678011
-0.0728275
-0.0771638
-0.0798199
-0.079497
0.101622
0.0962959
0.0901966
0.0835541
0.0758706
0.0671526
0.0577051
0.047708
0.0375243
0.0277823
0.0187773
0.0105336
0.00306914
-0.00382592
-0.0109315
-0.0190879
-0.0278573
-0.0347598
-0.0393288
-0.0428844
-0.046004
-0.0505789
-0.0571336
-0.0644048
-0.0721472
-0.0795822
-0.0848589
-0.0859844
-0.0836368
-0.077386
0.104817
0.101442
0.0972594
0.0920513
0.0858594
0.0787424
0.0707149
0.0618817
0.0524875
0.0428329
0.0331719
0.0238196
0.0150487
0.00686458
-0.000950423
-0.00857212
-0.0154682
-0.0209628
-0.0258688
-0.0313282
-0.0365687
-0.042325
-0.0494049
-0.0560368
-0.0605384
-0.0609109
-0.0555042
-0.0446909
-0.0314357
-0.016476
0.102594
0.100281
0.097353
0.0936012
0.088976
0.0833861
0.0768275
0.0693156
0.0609338
0.0519015
0.0425478
0.0332349
0.0242843
0.0158756
0.00805377
0.00082138
-0.00564892
-0.0112048
-0.016129
-0.0204949
-0.0239284
-0.0268461
-0.0290446
-0.0287457
-0.0236604
-0.013525
0.000474505
0.0184055
0.0377937
0.0559679
0.101208
0.0996831
0.0976644
0.094822
0.091064
0.0863959
0.0807746
0.074152
0.0665583
0.0581565
0.0492349
0.0401487
0.0312562
0.0228429
0.0150782
0.00804848
0.0018877
-0.00320311
-0.00714136
-0.00981973
-0.0110526
-0.0106226
-0.00766597
-0.000929079
0.00996688
0.0245434
0.0417106
0.0604008
0.0791822
0.0944216
0.0995244
0.0984632
0.097018
0.0948432
0.0918638
0.0880555
0.0833314
0.0775971
0.070833
0.0631409
0.0547508
0.045996
0.0372642
0.0289219
0.0212522
0.0144619
0.0087683
0.00443054
0.00163653
0.000570021
0.00156996
0.00515675
0.0119606
0.0222866
0.0358341
0.0516916
0.0684061
0.0849157
0.100056
0.109622
0.0981126
0.0973745
0.0963372
0.0946547
0.0922427
0.0890666
0.0850338
0.0800258
0.073983
0.0669556
0.0591216
0.0507829
0.0423332
0.0341913
0.0267318
0.0202672
0.0150938
0.0115173
0.00981005
0.010271
0.013304
0.0193176
0.0285102
0.0406408
0.0549192
0.0700945
0.0849441
0.0982336
0.108985
0.113203
0.0968915
0.0963581
0.0955865
0.0942495
0.0922642
0.0895947
0.0861307
0.0817351
0.0763187
0.069893
0.0625947
0.0546954
0.0465852
0.0387173
0.0315361
0.025439
0.0207949
0.0179673
0.0173016
0.0191449
0.0238326
0.0315418
0.0421019
0.0548755
0.068776
0.0824065
0.0945243
0.104119
0.110607
0.11026
0.0958831
0.0954863
0.0948972
0.0938133
0.0921544
0.0898761
0.0868665
0.0829786
0.0781021
0.0722164
0.0654213
0.0579578
0.0502065
0.0426438
0.0357697
0.0300547
0.025936
0.0238297
0.0241171
0.0271224
0.0330513
0.0418422
0.0530144
0.0656286
0.0783898
0.0899318
0.099116
0.105124
0.107781
0.104354
0.0950582
0.0947505
0.0942832
0.0933814
0.0919687
0.0899971
0.0873549
0.0838903
0.0794783
0.0740728
0.0677421
0.0606987
0.0533097
0.046066
0.039512
0.0341803
0.0305667
0.0291242
0.0302354
0.0341679
0.0409685
0.0503265
0.0615208
0.0733998
0.0845808
0.0937903
0.100015
0.102666
0.101269
0.0960975
0.094393
0.0941442
0.0937587
0.09299
0.0917653
0.0900345
0.0876887
0.0845746
0.0805581
0.0755741
0.0696647
0.063016
0.0559805
0.0490567
0.0428234
0.0378641
0.0347216
0.0338683
0.035672
0.0402999
0.0476414
0.0571853
0.0679795
0.078748
0.0881198
0.0949464
0.0983992
0.0982642
0.0941921
0.086921
0.0938632
0.0936541
0.093323
0.0926515
0.0915706
0.0900293
0.0879224
0.085099
0.0814196
0.0768043
0.0712736
0.0649905
0.058292
0.0516797
0.0457582
0.0411518
0.0384392
0.038098
0.0404675
0.0455879
0.0532042
0.0626348
0.0727421
0.0821892
0.0896839
0.0942471
0.0953028
0.0929208
0.0869593
0.0788235
0.0934469
0.0932644
0.0929705
0.0923716
0.0914009
0.0900096
0.0880958
0.0855134
0.0821203
0.0778259
0.0726332
0.0666848
0.0603022
0.0539867
0.0483624
0.0440849
0.0417584
0.0418555
0.0446772
0.0501138
0.0578065
0.0668993
0.0761302
0.084169
0.0898455
0.0923778
0.0914637
0.0873908
0.0803546
0.0721828
0.0931201
0.0929557
0.0926916
0.092149
0.0912641
0.089992
0.0882352
0.0858526
0.0827022
0.0786861
0.073793
0.0681477
0.0620573
0.0560203
0.0506744
0.0466997
0.0447157
0.045182
0.0483291
0.0539788
0.0615862
0.070177
0.0784348
0.0850735
0.0890719
0.0898688
0.087444
0.0822979
0.0750763
0.0675599
0.0928595
0.0927138
0.0924765
0.0919794
0.091163
0.0899869
0.0883588
0.0861421
0.083197
0.0794211
0.074792
0.0694189
0.0635954
0.0578158
0.0527274
0.0490282
0.0473453
0.0481226
0.0514878
0.0572503
0.0646696
0.072657
0.0799087
0.0852159
0.0877278
0.0871237
0.083661
0.0780561
0.0713619
0.064964
0.0926536
0.0925279
0.0923147
0.0918567
0.0910975
0.0900003
0.0884786
0.0864003
0.083629
0.0800597
0.0756613
0.0705304
0.0649479
0.0594031
0.0545497
0.0510985
0.0496793
0.0507106
0.054242
0.0600117
0.0671564
0.0744869
0.0807557
0.0848437
0.0860943
0.0844365
0.0803914
0.0748837
0.0691075
0.0642433
0.092494
0.0923869
0.0921964
0.0917742
0.0910654
0.0900352
0.088601
0.0866404
0.0840164
0.0806242
0.0764263
0.0715085
0.0661409
0.0608071
0.0561654
0.0529356
0.0517457
0.0529847
0.056629
0.0623444
0.0691374
0.0758113
0.08115
0.084156
0.0843823
0.0820008
0.0777611
0.072713
0.0681036
0.0648425
0.0923717
0.0922818
0.0921131
0.0917251
0.0910631
0.0900925
0.0887344
0.0868718
0.084373
0.0811324
0.0771075
0.0723752
0.0671962
0.0620493
0.0575953
0.0545611
0.0535695
0.0549758
0.0586841
0.0643068
0.0707164
0.0767548
0.0812331
0.0833054
0.082738
0.0799216
0.0757856
0.071428
0.0680452
0.0662106
0.0922792
0.0922046
0.0920573
0.091703
0.0910866
0.090171
0.0888797
0.0871016
0.0847099
0.0815988
0.0777218
0.0731488
0.0681326
0.0631476
0.0588572
0.0559939
0.0551731
0.0567079
0.0604761
0.0659363
0.0719832
0.0774119
0.0811123
0.0824039
0.0812537
0.0782435
0.0744209
0.0708361
0.0686139
0.0679259
0.0922095
0.0921488
0.0920221
0.0917017
0.0911318
0.0902695
0.0890385
0.0873349
0.0850358
0.0820354
0.0782838
0.073845
0.068966
0.0641176
0.0599665
0.0572506
0.0565773
0.058219
0.0620342
0.0672954
0.0729945
0.077858
0.0808731
0.0815292
0.0799792
0.0769634
0.0735544
0.0707414
0.0695779
0.069758
0.092159
0.0921097
0.0920013
0.091715
0.091193
0.090385
0.0892116
0.0875752
0.085357
0.0824513
0.0788052
0.0744774
0.0697102
0.0649726
0.0609361
0.0583453
0.0578
0.0595378
0.0633567
0.0684547
0.0738158
0.0781635
0.0805854
0.0807387
0.0789404
0.0760407
0.0730665
0.0709892
0.0707284
0.0715766
0.092125
0.0920853
0.0919898
0.091738
0.0912654
0.0905122
0.0893978
0.0878251
0.0856791
0.0828547
0.0792962
0.0750575
0.0703776
0.065725
0.0617779
0.0592906
0.0588566
0.060674
0.0644841
0.0694496
0.074494
0.0783759
0.0802879
0.080052
0.0781278
0.0753695
0.072827
0.0714637
0.0719443
0.0732721
0.092106
0.0920756
0.0919862
0.0917672
0.0913456
0.0906487
0.0895941
0.0880834
0.0860056
0.0832529
0.0797665
0.0755953
0.0709772
0.0663829
0.0625001
0.0600966
0.0597626
0.0616534
0.0654641
0.0703148
0.0750761
0.0785479
0.0800342
0.0795077
0.0775199
0.0749039
0.0727748
0.0720626
0.0731566
0.0747903
0.0920986
0.0920763
0.0919885
0.0917998
0.0914296
0.090792
0.0898
0.0883513
0.0863369
0.0836489
0.0802251
0.0761048
0.0715248
0.0669603
0.063114
0.0607707
0.0605215
0.0624785
0.0663044
0.0710649
0.0755765
0.0786801
0.0798045
0.0790625
0.0770363
0.0745431
0.0728166
0.0727437
0.0743503
0.076153
0.092097
0.0920858
0.0919982
0.0918359
0.0915141
0.090937
0.0900137
0.0886338
0.0866785
0.0840413
0.0806638
0.0765766
0.0720138
0.0674548
0.063624
0.0613319
0.0611716
0.0632011
0.0670624
0.071766
0.0760638
0.078855
0.0796797
0.0787586
0.0766607
0.07422
0.0728432
0.0733602
0.0754035
0.0773413
0.0920993
0.0920963
0.0920099
0.0918758
0.0915981
0.0910759
0.0902218
0.0889259
0.0870559
0.0844759
0.081135
0.0770568
0.0724802
0.0678857
0.0640228
0.0617466
0.0616473
0.0637746
0.0676902
0.0723683
0.0764798
0.0789979
0.0795769
0.0785186
0.0763217
0.0738987
0.0729486
0.0739465
0.0761859
0.0781365
0.0921071
0.092093
0.092016
0.0919207
0.091692
0.0912188
0.0904102
0.0891604
0.0873505
0.0848611
0.0815679
0.0775013
0.0729063
0.0682855
0.0643821
0.0621271
0.0621004
0.0643384
0.0683295
0.0729913
0.0769547
0.0792516
0.079562
0.0783422
0.075906
0.0735225
0.0731726
0.0749317
0.0773049
0.0789649
0.0921563
0.0920852
0.0920082
0.0919492
0.0917924
0.0914098
0.0906881
0.0895244
0.0877646
0.0852949
0.0820027
0.0778989
0.0732149
0.0684932
0.0644924
0.0622482
0.0623252
0.0646909
0.0687899
0.0734795
0.0773513
0.0795041
0.0796138
0.0781398
0.0753905
0.0729112
0.0726355
0.0749791
0.0777588
0.0794691
0.0922715
0.0921232
0.0920253
0.0919463
0.0918025
0.0914931
0.0908718
0.0898151
0.0882283
0.0859032
0.082682
0.0785921
0.0738535
0.0689472
0.0647836
0.062445
0.062576
0.0651975
0.0695441
0.0743174
0.0780768
0.0798094
0.0796
0.0777455
0.0747873
0.0727818
0.073652
0.0763214
0.0787295
0.0797612
-0.0012251
0.0123179
3.20335e-05
0.0211659
0.0267825
0.0419849
0.048889
0.0570388
0.0612203
0.0656131
0.0683662
0.070609
0.0721496
0.0732582
0.0739891
0.0744494
0.0747064
0.0748191
0.0748337
0.0747834
0.0747009
0.0745909
0.0744995
0.0743856
0.0743622
0.0742922
0.0744731
0.0745724
0.0753447
0.0737543
-0.00168124
0.0163322
-0.000309053
0.0170286
0.0234827
0.0390405
0.0470142
0.0550683
0.0600839
0.0646192
0.0677735
0.0702181
0.0719937
0.0732749
0.0741548
0.0747289
0.0750706
0.0752396
0.075286
0.0752457
0.0751564
0.0750258
0.0748957
0.0747333
0.0746105
0.0744263
0.0743484
0.0740544
0.0741582
0.0732564
-0.00177117
0.0245616
0.0017723
0.0113707
0.0192975
0.0348202
0.0442791
0.0524165
0.0583291
0.0631733
0.0668209
0.0695995
0.0716896
0.0732234
0.0743084
0.0750389
0.075494
0.075738
0.075826
0.0758009
0.075703
0.0755529
0.0753822
0.0751851
0.0749928
0.0747585
0.0745839
0.074285
0.0741614
0.0738363
-0.00242238
0.0314835
0.00410522
0.00406929
0.0153173
0.03083
0.0418747
0.0505033
0.0570644
0.0622858
0.066327
0.0694048
0.0717388
0.0734651
0.0746952
0.0755285
0.07605
0.07633
0.0764287
0.0763954
0.0762734
0.0760927
0.0758836
0.0756583
0.0754403
0.0752197
0.0750404
0.0748291
0.0746928
0.0744793
-0.00422468
0.0337399
0.00585564
-0.00488708
0.0110934
0.0265345
0.0392608
0.048733
0.0558452
0.0614795
0.0658822
0.0692563
0.0718284
0.0737476
0.0751279
0.0760719
0.0766684
0.0769921
0.0771075
0.077069
0.0769237
0.0767085
0.0764557
0.0761871
0.0759244
0.0756716
0.0754481
0.0752315
0.0750523
0.0748358
-0.00615535
0.0314544
0.00664407
-0.0135059
0.00550913
0.0210165
0.0357598
0.0464641
0.0542238
0.0603368
0.0651557
0.0688854
0.0717559
0.0739258
0.0755102
0.0766124
0.0773236
0.0777219
0.0778759
0.0778455
0.0776828
0.0774311
0.0771272
0.0767997
0.0764724
0.0761579
0.0758704
0.0756047
0.0753844
0.0751547
-0.00829774
0.0276904
0.00577524
-0.0213687
-0.00272362
0.0140896
0.0312513
0.0435573
0.0521521
0.0588337
0.064133
0.0682772
0.0715051
0.0739817
0.0758216
0.0771272
0.0779913
0.0784949
0.078711
0.0787048
0.0785339
0.078248
0.0778903
0.0774969
0.0770977
0.0767138
0.0763633
0.0760474
0.0757916
0.0755326
-0.0115845
0.0227576
0.00215141
-0.0284481
-0.0134752
0.00583468
0.0255145
0.0399279
0.0496303
0.056989
0.0628173
0.0674109
0.0710345
0.0738608
0.0760018
0.0775565
0.0786159
0.0792623
0.0795719
0.0796147
0.0794536
0.0791445
0.0787366
0.0782728
0.0777909
0.0773213
0.0768905
0.0765061
0.0762016
0.0759009
-0.0166924
0.0147777
-0.00535649
-0.0348378
-0.0259473
-0.00393579
0.018471
0.0353769
0.04652
0.054708
0.0611165
0.0661813
0.0702255
0.0734391
0.0759299
0.0777878
0.0790971
0.0799369
0.080384
0.0805121
0.0803889
0.0800762
0.0796297
0.0790997
0.0785313
0.0779632
0.0774313
0.0769522
0.0765733
0.076207
-0.0236859