/*--------------------------------*- C++ -*----------------------------------*\
  =========                 |
  \\      /  F ield         | OpenFOAM: The Open Source CFD Toolbox
   \\    /   O peration     | Website:  https://openfoam.org
    \\  /    A nd           | Version:  11
     \\/     M anipulation  |
\*---------------------------------------------------------------------------*/
FoamFile
{
    format      ascii;
    class       volScalarField;
    location    "1";
    object      p;
}
// * * * * * * * * * * * * * * * * * * * * * * * * * * * * * * * * * * * * * //

dimensions      [0 2 -2 0 0 0 0];

internalField   nonuniform List<scalar> 
12600
(
0.134667
0.134573
0.134488
0.134412
0.134322
0.134208
0.134068
0.1339
0.133702
0.133469
0.133196
0.132878
0.132506
0.132075
0.131573
0.130989
0.130312
0.129524
0.128607
0.12754
0.126297
0.124847
0.123154
0.121176
0.118865
0.116168
0.113025
0.109364
0.105145
0.100202
0.134616
0.134564
0.134496
0.134422
0.134333
0.13422
0.134082
0.133917
0.133722
0.133492
0.133223
0.132909
0.132543
0.132117
0.131622
0.131046
0.130378
0.129601
0.128696
0.127643
0.126415
0.124982
0.12331
0.121355
0.119069
0.116399
0.113279
0.109638
0.105406
0.10049
0.134612
0.134579
0.134521
0.134448
0.134359
0.134249
0.134115
0.133954
0.133763
0.133539
0.133276
0.132969
0.132612
0.132196
0.131713
0.131152
0.1305
0.129742
0.128859
0.127832
0.126634
0.125236
0.123601
0.121689
0.119449
0.116825
0.113749
0.110151
0.10592
0.101021
0.134622
0.134599
0.134549
0.134479
0.134393
0.134288
0.134159
0.134004
0.13382
0.133604
0.133351
0.133055
0.132711
0.132311
0.131846
0.131305
0.130678
0.129948
0.129099
0.12811
0.126956
0.125608
0.12403
0.122181
0.120011
0.117461
0.114458
0.110929
0.106741
0.101873
0.13465
0.134632
0.134588
0.134524
0.134442
0.134342
0.13422
0.134073
0.133898
0.133692
0.133451
0.13317
0.132842
0.132462
0.13202
0.131507
0.130911
0.130218
0.129412
0.128472
0.127376
0.126095
0.124593
0.12283
0.120755
0.118306
0.115406
0.111978
0.107869
0.103067
0.134691
0.134676
0.134637
0.134578
0.134502
0.134408
0.134293
0.134155
0.133991
0.133797
0.133571
0.133308
0.133001
0.132645
0.132231
0.131751
0.131194
0.130546
0.129793
0.128915
0.12789
0.126691
0.125283
0.123627
0.121671
0.119353
0.116591
0.113302
0.109315
0.104616
0.134743
0.13473
0.134696
0.134642
0.134572
0.134485
0.13438
0.134252
0.1341
0.133922
0.133713
0.13347
0.133187
0.132859
0.132478
0.132037
0.131525
0.13093
0.130238
0.129432
0.128491
0.12739
0.126095
0.124568
0.122758
0.120603
0.118017
0.114912
0.111096
0.106554
0.134806
0.134794
0.134764
0.134716
0.134653
0.134574
0.134478
0.134362
0.134224
0.134062
0.133873
0.133653
0.133398
0.133101
0.132758
0.13236
0.131898
0.131363
0.130742
0.130018
0.129173
0.128183
0.127018
0.125641
0.124004
0.122044
0.119674
0.116803
0.113222
0.108907
0.134877
0.134867
0.13484
0.134798
0.134742
0.134672
0.134587
0.134484
0.134362
0.134218
0.134051
0.133856
0.13363
0.133369
0.133066
0.132716
0.132311
0.131842
0.131297
0.130664
0.129926
0.12906
0.128042
0.126836
0.125397
0.123667
0.121557
0.118975
0.115701
0.111703
0.134956
0.134947
0.134924
0.134888
0.13484
0.134779
0.134705
0.134616
0.134511
0.134387
0.134243
0.134075
0.133882
0.133658
0.133399
0.133101
0.132756
0.132358
0.131897
0.131362
0.130739
0.130011
0.129153
0.128137
0.126921
0.125451
0.123645
0.121413
0.118528
0.114951
0.135042
0.135034
0.135015
0.134985
0.134945
0.134894
0.134832
0.134758
0.13467
0.134567
0.134447
0.134309
0.134149
0.133965
0.133753
0.133509
0.133229
0.132906
0.132534
0.132103
0.131603
0.13102
0.130335
0.129524
0.128553
0.127375
0.125915
0.12409
0.121683
0.118646
0.135133
0.135127
0.135112
0.135088
0.135055
0.135015
0.134966
0.134907
0.134837
0.134756
0.134662
0.134554
0.134429
0.134287
0.134123
0.133936
0.133723
0.133478
0.133197
0.132875
0.132503
0.132073
0.13157
0.130977
0.130267
0.129405
0.128329
0.126966
0.125124
0.122749
0.135228
0.135224
0.135213
0.135195
0.135171
0.135141
0.135105
0.135061
0.135011
0.134952
0.134885
0.134807
0.134719
0.134619
0.134505
0.134376
0.134231
0.134066
0.133879
0.133668
0.133427
0.133153
0.132837
0.13247
0.132033
0.131505
0.13084
0.129985
0.128784
0.127185
0.135327
0.135324
0.135317
0.135305
0.13529
0.13527
0.135247
0.13522
0.135189
0.135153
0.135112
0.135066
0.135015
0.134958
0.134894
0.134824
0.134747
0.134662
0.13457
0.13447
0.134361
0.134244
0.134116
0.133976
0.133817
0.13363
0.133392
0.133073
0.132569
0.131836
0.135428
0.135427
0.135423
0.135418
0.135411
0.135402
0.135392
0.135381
0.135369
0.135356
0.135342
0.135328
0.135313
0.135299
0.135285
0.135274
0.135264
0.135259
0.13526
0.135269
0.13529
0.135327
0.135384
0.135467
0.135582
0.135733
0.135922
0.136145
0.136359
0.136542
0.13553
0.13553
0.135531
0.135531
0.135532
0.135534
0.135538
0.135542
0.135549
0.135559
0.135572
0.135589
0.135611
0.135639
0.135674
0.13572
0.135777
0.135849
0.135941
0.136056
0.136202
0.136386
0.13662
0.136916
0.137291
0.137765
0.138362
0.139106
0.140021
0.141112
0.135632
0.135634
0.135638
0.135644
0.135654
0.135666
0.135682
0.135703
0.135728
0.13576
0.135799
0.135846
0.135904
0.135973
0.136056
0.136157
0.136278
0.136425
0.136603
0.136819
0.137082
0.137405
0.137803
0.138296
0.13891
0.139678
0.140646
0.141863
0.143415
0.145341
0.135733
0.135736
0.135744
0.135756
0.135773
0.135795
0.135824
0.13586
0.135904
0.135957
0.136021
0.136098
0.136189
0.136298
0.136427
0.136581
0.136763
0.13698
0.137238
0.137548
0.13792
0.13837
0.138916
0.139585
0.140409
0.141433
0.142717
0.144335
0.146417
0.149038
0.135832
0.135836
0.135847
0.135865
0.135889
0.135921
0.135962
0.136012
0.136073
0.136147
0.136236
0.13634
0.136465
0.136611
0.136784
0.136987
0.137226
0.137508
0.137841
0.138236
0.138706
0.139268
0.139944
0.140763
0.141764
0.142996
0.144531
0.146456
0.148931
0.152057
0.135928
0.135933
0.135947
0.13597
0.136001
0.136042
0.136094
0.136158
0.136236
0.136329
0.13644
0.136572
0.136727
0.136908
0.137121
0.13737
0.137662
0.138003
0.138404
0.138875
0.139431
0.14009
0.140876
0.141818
0.142957
0.144346
0.14606
0.14819
0.150902
0.154312
0.136019
0.136026
0.136042
0.13607
0.136108
0.136157
0.136219
0.136296
0.136389
0.136501
0.136633
0.136789
0.136973
0.137187
0.137437
0.137728
0.138067
0.138462
0.138923
0.13946
0.14009
0.140831
0.141705
0.142742
0.143982
0.145476
0.147295
0.149526
0.152323
0.155797
0.136106
0.136113
0.136133
0.136164
0.136207
0.136264
0.136336
0.136425
0.136532
0.136661
0.136813
0.136991
0.1372
0.137444
0.137728
0.138057
0.138438
0.138881
0.139393
0.139988
0.14068
0.141485
0.142427
0.143533
0.144838
0.146388
0.148245
0.150484
0.15323
0.156575
0.136187
0.136196
0.136216
0.136251
0.136299
0.136363
0.136444
0.136543
0.136663
0.136807
0.136977
0.137176
0.137408
0.137678
0.137992
0.138354
0.138773
0.139256
0.139814
0.140456
0.141198
0.142054
0.143045
0.144195
0.145533
0.147097
0.148935
0.151105
0.153693
0.156762
0.136263
0.136271
0.136293
0.13633
0.136383
0.136452
0.136541
0.13665
0.136781
0.136938
0.137124
0.137341
0.137594
0.137887
0.138227
0.138619
0.13907
0.139588
0.140182
0.140863
0.141644
0.142538
0.143562
0.144735
0.146081
0.147627
0.149404
0.151449
0.153806
0.156507
0.136332
0.13634
0.136362
0.1364
0.136456
0.136531
0.136626
0.136743
0.136884
0.137053
0.137252
0.137485
0.137755
0.138069
0.138431
0.138848
0.139326
0.139873
0.140497
0.14121
0.14202
0.14294
0.143983
0.145164
0.146498
0.148002
0.14969
0.151579
0.153672
0.155967
0.136395
0.136403
0.136423
0.13646
0.136519
0.136599
0.136699
0.136823
0.136973
0.137151
0.137362
0.137607
0.137893
0.138224
0.138604
0.139041
0.139541
0.140111
0.14076
0.141496
0.142328
0.143265
0.144319
0.145497
0.146807
0.148256
0.149844
0.151566
0.153394
0.155293
0.136453
0.136458
0.136473
0.13651
0.13657
0.136653
0.136758
0.136887
0.137043
0.13723
0.137449
0.137706
0.138003
0.138347
0.138743
0.139196
0.139714
0.140303
0.14097
0.141722
0.142569
0.143517
0.144573
0.145741
0.147022
0.148414
0.149903
0.151468
0.153057
0.154608
0.136507
0.136505
0.136514
0.136549
0.136612
0.136697
0.136805
0.136938
0.137099
0.137292
0.137518
0.137782
0.138089
0.138443
0.13885
0.139315
0.139846
0.140448
0.141128
0.141893
0.14275
0.143704
0.144758
0.145914
0.147166
0.148504
0.149907
0.151341
0.152742
0.154029
0.136564
0.136537
0.136534
0.13657
0.136636
0.136724
0.136834
0.13697
0.137135
0.137331
0.137562
0.137832
0.138145
0.138506
0.13892
0.139393
0.139934
0.140546
0.141235
0.142007
0.142869
0.143825
0.144877
0.146021
0.14725
0.148547
0.149884
0.151214
0.152483
0.153599
0.136648
0.136571
0.136549
0.136585
0.136653
0.136741
0.136852
0.136989
0.137155
0.137354
0.137588
0.137861
0.138177
0.138541
0.138959
0.139437
0.139982
0.140598
0.141291
0.142067
0.142933
0.143889
0.144938
0.146073
0.147286
0.148556
0.14985
0.151118
0.152276
0.153221
0.0961465
0.0943353
0.0930974
0.0921531
0.0911293
0.0899688
0.0887391
0.0874736
0.0861652
0.0847988
0.0833632
0.0818458
0.0802286
0.0784886
0.076592
0.0745047
0.0721827
0.06957
0.066596
0.0631707
0.0591761
0.0544561
0.048796
0.0419101
0.0333634
0.0226189
0.00878953
-0.0104333
-0.0297171
-0.0828713
0.0970177
0.0956701
0.0945442
0.0935504
0.0924863
0.0913278
0.0901387
0.0889426
0.0877214
0.0864534
0.0851249
0.0837225
0.0822282
0.0806191
0.078868
0.0769443
0.0748101
0.072417
0.0697043
0.0665944
0.0629862
0.0587472
0.053696
0.0475954
0.0400812
0.0307286
0.0186879
0.0028287
-0.0155615
-0.0576027
0.0972529
0.0961736
0.0952509
0.0943287
0.0933514
0.0923344
0.0913031
0.0902549
0.0891704
0.0880343
0.0868381
0.085572
0.0842219
0.0827693
0.0811927
0.079466
0.077557
0.0754254
0.0730204
0.0702775
0.0671132
0.0634189
0.0590467
0.0538058
0.0473989
0.0394985
0.0293752
0.0164058
0.000100239
-0.0322485
0.098064
0.0972457
0.0965397
0.0957206
0.0948261
0.0939167
0.0930009
0.092063
0.0910896
0.0900743
0.0890114
0.0878917
0.0867023
0.0854278
0.0840503
0.0825485
0.0808963
0.0790612
0.0770027
0.0746696
0.0719958
0.0688957
0.0652529
0.0609186
0.0556568
0.0492252
0.0410011
0.030673
0.0169667
-0.00710864
0.0992239
0.0985892
0.0980433
0.0973172
0.0965107
0.0957168
0.094933
0.0941312
0.0932992
0.0924346
0.0915334
0.0905872
0.0895858
0.0885177
0.0873697
0.0861258
0.0847665
0.0832675
0.0815983
0.0797207
0.0775851
0.0751276
0.0722606
0.0688732
0.064784
0.0598205
0.0534604
0.0456208
0.0347043
0.0176289
0.100756
0.100296
0.0999199
0.0993149
0.0986225
0.0979608
0.097321
0.0966666
0.0959866
0.0952838
0.0945573
0.0938011
0.093008
0.0921703
0.0912791
0.0903236
0.0892903
0.0881626
0.0869198
0.0855356
0.0839758
0.0821958
0.080134
0.0777115
0.0747949
0.0712667
0.0667012
0.0611778
0.0530007
0.0417327
0.102711
0.102424
0.10222
0.101744
0.101173
0.10065
0.100162
0.0996684
0.0991574
0.0986362
0.0981068
0.0975653
0.0970067
0.096427
0.0958215
0.0951844
0.0945082
0.0937836
0.0929988
0.0921383
0.0911816
0.090101
0.0888566
0.0873967
0.0856276
0.0834741
0.0806008
0.0771817
0.0715559
0.0649648
0.105132
0.105021
0.104995
0.10466
0.104225
0.103853
0.103534
0.103217
0.102893
0.102573
0.102261
0.101955
0.101652
0.101354
0.101058
0.100763
0.100469
0.100171
0.0998657
0.0995473
0.0992064
0.0988293
0.0983937
0.0978695
0.0971946
0.0963241
0.0950013
0.0934372
0.0900909
0.0871306
0.108072
0.10814
0.108295
0.108113
0.107825
0.107618
0.107479
0.107354
0.107234
0.107131
0.107053
0.107001
0.106974
0.106976
0.107009
0.107075
0.107179
0.107321
0.107506
0.107734
0.108004
0.108316
0.108658
0.109017
0.109354
0.109644
0.109694
0.109706
0.108309
0.108067
0.111566
0.111815
0.112152
0.112131
0.112005
0.111974
0.112027
0.112107
0.112203
0.112331
0.112502
0.112717
0.112979
0.113293
0.113665
0.114101
0.114607
0.115192
0.115861
0.116622
0.117481
0.118444
0.11951
0.120674
0.121914
0.123214
0.124428
0.125717
0.125912
0.127586
0.115633
0.116058
0.116572
0.11672
0.116767
0.116922
0.117175
0.117466
0.117786
0.118153
0.118579
0.119068
0.119624
0.120253
0.120964
0.121765
0.122667
0.123679
0.124811
0.126075
0.127481
0.129038
0.130751
0.13262
0.13463
0.136769
0.138919
0.141185
0.142615
0.145514
0.120251
0.120843
0.121521
0.121841
0.122068
0.122413
0.122868
0.123373
0.123919
0.124525
0.125205
0.125965
0.126808
0.127743
0.128781
0.129932
0.131206
0.132616
0.134174
0.135893
0.137785
0.13986
0.142126
0.144582
0.147218
0.150015
0.152873
0.155842
0.158167
0.161713
0.125347
0.12609
0.126912
0.127401
0.127811
0.128345
0.128997
0.129709
0.130473
0.13131
0.132233
0.133248
0.134362
0.135583
0.136923
0.138393
0.140004
0.141768
0.1437
0.145811
0.148114
0.150619
0.153331
0.156249
0.15936
0.162641
0.165997
0.169437
0.172365
0.176113
0.130784
0.131654
0.132595
0.133243
0.133831
0.134546
0.13538
0.136284
0.137251
0.1383
0.139444
0.140691
0.142048
0.143523
0.145129
0.146875
0.148774
0.150839
0.15308
0.155511
0.158141
0.160979
0.164027
0.167281
0.170723
0.174322
0.177991
0.181703
0.18498
0.188677
0.136359
0.137329
0.138357
0.139146
0.139901
0.140778
0.141775
0.142848
0.143992
0.145225
0.146561
0.148007
0.149569
0.151258
0.153082
0.155055
0.157186
0.159487
0.161969
0.164642
0.167513
0.170588
0.173866
0.177336
0.180976
0.184745
0.188555
0.192344
0.195715
0.199233
0.141812
0.142852
0.143935
0.144844
0.145744
0.146761
0.147891
0.149102
0.150392
0.151776
0.153266
0.15487
0.156594
0.158448
0.160442
0.162586
0.164889
0.167362
0.170014
0.172852
0.175883
0.179106
0.182518
0.186101
0.189827
0.193644
0.19746
0.201176
0.204454
0.207577
0.146859
0.147939
0.149049
0.15005
0.151067
0.152192
0.153424
0.154739
0.156138
0.157634
0.159237
0.160955
0.162795
0.164766
0.166876
0.169135
0.171552
0.174135
0.176892
0.179827
0.182944
0.186241
0.189708
0.193324
0.197052
0.200835
0.204572
0.208135
0.211228
0.213878
0.151227
0.152323
0.153437
0.154499
0.1556
0.156801
0.158099
0.159481
0.160951
0.162518
0.164192
0.165981
0.167891
0.16993
0.172106
0.174428
0.176905
0.179542
0.182345
0.185319
0.188463
0.191773
0.195235
0.198825
0.202501
0.206198
0.209812
0.213198
0.216096
0.21834
0.154706
0.155799
0.156899
0.157992
0.159141
0.160382
0.161712
0.163126
0.164628
0.166227
0.167932
0.169748
0.171684
0.173747
0.175943
0.178282
0.180769
0.183411
0.186213
0.189176
0.192299
0.195574
0.198986
0.202507
0.206091
0.209668
0.21313
0.216315
0.218972
0.220792
0.157184
0.158257
0.159332
0.160426
0.161587
0.162834
0.164163
0.165574
0.167072
0.168666
0.170363
0.172169
0.174091
0.176136
0.178312
0.180625
0.183081
0.185686
0.188444
0.191354
0.194415
0.197616
0.20094
0.204355
0.207814
0.21124
0.214518
0.217471
0.219848
0.221264
0.158659
0.159697
0.160738
0.161808
0.162946
0.164165
0.165462
0.166839
0.1683
0.169855
0.171509
0.173268
0.17514
0.177132
0.179249
0.181499
0.183888
0.186419
0.189096
0.191918
0.194882
0.197975
0.20118
0.204461
0.207768
0.211017
0.214087
0.216792
0.218881
0.219918
0.159235
0.160226
0.161223
0.162246
0.163331
0.164494
0.165732
0.167046
0.168442
0.169926
0.171506
0.173188
0.174979
0.176884
0.178911
0.181065
0.183352
0.185776
0.188339
0.191041
0.193875
0.19683
0.199884
0.203
0.206124
0.209166
0.212001
0.214422
0.216188
0.216647
0.159086
0.160016
0.160958
0.161912
0.16292
0.164002
0.165157
0.166384
0.167688
0.169076
0.170556
0.172133
0.173814
0.175604
0.177511
0.179539
0.181694
0.18398
0.186397
0.188944
0.191615
0.194397
0.197264
0.200179
0.203082
0.205876
0.208433
0.210512
0.211946
0.211586
0.158425
0.159277
0.160148
0.161016
0.161926
0.162905
0.163956
0.165074
0.166263
0.167532
0.168888
0.170335
0.171881
0.17353
0.17529
0.177165
0.17916
0.181277
0.183518
0.18588
0.188356
0.190929
0.193575
0.19625
0.198892
0.201396
0.203631
0.205308
0.206385
0.205282
0.157467
0.158226
0.159009
0.159775
0.160573
0.161437
0.162367
0.16336
0.164418
0.165551
0.166764
0.168063
0.169453
0.170941
0.172531
0.174229
0.176038
0.177961
0.179998
0.182144
0.184392
0.186723
0.189109
0.191504
0.193839
0.196
0.197855
0.199052
0.199662
0.197701
0.156414
0.157063
0.157739
0.15839
0.159063
0.159797
0.160591
0.161444
0.162357
0.163337
0.164392
0.165527
0.166746
0.168055
0.169458
0.170961
0.172565
0.174272
0.176081
0.177987
0.179977
0.182034
0.184124
0.186195
0.188175
0.18993
0.19133
0.191941
0.191923
0.188706
0.155413
0.155939
0.156494
0.157027
0.157578
0.158179
0.158833
0.159539
0.160299
0.16112
0.162008
0.162967
0.164003
0.16512
0.166323
0.167614
0.168996
0.170468
0.172029
0.17367
0.175377
0.177127
0.178883
0.180587
0.182155
0.183437
0.184291
0.184191
0.183419
0.178539
0.15463
0.154981
0.155359
0.155753
0.156176
0.156634
0.157136
0.157688
0.15829
0.158942
0.159653
0.16043
0.161277
0.162196
0.163189
0.164261
0.165411
0.166639
0.167938
0.169301
0.170708
0.172132
0.17353
0.174834
0.175949
0.1767
0.176938
0.176016
0.174431
0.167481
0.154304
0.154425
0.154577
0.154849
0.155159
0.155467
0.155811
0.156221
0.156674
0.157155
0.15768
0.158263
0.15891
0.15962
0.160396
0.161238
0.162147
0.163118
0.164144
0.165212
0.166299
0.167373
0.168381
0.169245
0.169856
0.170008
0.169543
0.16766
0.165255
0.155691
0.153907
0.153752
0.15375
0.153911
0.154113
0.154299
0.154482
0.1547
0.154966
0.155275
0.155625
0.15602
0.156466
0.156965
0.157519
0.158129
0.158793
0.159505
0.160258
0.161034
0.161808
0.162539
0.163166
0.163597
0.163707
0.163256
0.162079
0.159095
0.156129
0.143346
0.131016
0.118499
0.105394
0.0922312
0.0794777
0.0674785
0.0564726
0.0468682
0.039121
0.0336647
0.0310024
0.0314794
0.0352768
0.0427468
0.051893
0.0588919
0.0600034
0.0581292
0.0564152
0.0554724
0.0554332
0.0552428
0.0546081
0.0541674
0.0531871
0.0500656
0.0444645
0.0391578
0.0359486
0.0336915
0.147479
0.13715
0.125796
0.114414
0.103225
0.0923123
0.0821211
0.0730536
0.0652702
0.0588949
0.0546296
0.0529255
0.0533643
0.0558793
0.0604666
0.0643679
0.0635683
0.0592082
0.0564237
0.0562038
0.0558749
0.05498
0.0539227
0.052833
0.0511552
0.0469307
0.0413322
0.0375589
0.0357426
0.0348119
0.150811
0.14093
0.130444
0.120105
0.109392
0.0986936
0.0886704
0.0794764
0.0712384
0.0643741
0.0594231
0.0567185
0.0561114
0.0571823
0.0602118
0.0623069
0.0616367
0.0590073
0.0574269
0.0572239
0.0562965
0.0552339
0.053246
0.0511574
0.0490787
0.0453977
0.0406562
0.0379418
0.0366072
0.0356734
0.155383
0.147324
0.138479
0.12886
0.119015
0.109242
0.099694
0.0904891
0.0820233
0.0747153
0.0689551
0.0650352
0.062967
0.062494
0.0632812
0.0638145
0.0632167
0.0611606
0.0592333
0.0582875
0.0571227
0.0553237
0.0526249
0.0504712
0.0484862
0.0456743
0.0416057
0.0388276
0.0372664
0.0360143
0.157422
0.150284
0.142172
0.13364
0.124768
0.115638
0.106442
0.0975095
0.0891897
0.0817942
0.0756712
0.0711167
0.0682165
0.0667685
0.0663389
0.0660593
0.0650795
0.0632324
0.061267
0.0595567
0.0578578
0.055806
0.0533365
0.0510383
0.0492942
0.0458536
0.0418362
0.0388577
0.0371728
0.0362218
0.158647
0.152515
0.145456
0.137837
0.129712
0.121158
0.112392
0.103713
0.0954322
0.08787
0.0813702
0.076227
0.0725652
0.0702457
0.0689099
0.0679148
0.0665418
0.0646618
0.0626678
0.0609411
0.0587882
0.0563746
0.054354
0.0519413
0.0487114
0.0445596
0.0401639
0.0374374
0.0368475
0.0376051
0.159166
0.153865
0.147653
0.140783
0.133344
0.12541
0.11715
0.108814
0.100696
0.0931173
0.0864074
0.0808515
0.0765995
0.0735777
0.0714949
0.0698444
0.0680883
0.0660542
0.0639423
0.0619714
0.0597749
0.0571985
0.0546694
0.0519329
0.047553
0.0422091
0.0376436
0.0366528
0.0378549
0.0414245
0.159258
0.154672
0.149218
0.143048
0.136242
0.128874
0.12108
0.113078
0.105147
0.0976009
0.0907585
0.0849006
0.080197
0.0766255
0.0739559
0.071785
0.0696871
0.0674689
0.0652144
0.0630201
0.0607451
0.0582641
0.0554156
0.052171
0.0478227
0.0426298
0.0389098
0.0391531
0.0435224
0.0492959
0.159074
0.155098
0.150299
0.144749
0.138514
0.131666
0.12432
0.116663
0.108949
0.101476
0.0945565
0.0884712
0.0834071
0.0793848
0.076233
0.0736287
0.0712202
0.068814
0.0664243
0.0640969
0.0617411
0.0592743
0.0566085
0.0537474
0.0502451
0.0466337
0.045452
0.0481788
0.0538803
0.0606116
0.158724
0.155266
0.151033
0.14603
0.140313
0.133944
0.127022
0.119703
0.112218
0.104849
0.0978992
0.0916495
0.0863004
0.0819074
0.0783516
0.0753743
0.0726815
0.0700897
0.067573
0.0651483
0.0627518
0.0603238
0.0578727
0.055473
0.0532515
0.0518045
0.0527726
0.0576906
0.0648055
0.0720847
0.158282
0.155265
0.151518
0.146997
0.141745
0.135816
0.129289
0.122297
0.115045
0.107799
0.100853
0.0944865
0.0889116
0.0842131
0.0803172
0.0770186
0.0740709
0.0713042
0.068671
0.06617
0.0637643
0.0614307
0.059224
0.0573243
0.0560898
0.0562395
0.0589121
0.0643854
0.0721273
0.0800316
0.157797
0.155155
0.151826
0.147728
0.142892
0.137364
0.131205
0.124523
0.117503
0.110392
0.103474
0.097027
0.0912719
0.0863187
0.0821329
0.0785552
0.0753793
0.0724514
0.0697138
0.0671578
0.064769
0.0625631
0.0606424
0.0592587
0.0588269
0.0599958
0.0634938
0.0688097
0.0760791
0.0830541
0.157303
0.154982
0.152011
0.148285
0.143821
0.138657
0.132837
0.126448
0.119653
0.112683
0.105811
0.09931
0.0934101
0.0882427
0.083807
0.0799842
0.0766033
0.0735273
0.0706969
0.068103
0.0657511
0.0636901
0.0620619
0.0611496
0.0613303
0.0630294
0.0667197
0.0716615
0.077459
0.0821656
0.156823
0.154776
0.152114
0.148714
0.144583
0.139749
0.13424
0.128124
0.121545
0.114718
0.107902
0.101368
0.0953508
0.0900011
0.085348
0.0813081
0.0777422
0.0745308
0.0716182
0.0689987
0.0666952
0.0647817
0.0634206
0.062884
0.0634858
0.0654645
0.0689367
0.0730478
0.0769145
0.0790573
0.156371
0.154559
0.152163
0.14905
0.145217
0.140682
0.135457
0.129595
0.123222
0.116535
0.109782
0.103228
0.0971151
0.0916083
0.0867637
0.0825298
0.0787961
0.0754611
0.0724753
0.0698388
0.0675878
0.065812
0.0646758
0.0644167
0.0652546
0.0672882
0.0701844
0.07326
0.0752084
0.0751589
0.155958
0.154349
0.152182
0.149321
0.145755
0.141489
0.136524
0.130897
0.124717
0.118165
0.111478
0.104915
0.0987213
0.093077
0.0880617
0.0836525
0.0797656
0.0763171
0.0732656
0.0706171
0.0684172
0.066761
0.0657995
0.065718
0.0666225
0.0684526
0.0706785
0.0725622
0.072501
0.0705944
0.155588
0.154156
0.152187
0.149549
0.146222
0.142199
0.137471
0.132059
0.126059
0.119637
0.113015
0.106449
0.100186
0.0944187
0.0892489
0.0846797
0.0806518
0.0770984
0.073987
0.0713287
0.0691738
0.067614
0.0667742
0.0667744
0.0676079
0.0690727
0.0705017
0.0711112
0.0694299
0.0656337
0.155265
0.153986
0.152189
0.149749
0.146637
0.142835
0.138321
0.133108
0.127275
0.120973
0.114414
0.107847
0.101522
0.0956436
0.0903319
0.0856148
0.0814559
0.0778048
0.0746375
0.0719695
0.0698508
0.0683615
0.0675911
0.0675882
0.0682412
0.0692287
0.069788
0.0691806
0.0660021
0.0611366
0.154987
0.153845
0.152199
0.149935
0.147016
0.143415
0.139096
0.134064
0.128384
0.122194
0.115694
0.109126
0.102744
0.0967609
0.0913166
0.0864611
0.0821793
0.0784361
0.075216
0.0725365
0.0704432
0.0689981
0.0682484
0.0681701
0.0685581
0.0689942
0.068682
0.0669884
0.0625713
0.0563267
0.154754
0.153735
0.152222
0.150117
0.147374
0.143954
0.139813
0.134945
0.129405
0.123317
0.116869
0.110299
0.103861
0.0977785
0.0922082
0.0872214
0.0828231
0.0789925
0.0757216
0.0730279
0.0709487
0.0695225
0.0687505
0.0685376
0.0685982
0.0684412
0.0672765
0.0645047
0.058878
0.0512302
0.154562
0.153655
0.152263
0.150303
0.14772
0.144463
0.140484
0.135767
0.130355
0.124358
0.117955
0.111379
0.104884
0.0987038
0.0930115
0.0878986
0.0833886
0.0794741
0.0761533
0.0734422
0.0713658
0.0699354
0.0691039
0.0687094
0.0683983
0.0676274
0.0656242
0.0618184
0.0550939
0.0465884
0.154407
0.153604
0.152323
0.150496
0.148061
0.144955
0.141124
0.136543
0.131246
0.12533
0.118964
0.112375
0.10582
0.0995429
0.0937305
0.0884948
0.083877
0.0798818
0.0765125
0.0737812
0.0716981
0.0702437
0.0693219
0.06871
0.0679971
0.0666043
0.063789
0.0590414
0.0514666
0.0425792
0.154286
0.153579
0.152402
0.150702
0.148405
0.145438
0.141741
0.137285
0.132091
0.126245
0.119906
0.113298
0.106679
0.100302
0.0943691
0.0890119
0.0842878
0.0802129
0.0767948
0.0740402
0.0719414
0.0704466
0.0694102
0.0685551
0.0674229
0.0654135
0.0618325
0.0562537
0.0480625
0.0389271
0.154199
0.15358
0.152501
0.15092
0.148754
0.145918
0.142346
0.138003
0.132901
0.127114
0.120792
0.114155
0.107466
0.100984
0.0949307
0.0894546
0.0846284
0.0804776
0.0770133
0.0742345
0.072114
0.0705663
0.0693966
0.0682799
0.0667181
0.0641029
0.0598046
0.053491
0.0448221
0.0354109
0.154144
0.153608
0.152619
0.151152
0.149112
0.146399
0.142944
0.138705
0.133684
0.127946
0.121631
0.114956
0.108188
0.101593
0.0954105
0.0898094
0.084877
0.0806488
0.0771382
0.0743351
0.0721888
0.0705795
0.069265
0.0678806
0.0658928
0.0626963
0.0577359
0.0507734
0.0417099
0.0321384
0.154113
0.153659
0.152755
0.151398
0.149479
0.146887
0.143542
0.139399
0.134449
0.128748
0.122428
0.115708
0.108857
0.102153
0.0958467
0.0901266
0.0850935
0.0807905
0.0772341
0.0744061
0.0722333
0.0705585
0.0690845
0.0674186
0.0649949
0.0612172
0.0556146
0.0480376
0.0386343
0.02892
0.154095
0.153722
0.152905
0.151658
0.149856
0.147382
0.144145
0.140095
0.135209
0.129532
0.123186
0.116392
0.109422
0.10258
0.0961346
0.0902848
0.0851482
0.0807788
0.0771856
0.0743355
0.0721345
0.0703955
0.06879
0.0668671
0.0640406
0.0597376
0.0535637
0.0454334
0.0357639
0.025851
0.154092
0.153785
0.153063
0.151933
0.150243
0.147881
0.14475
0.140792
0.13598
0.130343
0.123996
0.117145
0.110064
0.103082
0.0964968
0.0905167
0.0852745
0.080834
0.0771964
0.0743117
0.0720588
0.07022
0.0684541
0.0662285
0.0629438
0.058021
0.0511734
0.0424665
0.0324405
0.0222727
0.154123
0.153846
0.153225
0.152222
0.150654
0.148373
0.145324
0.141404
0.136601
0.130937
0.124523
0.117561
0.11035
0.103233
0.0965215
0.0904396
0.085127
0.0806491
0.0770069
0.074128
0.0718859
0.0700358
0.0681998
0.0657906
0.0621763
0.0567837
0.0494148
0.0403417
0.0302355
0.0199428
0.154185
0.153927
0.153401
0.152535
0.151168
0.149109
0.146229
0.142464
0.137767
0.132142
0.125676
0.11858
0.111179
0.103839
0.096895
0.0905986
0.0851134
0.0805073
0.076759
0.0737972
0.0714809
0.0695494
0.0675197
0.064727
0.0604671
0.0542029
0.045841
0.0358
0.024979
0.0149953
-0.0679062
-0.0698934
-0.0691796
-0.055619
-0.0453456
-0.0395824
-0.0334418
-0.027254
-0.020683
-0.0137723
-0.0067631
0.00016458
0.00688222
0.0133005
0.0193684
0.0250665
0.030364
0.035256
0.0397476
0.0438519
0.0475863
0.0509746
0.0540492
0.0568335
0.0594003
0.0617457
0.0640889
0.0663594
0.0689036
0.0680299
-0.0664888
-0.0709883
-0.0695596
-0.0548732
-0.0454479
-0.0399353
-0.0356165
-0.0307979
-0.0250895
-0.01875
-0.0120726
-0.00528686
0.00141509
0.00790665
0.0141165
0.0200002
0.0255266
0.0306802
0.0354567
0.0398575
0.0438893
0.0475596
0.0508869
0.0538737
0.0565612
0.0589148
0.0610387
0.0627118
0.0646588
0.0655788
-0.0623427
-0.0719947
-0.0685644
-0.0519985
-0.0436073
-0.0406286
-0.0379398
-0.0346616
-0.030085
-0.0245951
-0.0184569
-0.0119248
-0.00528442
0.00127153
0.00764096
0.0137603
0.0195843
0.025085
0.0302461
0.0350579
0.039517
0.0436222
0.04738
0.0507901
0.0538735
0.0566194
0.0591065
0.0612378
0.0633611
0.0653608
-0.0593656
-0.0700269
-0.0621351
-0.0481311
-0.0387514
-0.0388835
-0.0385802
-0.0370837
-0.0337568
-0.0292031
-0.0236754
-0.0174544
-0.0108912
-0.00424618
0.00231903
0.00870005
0.0148314
0.0206754
0.0262087
0.0314158
0.0362891
0.0408253
0.0450273
0.0488969
0.0524466
0.0556747
0.0586175
0.0612494
0.0636013
0.0657401
-0.0624105
-0.0675312
-0.0569928
-0.041362
-0.0322294
-0.0344513
-0.0377903
-0.0386469
-0.0374356
-0.034114
-0.0291953
-0.02334
-0.0169797
-0.0103575
-0.00366249
0.00294676
0.00936326
0.0155289
0.0214103
0.0269868
0.0322468
0.0371846
0.0417995
0.0460914
0.0500645
0.0537185
0.0570603
0.0601008
0.0628144
0.0652849
-0.0722207
-0.0747784
-0.0571516
-0.0308063
-0.0227964
-0.0287087
-0.0367557
-0.0402249
-0.0413824
-0.0402132
-0.0363762
-0.0309086
-0.0246654
-0.0180675
-0.011291
-0.00448286
0.00222394
0.00873914
0.0150046
0.0209872
0.026671
0.0320475
0.0371134
0.0418677
0.0463121
0.0504499
0.0542808
0.0578224
0.0610428
0.0640313
-0.0786912
-0.0831171
-0.0644925
-0.030534
-0.014125
-0.0183428
-0.0344562
-0.0439974
-0.0460779
-0.04667
-0.0449313
-0.0406738
-0.0345005
-0.0276675
-0.0206463
-0.0135807
-0.00654361
0.000380829
0.00709746
0.0135473
0.0197083
0.0255726
0.0311374
0.0364024
0.0413692
0.046042
0.0504186
0.0545138
0.058285
0.0618326
-0.0791499
-0.0831609
-0.0743154
-0.046241
-0.0180945
-0.010508
-0.0276668
-0.047526
-0.0555564
-0.0556094
-0.0543225
-0.0522572
-0.0468766
-0.0397877
-0.0321712
-0.024656
-0.0172322
-0.00984938
-0.00260681
0.00439238
0.0111014
0.0175079
0.023612
0.0294174
0.0349282
0.0401515
0.0450874
0.049754
0.0541029
0.058245
-0.0767658
-0.0774603
-0.0796525
-0.0692645
-0.0484826
-0.0328923
-0.0344389
-0.0504576
-0.0660539
-0.0714355
-0.0692951
-0.0662914
-0.063007
-0.0561448
-0.0474399
-0.0387977
-0.0305753
-0.0225641
-0.0147084
-0.00706734
0.000290388
0.00732959
0.0140456
0.020446
0.0265403
0.0323411
0.0378541
0.0431057
0.0480481
0.0528053
-0.0793439
-0.0708137
-0.0876507
-0.0943869
-0.0855719
-0.0752718
-0.069776
-0.0725245
-0.0821691
-0.0912692
-0.0934589
-0.0890992
-0.0832303
-0.0772788
-0.069026
-0.0587884
-0.048612
-0.0390951
-0.030132
-0.0215616
-0.013348
-0.0055066
0.00195626
0.0090544
0.0158075
0.022237
0.028356
0.0342006
0.0397276
0.0450759
-0.099974
-0.084636
-0.104163
-0.117611
-0.118169
-0.115088
-0.11289
-0.112538
-0.114638
-0.119018
-0.12252
-0.121621
-0.115184
-0.105713
-0.0963991
-0.0865169
-0.0744992
-0.0624347
-0.0511174
-0.0406961
-0.0310018
-0.0219112
-0.0133754
-0.00534139
0.00224058
0.00941403
0.0162105
0.0226836
0.0288001
0.034718
-0.138826
-0.113031
-0.128123
-0.141341
-0.147308
-0.15057
-0.152917
-0.154867
-0.156385
-0.1576
-0.158634
-0.158309
-0.154719
-0.146494
-0.134392
-0.121043
-0.10836
-0.0950621
-0.0806982
-0.0672575
-0.0548811
-0.0435767
-0.0332435
-0.0237176
-0.0148899
-0.006676
0.00099833
0.008225
0.0149973
0.0215041
-0.179359
-0.14904
-0.157228
-0.166771
-0.175123
-0.182743
-0.189129
-0.194191
-0.19801
-0.200282
-0.200811
-0.199703
-0.196706
-0.190663
-0.181031
-0.167709
-0.151693
-0.13513
-0.119596
-0.103956
-0.0879173
-0.0732172
-0.0599318
-0.0478874
-0.0369775
-0.0270593
-0.0179913
-0.00963453
-0.00195034
0.00529252
-0.21421
-0.183216
-0.186157
-0.192076
-0.201054
-0.211012
-0.220373
-0.228542
-0.235199
-0.240028
-0.242604
-0.242641
-0.240288
-0.235469
-0.227846
-0.216844
-0.202659
-0.18579
-0.167057
-0.147675
-0.129483
-0.112243
-0.0952611
-0.0796355
-0.065676
-0.053167
-0.0418664
-0.031677
-0.0225368
-0.0141706
-0.238271
-0.209747
-0.210176
-0.213871
-0.222837
-0.233972
-0.245408
-0.256121
-0.265457
-0.272908
-0.278086
-0.280695
-0.280455
-0.277397