/*--------------------------------*- C++ -*----------------------------------*\
  =========                 |
  \\      /  F ield         | OpenFOAM: The Open Source CFD Toolbox
   \\    /   O peration     | Website:  https://openfoam.org
    \\  /    A nd           | Version:  11
     \\/     M anipulation  |
\*---------------------------------------------------------------------------*/
FoamFile
{
    format      ascii;
    class       volScalarField;
    location    "1";
    object      p;
}
// * * * * * * * * * * * * * * * * * * * * * * * * * * * * * * * * * * * * * //

dimensions      [0 2 -2 0 0 0 0];

internalField   nonuniform List<scalar> 
12600
(
0.0744202
0.074284
0.0742199
0.074201
0.074184
0.0741607
0.0741347
0.0741076
0.0740788
0.0740473
0.0740121
0.0739723
0.0739269
0.0738746
0.0738136
0.0737426
0.0736593
0.0735604
0.0734425
0.0733
0.0731278
0.0729186
0.0726641
0.0723575
0.0719866
0.0715362
0.070987
0.0703108
0.0694813
0.0683867
0.0743451
0.0742749
0.0742221
0.0741999
0.074182
0.0741596
0.0741342
0.0741073
0.0740788
0.0740476
0.0740128
0.0739734
0.0739285
0.0738768
0.0738164
0.073746
0.0736631
0.0735647
0.0734476
0.0733068
0.0731365
0.0729304
0.0726818
0.0723801
0.0720143
0.0715686
0.0710296
0.0703618
0.0695849
0.0686969
0.0743095
0.0742762
0.0742305
0.0742022
0.0741827
0.0741612
0.0741364
0.0741098
0.0740816
0.0740507
0.0740163
0.0739775
0.0739332
0.0738822
0.0738232
0.0737544
0.0736732
0.0735772
0.0734618
0.0733238
0.0731575
0.0729562
0.0727127
0.0724174
0.0720595
0.0716251
0.0710987
0.0704564
0.0696982
0.0687966
0.0742849
0.0742642
0.0742281
0.0741999
0.0741801
0.0741597
0.074136
0.0741102
0.0740826
0.0740526
0.0740191
0.0739812
0.0739381
0.0738885
0.0738313
0.0737642
0.0736854
0.0735917
0.0734798
0.0733459
0.0731849
0.0729905
0.0727556
0.072471
0.0721261
0.071707
0.0711979
0.0705792
0.0698324
0.0689283
0.074267
0.0742535
0.0742265
0.074201
0.0741811
0.0741613
0.0741386
0.0741135
0.0740867
0.0740575
0.074025
0.0739882
0.0739467
0.0738986
0.073843
0.0737782
0.0737023
0.0736125
0.0735055
0.0733774
0.0732233
0.0730379
0.0728137
0.0725419
0.0722122
0.071812
0.0713254
0.0707334
0.0700091
0.06913
0.074254
0.0742445
0.0742238
0.074201
0.0741812
0.0741618
0.07414
0.074116
0.07409
0.0740617
0.0740303
0.0739946
0.0739547
0.073909
0.0738561
0.0737945
0.0737223
0.0736369
0.0735353
0.0734139
0.0732683
0.0730931
0.0728815
0.0726256
0.0723154
0.0719386
0.0714793
0.0709193
0.0702284
0.0693869
0.0742444
0.0742373
0.0742209
0.0742008
0.0741818
0.0741631
0.0741426
0.0741197
0.0740948
0.0740677
0.0740378
0.0740043
0.0739658
0.0739224
0.0738723
0.0738142
0.0737462
0.0736661
0.0735712
0.073458
0.0733225
0.0731597
0.0729633
0.0727258
0.0724377
0.0720876
0.0716603
0.0711382
0.0704903
0.0696988
0.0742374
0.0742318
0.0742184
0.0742008
0.074183
0.074165
0.0741454
0.0741237
0.0740999
0.0740741
0.0740456
0.0740138
0.0739777
0.0739368
0.0738901
0.073836
0.0737729
0.0736989
0.0736113
0.0735071
0.0733827
0.0732334
0.0730538
0.0728369
0.0725742
0.072255
0.0718648
0.0713871
0.0707913
0.0700612
0.0742323
0.0742277
0.0742165
0.0742011
0.0741844
0.0741673
0.0741487
0.0741282
0.0741057
0.0740812
0.0740544
0.0740246
0.0739911
0.0739532
0.0739101
0.0738604
0.0738028
0.0737354
0.073656
0.073562
0.0734501
0.0733163
0.0731555
0.0729616
0.072727
0.0724418
0.0720931
0.0716655
0.0711302
0.0704726
0.0742289
0.074225
0.0742154
0.0742017
0.0741863
0.07417
0.0741524
0.0741331
0.074112
0.074089
0.074064
0.0740364
0.0740055
0.0739709
0.0739316
0.0738868
0.0738351
0.0737749
0.0737045
0.0736214
0.0735228
0.0734053
0.0732647
0.0730956
0.0728915
0.0726437
0.0723409
0.0719694
0.0715027
0.0709282
0.0742269
0.0742235
0.074215
0.0742027
0.0741885
0.0741732
0.0741566
0.0741385
0.0741188
0.0740974
0.0740743
0.0740489
0.0740209
0.0739898
0.0739548
0.0739151
0.0738697
0.0738172
0.0737562
0.0736848
0.0736006
0.0735008
0.0733819
0.0732395
0.073068
0.0728605
0.0726071
0.0722965
0.0719055
0.0714239
0.074226
0.074223
0.0742155
0.0742043
0.0741911
0.0741768
0.0741612
0.0741443
0.074126
0.0741063
0.0740851
0.0740622
0.0740372
0.0740097
0.0739791
0.0739448
0.073906
0.0738617
0.0738107
0.0737516
0.0736824
0.0736011
0.0735048
0.0733903
0.0732533
0.0730882
0.0728876
0.0726423
0.0723334
0.0719535
0.0742263
0.0742235
0.0742167
0.0742064
0.0741942
0.0741807
0.0741661
0.0741504
0.0741335
0.0741156
0.0740965
0.0740761
0.0740541
0.0740303
0.0740044
0.0739757
0.0739438
0.073908
0.0738674
0.0738209
0.0737673
0.0737052
0.0736325
0.0735471
0.0734459
0.0733252
0.0731796
0.073003
0.0727811
0.0725101
0.0742275
0.0742249
0.0742186
0.0742091
0.0741976
0.074185
0.0741713
0.0741568
0.0741414
0.0741252
0.0741082
0.0740903
0.0740715
0.0740516
0.0740303
0.0740075
0.0739827
0.0739555
0.0739255
0.0738921
0.0738545
0.073812
0.0737635
0.0737078
0.0736433
0.073568
0.0734791
0.0733734
0.0732423
0.0730854
0.0742295
0.0742271
0.0742212
0.0742122
0.0742014
0.0741895
0.0741768
0.0741634
0.0741494
0.0741349
0.0741201
0.0741049
0.0740892
0.0740732
0.0740568
0.0740397
0.0740221
0.0740037
0.0739845
0.0739643
0.0739429
0.0739202
0.0738962
0.0738705
0.0738432
0.073814
0.0737825
0.0737489
0.0737102
0.0736702
0.0742324
0.0742301
0.0742244
0.0742158
0.0742055
0.0741943
0.0741825
0.0741702
0.0741576
0.0741448
0.0741321
0.0741195
0.0741071
0.074095
0.0740833
0.0740722
0.0740617
0.0740522
0.0740438
0.0740368
0.0740316
0.0740288
0.0740291
0.0740335
0.0740433
0.07406
0.0740859
0.0741241
0.0741776
0.0742547
0.0742361
0.0742339
0.0742282
0.0742199
0.0742099
0.0741993
0.0741883
0.0741771
0.0741658
0.0741547
0.0741441
0.074134
0.0741248
0.0741166
0.0741097
0.0741044
0.0741011
0.0741003
0.0741026
0.0741087
0.0741196
0.0741364
0.0741609
0.0741949
0.0742412
0.0743031
0.0743853
0.0744938
0.0746375
0.0748287
0.0742406
0.0742384
0.0742326
0.0742243
0.0742146
0.0742045
0.0741942
0.074184
0.074174
0.0741645
0.0741559
0.0741484
0.0741422
0.0741379
0.0741356
0.0741361
0.0741398
0.0741476
0.0741604
0.0741793
0.0742059
0.074242
0.07429
0.0743529
0.0744347
0.0745404
0.0746769
0.0748531
0.0750829
0.0753823
0.074246
0.0742436
0.0742376
0.074229
0.0742194
0.0742097
0.0742001
0.0741908
0.074182
0.0741741
0.0741674
0.0741623
0.0741592
0.0741586
0.0741609
0.0741669
0.0741775
0.0741936
0.0742165
0.0742479
0.0742897
0.0743443
0.074415
0.0745057
0.0746215
0.0747691
0.0749572
0.0751972
0.0755073
0.0759065
0.0742521
0.0742495
0.0742431
0.074234
0.0742243
0.0742149
0.0742059
0.0741975
0.0741898
0.0741833
0.0741785
0.0741758
0.0741756
0.0741785
0.0741852
0.0741966
0.0742137
0.0742378
0.0742705
0.0743137
0.0743699
0.0744423
0.0745346
0.0746517
0.0747998
0.0749868
0.0752231
0.0755221
0.0759053
0.0763936
0.0742592
0.0742563
0.074249
0.0742392
0.0742292
0.0742201
0.0742116
0.0742039
0.0741972
0.0741921
0.0741891
0.0741886
0.0741911
0.0741974
0.0742082
0.0742246
0.0742479
0.0742796
0.0743216
0.0743761
0.074446
0.074535
0.0746474
0.0747891
0.0749671
0.0751906
0.0754713
0.075824
0.0762721
0.0768377
0.0742674
0.0742639
0.0742554
0.0742445
0.0742341
0.0742251
0.0742171
0.07421
0.0742042
0.0742004
0.074199
0.0742006
0.0742057
0.0742151
0.0742298
0.074251
0.0742801
0.0743188
0.0743693
0.0744342
0.0745169
0.0746214
0.0747528
0.0749173
0.0751229
0.0753796
0.0757002
0.0761004
0.0766048
0.077235
0.0742768
0.0742724
0.0742621
0.0742496
0.0742388
0.07423
0.0742224
0.0742157
0.0742107
0.074208
0.0742082
0.0742116
0.074219
0.0742313
0.0742495
0.0742751
0.0743095
0.0743548
0.0744133
0.0744878
0.074582
0.0747002
0.0748484
0.0750334
0.0752638
0.0755504
0.0759066
0.0763486
0.0769008
0.0775835
0.0742879
0.0742821
0.0742691
0.0742545
0.0742432
0.0742347
0.0742272
0.0742209
0.0742166
0.0742151
0.0742166
0.0742217
0.0742313
0.0742462
0.0742677
0.0742971
0.0743363
0.0743874
0.0744529
0.0745362
0.074641
0.0747722
0.0749357
0.075139
0.0753912
0.0757036
0.0760904
0.0765678
0.0771598
0.0778841
0.074301
0.0742929
0.0742758
0.0742589
0.0742474
0.074239
0.0742316
0.0742254
0.0742217
0.074221
0.0742237
0.0742303
0.0742416
0.0742588
0.0742831
0.0743162
0.0743597
0.0744161
0.0744879
0.0745784
0.074692
0.0748337
0.0750102
0.0752293
0.0755005
0.0758355
0.0762486
0.076756
0.0773809
0.078138
0.074317
0.074305
0.0742818
0.0742625
0.0742514
0.0742434
0.0742359
0.0742298
0.0742267
0.0742268
0.0742305
0.0742384
0.0742513
0.0742704
0.0742971
0.074333
0.07438
0.0744408
0.0745183
0.0746156
0.0747372
0.0748885
0.0750761
0.0753082
0.0755945
0.0759476
0.0763819
0.0769136
0.0775658
0.0783499
0.0743373
0.0743184
0.0742863
0.0742645
0.0742539
0.0742459
0.0742381
0.0742322
0.0742295
0.0742303
0.0742349
0.0742438
0.0742581
0.0742789
0.0743077
0.0743462
0.0743963
0.0744606
0.0745423
0.0746447
0.0747723
0.0749309
0.0751274
0.0753705
0.0756691
0.0760371
0.0764882
0.0770383
0.0777135
0.0785212
0.0743639
0.0743325
0.0742907
0.074269
0.074259
0.0742503
0.0742419
0.074236
0.0742336
0.0742348
0.0742399
0.0742495
0.0742646
0.0742865
0.0743167
0.074357
0.0744096
0.074477
0.0745624
0.074669
0.0748014
0.0749655
0.0751683
0.0754189
0.0757267
0.0761046
0.0765673
0.0771302
0.0778247
0.0786647
0.0744007
0.0743326
0.0742841
0.0742683
0.07426
0.0742507
0.074242
0.0742365
0.0742346
0.0742362
0.0742418
0.074252
0.074268
0.0742909
0.0743223
0.0743638
0.0744178
0.0744872
0.0745751
0.0746847
0.0748204
0.0749881
0.0751953
0.0754509
0.0757662
0.0761511
0.0766197
0.0771869
0.0778825
0.0787561
0.0744769
0.0743422
0.0742825
0.0742701
0.0742629
0.0742528
0.0742438
0.0742382
0.0742363
0.074238
0.0742437
0.074254
0.0742702
0.0742935
0.0743254
0.0743679
0.0744237
0.0744949
0.0745833
0.074694
0.0748317
0.0750012
0.0752096
0.075466
0.0757843
0.0761739
0.0766461
0.0772151
0.077884
0.0786431
0.0680116
0.0671489
0.0666577
0.0664894
0.0663029
0.0660153
0.0656827
0.0653495
0.0650249
0.0647062
0.0643923
0.0640827
0.0637756
0.063468
0.0631563
0.0628361
0.0625018
0.0621459
0.0617582
0.0613234
0.0608201
0.0602104
0.0594584
0.0583731
0.0571826
0.0541191
0.0529877
0.0393297
0.0424942
-0.0326019
0.0684924
0.0676913
0.0671243
0.0668912
0.066653
0.0663382
0.0660114
0.0657095
0.065426
0.0651496
0.0648782
0.0646121
0.0643502
0.0640906
0.0638307
0.0635678
0.0632983
0.0630169
0.0627164
0.0623859
0.0620091
0.0615599
0.0609984
0.0602217
0.0592475
0.0570909
0.0557866
0.0453711
0.0470431
-0.01666
0.068143
0.0676411
0.0672695
0.0670738
0.0668684
0.0666048
0.066335
0.0660846
0.0658454
0.0656097
0.0653787
0.0651548
0.0649381
0.0647271
0.0645209
0.0643179
0.0641165
0.0639137
0.0637054
0.0634853
0.063243
0.0629616
0.0626107
0.0621293
0.0614671
0.0600715
0.0589387
0.0513391
0.0521013
-0.00048238
0.0681854
0.0678864
0.0676418
0.0674383
0.0672233
0.0669855
0.0667525
0.0665372
0.0663339
0.0661375
0.0659495
0.0657716
0.0656041
0.0654466
0.0652992
0.0651622
0.0650356
0.0649192
0.0648124
0.0647134
0.0646183
0.0645196
0.0643995
0.0642259
0.0639369
0.0632405
0.0625206
0.0574132
0.0577697
0.0155796
0.0683788
0.0681584
0.0679709
0.0677799
0.0675844
0.0673902
0.0672059
0.0670344
0.0668731
0.0667205
0.0665785
0.0664491
0.0663336
0.0662329
0.0661485
0.0660822
0.0660363
0.0660132
0.0660159
0.0660475
0.0661109
0.0662081
0.0663356
0.0664845
0.0666112
0.0665784
0.0664599
0.063556
0.064033
0.0313942
0.0686531
0.0684892
0.0683551
0.0681967
0.0680311
0.0678751
0.0677315
0.0675992
0.0674779
0.0673687
0.0672738
0.0671953
0.0671349
0.0670948
0.0670779
0.0670877
0.0671285
0.0672058
0.0673261
0.0674978
0.0677307
0.0680369
0.0684272
0.0689152
0.069486
0.0701058
0.0707139
0.0697847
0.0707745
0.0469326
0.0689997
0.0688814
0.0687915
0.0686654
0.0685307
0.0684116
0.068309
0.0682188
0.0681412
0.0680786
0.0680337
0.0680088
0.0680068
0.0680311
0.0680859
0.0681766
0.0683099
0.0684939
0.0687394
0.0690598
0.0694723
0.0699988
0.0706652
0.0715065
0.072541
0.0738104
0.0752248
0.0760724
0.0778845
0.0620433
0.0694075
0.0693304
0.0692815
0.0691903
0.06909
0.0690092
0.068948
0.0689007
0.0688677
0.0688527
0.0688592
0.0688903
0.0689495
0.0690414
0.0691719
0.069348
0.0695787
0.0698754
0.0702527
0.0707293
0.0713298
0.0720862
0.0730389
0.0742446
0.0757547
0.0776715
0.0799345
0.0823856
0.0852704
0.0765388
0.0698759
0.0698368
0.0698263
0.0697703
0.0697054
0.0696631
0.0696433
0.0696395
0.0696525
0.069687
0.069747
0.0698362
0.0699593
0.0701218
0.0703313
0.0705966
0.0709291
0.0713432
0.0718576
0.0724964
0.0732913
0.0742843
0.0755305
0.0771065
0.0790967
0.0816541
0.0847772
0.0886751
0.092811
0.0902409
0.0703986
0.0703956
0.0704218
0.0704016
0.0703733
0.07037
0.070392
0.0704327
0.0704929
0.0705779
0.0706928
0.0708419
0.0710306
0.071266
0.071557
0.0719143
0.0723517
0.0728867
0.0735418
0.0743466
0.0753397
0.0765729
0.078115
0.0800618
0.0825288
0.0857117
0.089681
0.0948786
0.100369
0.102985
0.0709724
0.0710036
0.0710643
0.0710798
0.0710885
0.0711245
0.0711885
0.0712739
0.0713818
0.0715182
0.0716888
0.0718988
0.0721545
0.0724641
0.072838
0.0732889
0.0738329
0.0744903
0.0752878
0.0762597
0.0774517
0.0789246
0.0807602
0.0830719
0.0860036
0.0897869
0.0945663
0.10092
0.107794
0.114627
0.0715897
0.0716533
0.0717464
0.0717974
0.0718435
0.0719188
0.0720246
0.0721546
0.0723104
0.0724983
0.0727247
0.0729957
0.0733186
0.0737027
0.0741597
0.0747042
0.0753545
0.076134
0.0770728
0.0782101
0.0795979
0.0813057
0.0834267
0.0860904
0.0894657
0.0938133
0.0993468
0.106713
0.114924
0.125029
0.072243
0.0723368
0.07246
0.0725456
0.0726291
0.0727432
0.0728899
0.0730639
0.0732668
0.0735055
0.0737871
0.0741183
0.0745073
0.0749647
0.0755034
0.0761398
0.0768943
0.0777929
0.0788691
0.0801667
0.0817434
0.083676
0.0860686
0.089064
0.0928525
0.0977175
0.103932
0.112162
0.121591
0.134035
0.0729218
0.0730437
0.0731942
0.0733132
0.0734333
0.0735853
0.0737717
0.0739881
0.0742367
0.0745247
0.0748596
0.075249
0.075702
0.0762299
0.0768472
0.0775718
0.0784259
0.0794381
0.0806449
0.082094
0.0838482
0.0859909
0.0886349
0.0919345
0.0960971
0.101422
0.10823
0.11717
0.127625
0.141475
0.0736144
0.0737619
0.0739369
0.0740876
0.0742431
0.0744312
0.0746552
0.0749119
0.0752038
0.0755385
0.0759238
0.0763681
0.0768811
0.0774754
0.0781664
0.0789733
0.0799202
0.0810376
0.082365
0.0839532
0.0858693
0.0882023
0.0910719
0.0946412
0.0991305
0.104849
0.112152
0.121647
0.132896
0.147312
0.0743077
0.0744782
0.0746747
0.0748547
0.0750436
0.0752655
0.0755244
0.0758182
0.0761502
0.0765278
0.0769595
0.077454
0.078022
0.0786767
0.0794345
0.0803158
0.0813463
0.0825581
0.0839929
0.0857044
0.0877629
0.0902616
0.0933256
0.0971239
0.101886
0.107924
0.115616
0.125512
0.13732
0.15173
0.074988
0.0751789
0.0753937
0.0756002
0.0758197
0.0760725
0.0763627
0.0766898
0.0770575
0.0774735
0.0779462
0.0784852
0.0791015
0.0798091
0.0806252
0.0815712
0.0826737
0.0839665
0.0854929
0.0873085
0.0894862
0.0921221
0.0953446
0.0993263
0.104301
0.11058
0.118552
0.128697
0.140848
0.154841
0.0756418
0.0758502
0.0760802
0.07631
0.0765567
0.0768366
0.077154
0.0775097
0.0779081
0.0783568
0.0788644
0.0794409
0.0800977
0.0808494
0.0817137
0.0827127
0.083874
0.0852324
0.0868321
0.0887303
0.0910012
0.0937425
0.0970842
0.1012
0.106323
0.11276
0.120897
0.131141
0.143409
0.156516
0.0762566
0.0764798
0.0767221
0.0769713
0.0772412
0.077544
0.0778839
0.0782631
0.0786864
0.0791614
0.0796969
0.0803029
0.0809914
0.0817772
0.0826784
0.0837177
0.0849231
0.08633
0.0879832
0.0899404
0.0922766
0.0950895
0.0985089
0.102707
0.107913
0.114422
0.122608
0.132792
0.144894
0.156789
0.0768221
0.0770574
0.077309
0.0775739
0.0778625
0.0781835
0.0785408
0.0789377
0.0793797
0.0798742
0.0804299
0.0810569
0.0817676
0.0825769
0.0835031
0.0845689
0.0858028
0.0872401
0.0889259
0.0909177
0.0932901
0.0961398
0.0995946
0.103822
0.109045
0.11554
0.123657
0.133611
0.145255
0.155788
0.0773304
0.0775751
0.0778334
0.0781098
0.0784124
0.0787467
0.0791161
0.079525
0.0799791
0.0804859
0.0810538
0.0816932
0.0824163
0.083238
0.0841767
0.0852552
0.0865015
0.087951
0.0896482
0.09165
0.0940295
0.0968815
0.10033
0.104535
0.10971
0.116106
0.124042
0.133602
0.144612
0.153445
0.0777775
0.0780293
0.078292
0.0785759
0.0788877
0.0792303
0.0796066
0.0800216
0.0804813
0.0809932
0.0815655
0.0822083
0.0829339
0.0837572
0.0846962
0.0857734
0.0870166
0.0884604
0.0901485
0.0921365
0.0944955
0.0973169
0.10072
0.104855
0.109922
0.116143
0.123797
0.132813
0.143134
0.14964
0.0781615
0.0784181
0.0786829
0.0789708
0.0792873
0.0796333
0.0800116
0.0804273
0.0808867
0.081397
0.0819662
0.0826043
0.0833232
0.0841376
0.0850653
0.0861281
0.0873533
0.0887745
0.0904342
0.0923862
0.0946989
0.0974595
0.10078
0.104803
0.109708
0.115681
0.122972
0.131305
0.140897
0.14455
0.0784864
0.0787454
0.0790099
0.079298
0.0796146
0.0799594
0.0803345
0.0807453
0.0811983
0.0817003
0.0822593
0.0828848
0.0835885
0.0843845
0.0852902
0.0863266
0.0875202
0.0889034
0.0905171
0.0924128
0.0946557
0.097328
0.100535
0.104404
0.1091
0.114763
0.121625
0.12916
0.138008
0.138579
0.0787559
0.0790153
0.0792764
0.0795613
0.0798752
0.0802162
0.0805851
0.0809869
0.0814285
0.0819168
0.0824593
0.0830652
0.0837456
0.0845143
0.0853879
0.0863868
0.0875362
0.0888674
0.0904193
0.0922408
0.0943934
0.0969536
0.100018
0.103701
0.108149
0.113452
0.119841
0.126473
0.13459
0.131685
0.0789846
0.0792422
0.0794929
0.0797666
0.0800721
0.080405
0.0807636
0.0811525
0.0815786
0.0820487
0.0825697
0.0831504
0.0838018
0.0845367
0.0853707
0.0863233
0.0874185
0.0886858
0.0901622
0.0918942
0.0939393
0.0963679
0.0992679
0.102738
0.106909
0.111813
0.1177
0.123321
0.130767
0.123709
0.0791821
0.0794353
0.079671
0.0799357
0.0802367
0.0805606
0.0809043
0.0812752
0.0816817
0.0821295
0.0826243
0.0831739
0.0837891
0.0844822
0.0852681
0.0861662
0.0871988
0.0883931
0.0897837
0.0914144
0.0933387
0.0956203
0.0983387
0.101576
0.105448
0.10992
0.115295
0.119785
0.12665
0.114853
0.0794071
0.0795964
0.0797617
0.0800089
0.0803179
0.0806422
0.0809738
0.0813252
0.0817088
0.0821321
0.082599
0.0831161
0.0836953
0.0843471
0.0850816
0.0859188
0.0868799
0.0879908
0.0892842
0.0908028
0.0925953
0.0947182
0.0972425
0.100233
0.103795
0.10781
0.112687
0.115914
0.122344
0.105407
0.0798598
0.0799083
0.079927
0.080125
0.0804286
0.0807524
0.0810749
0.0814077
0.081766
0.0821593
0.0825919
0.0830681
0.083598
0.0841936
0.0848732
0.0856506
0.0865439
0.0875746
0.0887686
0.0901708
0.0918265
0.0937852
0.0961091
0.0988444
0.10209
0.105624
0.110031
0.111847
0.117983
0.0956139
0.0799049
0.0797373
0.0797623
0.0800435
0.080383
0.0807122
0.0810131
0.081331
0.0816856
0.0820684
0.0824815
0.082929
0.0834151
0.0839558
0.0845654
0.0852577
0.086054
0.0869782
0.0880609
0.0893357
0.0908431
0.0926273
0.0947443
0.0972173
0.100159
0.103186
0.107225
0.107456
0.113543
0.0856512
0.0768087
0.0678743
0.0580618
0.04792
0.0380466
0.0287993
0.0205023
0.0135209
0.00825585
0.00513773
0.00452082
0.00615476
0.00900136
0.0111151
0.0114544
0.00986188
0.00760455
0.0064105
0.00566701
0.00515602
0.00485225
0.0046486
0.00442628
0.0039618
0.00339688
0.00274265
0.00203712
0.00128025
0.000381736
-0.000819071
0.108988
0.10271
0.0957155
0.0887167
0.0816088
0.074159
0.0665423
0.0590881
0.0520261
0.0454245
0.0399631
0.035953
0.0330388
0.0304698
0.0266498
0.0212246
0.0143689
0.00814936
0.00582123
0.0064605
0.00685411
0.00604123
0.00500973
0.00393437
0.00258875
0.00110604
-0.000499864
-0.00221822
-0.0041885
-0.0065897
0.103884
0.0999107
0.0953538
0.0903018
0.0843918
0.0776913
0.0705386
0.0631488
0.0558416
0.0492105
0.043624
0.0390333
0.0350344
0.0310161
0.0261073
0.0198502
0.014555
0.0111396
0.00915144
0.00873345
0.007692
0.00569322
0.00408306
0.00210176
-0.000593866
-0.00321099
-0.00549275
-0.00726245
-0.00824917
-0.00836149
0.105145
0.102945
0.100127
0.0963682
0.0917937
0.0864797
0.0804781
0.0739108
0.0670158
0.0601254
0.0535365
0.0474259
0.0418694
0.0366564
0.0315379
0.0266557
0.0225452
0.0188277
0.0147588
0.0117141
0.00903358
0.00557255
0.00232122
-0.000898835
-0.00406642
-0.00623513
-0.00687433
-0.00562899
-0.00305756
0.00173548
0.10159
0.100363
0.0987117
0.0963109
0.0931159
0.0891419
0.0844258
0.0789885
0.0729181
0.0664343
0.0598612
0.0535088
0.0475771
0.0420741
0.0369104
0.0321054
0.0276873
0.0235406
0.0198265
0.0167443
0.0131999
0.00897005
0.00527429
0.00229367
0.000247014
0.000287836
0.00292605
0.00814492
0.014934
0.0237865
0.099048
0.0985261
0.0976833
0.0960717
0.0936462
0.0904759
0.0865467
0.0818237
0.0763523
0.0703008
0.0639445
0.0575936
0.0514982
0.0457774
0.0404258
0.035422
0.0308114
0.0266758
0.0231281
0.020002
0.0169085
0.014174
0.012326
0.011362
0.0118404
0.0145794
0.0196478
0.0267713
0.0350396
0.0446165
0.0963844
0.0962652
0.0959248
0.0949058
0.0931815
0.0907738
0.0876219
0.0836451
0.0788393
0.0733138
0.0672846
0.0610378
0.0548602
0.0489578
0.0434242
0.0383036
0.0336768
0.0296276
0.0261634
0.0231985
0.0207335
0.0190533
0.0184434
0.0191747
0.0216495
0.0260209
0.0319276
0.0385157
0.0446636
0.0497457
0.0941278
0.0942826
0.0942914
0.093698
0.0924648
0.0906082
0.0880558
0.0846979
0.0804867
0.0754778
0.0698332
0.0638048
0.0576868
0.0517384
0.0461306
0.0409705
0.0363572
0.0323706
0.0290417
0.0263963
0.0245401
0.0236945
0.0241027
0.0259731
0.0293382
0.0338759
0.0388684
0.0434119
0.0465818
0.0478891
0.0921662
0.0924847
0.0927094
0.092406
0.0915393
0.0901238
0.0880625
0.0852239
0.081529
0.0769929
0.0717337
0.0659693
0.0599871
0.0540763
0.0484628
0.0433035
0.0387234
0.0348253
0.0316882
0.0293965
0.0280799
0.0279185
0.0290633
0.031513
0.0349943
0.0389365
0.0425826
0.0452215
0.04627
0.0459328
0.0905018
0.0909234
0.0912899
0.091194
0.0906029
0.0895214
0.0878485
0.085439
0.08219
0.078082
0.0731929
0.0677059
0.0618941
0.0560634
0.0504819
0.0453526
0.0408343
0.0370601
0.0341422
0.0321897
0.0313277
0.0316726
0.0332387
0.0358285
0.0389907
0.0420989
0.0445152
0.0458039
0.0457377
0.044728
0.0890879
0.0895709
0.0900257
0.0900737
0.0896861
0.0888627
0.0875013
0.0854491
0.0825848
0.0788603
0.0743185
0.0691097
0.0634883
0.0577674
0.0522473
0.0471731
0.042739
0.0391057
0.036407
0.0347591
0.0342594
0.0349406
0.036684
0.0391553
0.0418363
0.0441537
0.0456569
0.0461609
0.0457163
0.0447911
0.0878872
0.0884059
0.0889161
0.0890664
0.0888311
0.0882075
0.0870941
0.0853359
0.082799
0.0794122
0.0751887
0.070248
0.0648242
0.0592308
0.0537923
0.0487898
0.044451
0.0409608
0.0384666
0.0370783
0.0368504
0.0377299
0.0394921
0.0417272
0.0439258
0.0456259
0.0465737
0.0467789
0.0464785
0.0460477
0.0868654
0.0874026
0.0879464
0.0881699
0.0880493
0.0875811
0.0866666
0.0851512
0.0828928
0.0798023
0.0758671
0.0711791
0.0659512
0.0604934
0.0551474
0.0502253
0.0459851
0.0426327
0.0403221
0.0391469
0.039113
0.0400914
0.0417839
0.0437555
0.0455525
0.046845
0.0475493
0.0477925
0.0478837
0.0480565
0.0859942
0.0865375
0.0871008
0.087378
0.0873454
0.0869991
0.0862454
0.0849308
0.0829091
0.0800773
0.0764013
0.0719478
0.0669091
0.0615882
0.0563397
0.0515013
0.0473586
0.0441348
0.0419849
0.0409805
0.0410799
0.0420927
0.0436778
0.0454112
0.0469198
0.047998
0.0486841
0.0491389
0.0496949
0.0503786
0.0852439
0.0857886
0.0863633
0.086681
0.0867176
0.0864692
0.0858454
0.0846979
0.0828777
0.0802714
0.0768268
0.0725884
0.0677286
0.0625418
0.0573908
0.0526358
0.0485863
0.0454799
0.0434685
0.0425995
0.0427881
0.0437986
0.0452724
0.0468209
0.0481565
0.0491702
0.0499681
0.0507053
0.0516934
0.0527221
0.0845886
0.0851351
0.0857189
0.0860684
0.0861606
0.0859922
0.0854758
0.084468
0.08282
0.0804102
0.0771714
0.0731285
0.0684349
0.0633757
0.058319
0.0536437
0.049681
0.0466802
0.0447873
0.0440255
0.0442739
0.0452665
0.0466462
0.0480719
0.0493292
0.050378
0.0513583
0.0523826
0.0537203
0.0549384
0.0840079
0.0845596
0.0851531
0.0855291
0.085668
0.085567
0.0851407
0.0842513
0.0827511
0.0805128
0.0774565
0.0735897
0.0690488
0.0641084
0.0591398
0.0545383
0.0506547
0.0477478
0.0459562
0.0452807
0.0455713
0.0465447
0.0478584
0.0492178
0.0504676
0.0516159
0.0528026
0.0540799
0.0556663
0.0569388
0.0834897
0.0840484
0.0846525
0.0850528
0.0852328
0.0851902
0.0848417
0.0840539
0.0826816
0.0805934
0.0776987
0.0739897
0.0695869
0.0647549
0.0598663
0.0553308
0.051518
0.0486942
0.0469897
0.0463857
0.0467103
0.0476726
0.0489503
0.0502899
0.0515833
0.0528649
0.0542492
0.0557265
0.0574546
0.0586682
0.0830235
0.0835894
0.0842049
0.0846291
0.0848476
0.0848579
0.0845781
0.0838793
0.0826191
0.080663
0.0779112
0.0743426
0.0700633
0.0653281
0.0605096
0.056031
0.0522803
0.0495298
0.0479013
0.0473593
0.0477162
0.0486807
0.04995
0.0513058
0.0526749
0.0540998
0.0556538
0.0572694
0.0590316
0.0601016
0.0825982
0.0831734
0.0838001
0.0842482
0.084505
0.0845653
0.084348
0.0837291
0.0825687
0.0807298
0.0781046
0.0746602
0.0704896
0.0658386
0.0610788
0.056647
0.0529497
0.0502641
0.0487031
0.0482181
0.048611
0.0495922
0.0508768
0.0522739
0.0537339
0.0552944
0.0569788
0.0586685
0.0603641
0.0612374
0.0822077
0.0827932
0.0834298
0.0839021
0.0841979
0.0843071
0.0841491
0.0836035
0.0825336
0.0808
0.0782874
0.0749521
0.0708755
0.0662956
0.0615819
0.0571859
0.0535334
0.0509053
0.0494059
0.0489763
0.0494114
0.0504237
0.0517416
0.0531951
0.0547492
0.0564267
0.0581956
0.0598937
0.0614368
0.0620928
0.0818466
0.0824414
0.0830859
0.0835839
0.0839203
0.0840785
0.0839776
0.0835015
0.0825158
0.0808781
0.0784663
0.0752264
0.0712294
0.0667069
0.0620253
0.0576533
0.0540381
0.0514615
0.0500198
0.0496486
0.0501346
0.0511904
0.0525513
0.0540643
0.0557056
0.0574785
0.0592876
0.0609312
0.0622523
0.0626987
0.0815198
0.0821114
0.0827578
0.0832851
0.0836661
0.0838745
0.0838306
0.0834221
0.082516
0.0809673
0.0786466
0.07549
0.0715586
0.0670798
0.0624147
0.0580534
0.0544673
0.0519374
0.0505504
0.0502371
0.0507825
0.0518953
0.0533069
0.0548751
0.056586
0.0584252
0.0602358
0.0617818
0.0628368
0.0630928
0.081232
0.0818052
0.0824447
0.0829973
0.0834262
0.0836889
0.0837038
0.0833631
0.0825347
0.0810703
0.0788327
0.075748
0.0718685
0.0674199
0.0627558
0.0583944
0.0548308
0.0523434
0.0510183
0.0507808
0.0513873
0.0525563
0.0540125
0.0556281
0.0573937
0.0592627
0.0610219
0.0624337
0.0632184
0.063323
0.0809708
0.0815275
0.0821512
0.0827225
0.0831981
0.0835166
0.0835927
0.0833214
0.0825707
0.0811891
0.07903
0.0760075
0.0721654
0.0677313
0.0630455
0.058667
0.0551204
0.0526677
0.0513818
0.05122
0.051917
0.053156
0.0546512
0.0563032
0.0581263
0.0600238
0.0616962
0.0629139
0.0634008
0.06344
0.0807337
0.081277
0.081875
0.0824608
0.0829792
0.0833534
0.0834947
0.0832942
0.0826216
0.0813202
0.0792359
0.0762696
0.072454
0.0680283
0.0633107
0.0589028
0.0553703
0.0529774
0.0517706
0.0516554
0.0524365
0.0537263
0.0552303
0.0568731
0.0587103
0.0606309
0.0622487
0.0632854
0.063545
0.0636233
0.0805187
0.081038
0.0816096
0.0822104
0.0827663
0.0831924
0.0834002
0.0832877
0.0826996
0.0814818
0.079467
0.0765447
0.0727318
0.068273
0.0634986
0.0590464
0.0554975
0.0531127
0.0519679
0.0519932
0.0528904
0.0542395
0.055757
0.057398
0.0591937
0.0610077
0.0624796
0.0633749
0.0636225
0.063902
0.0803328
0.0808028
0.081352
0.081974
0.0825672
0.0830348
0.0832894
0.0832279
0.0827407
0.081626
0.0796964
0.0768302
0.0730561
0.0685686
0.0637142
0.0592248
0.0557261
0.0533448
0.0522214
0.0523509
0.0533439
0.0547337
0.0562253
0.057918
0.0598768
0.0617319
0.0629769
0.0636517
0.063809
0.0641887
0.0802136
0.0805767
0.0810907
0.08174
0.0824034
0.0829573
0.0832991
0.0833242
0.0828887
0.0818254
0.0799478
0.0770836
0.0732667
0.0686922
0.0637085
0.0591427
0.0557167
0.0533955
0.0523759
0.0526559
0.0537261
0.0551014
0.0564429
0.0579023
0.0597807
0.0617095
0.0630821
0.0637198
0.0639129
0.0644728
0.0801862
0.0804004
0.0808122
0.081386
0.0820397
0.082655
0.0830887
0.0832298
0.0829522
0.0820562
0.0803293
0.0775732
0.0738014
0.0691019
0.0640021
0.0592874
0.0557093
0.0533743
0.0524696
0.0529693
0.0542371
0.0556975
0.0570669
0.0585897
0.0605878
0.0624073
0.0635371
0.0639759
0.0641296
0.0645033
-0.0750818
-0.0580134
-0.0635489
-0.0250678
-0.0073147
0.0138332
0.022952
0.0319862
0.0372674
0.0416347
0.0445256
0.0466043
0.0480259
0.048978
0.0495967
0.0499921
0.0502492
0.0504337
0.0505945
0.0507666
0.0509762
0.0512296
0.0515505
0.0519076
0.052388
0.0528714
0.0536317
0.0544122
0.0559508
0.0550609
-0.0750722
-0.0562815
-0.0694171
-0.0303049
-0.0105255
0.0109142
0.0215865
0.0306825
0.0366659
0.0412359
0.0444302
0.0467087
0.0482987
0.0493754
0.0500793
0.050523
0.0507952
0.050965
0.0510871
0.0512019
0.0513403
0.0515139
0.0517511
0.0520212
0.0523896
0.0527441
0.0532494
0.0535422
0.0543258
0.0541047
-0.0754977
-0.0518087
-0.0749281
-0.0382446
-0.0155837
0.0067682
0.019255
0.0286809
0.035487
0.040498
0.0441082
0.0466992
0.0485297
0.0497796
0.050596
0.0510985
0.0513836
0.0515286
0.051596
0.0516338
0.051681
0.0517587
0.0518936
0.052076
0.0523335
0.0526129
0.0529839
0.0532515
0.053804
0.0541802
-0.0769493
-0.0501255
-0.0803195
-0.0476444
-0.020411
0.00368219
0.0176247
0.0275058
0.0349093
0.0403241
0.0442386
0.0470494
0.0490276
0.0503656
0.0512196
0.0517181
0.0519664
0.0520502
0.0520395
0.0519893
0.0519442
0.0519336
0.0519842
0.0521036
0.0523089
0.0525833
0.0529662
0.0533761
0.053945
0.0544036
-0.0795782
-0.0543116
-0.0863223
-0.0587576
-0.0256686
0.000715651
0.01612
0.0266117
0.0344879
0.0402709
0.0444603
0.0474757
0.0495959
0.0510219
0.0519168
0.0524154
0.0526295
0.0526517
0.0525586
0.0524119
0.0522621
0.0521468
0.0520959
0.0521267
0.0522546
0.0524753
0.0528049
0.0532048
0.0537253
0.0541942
-0.0833192
-0.0628638
-0.0929313
-0.0706041
-0.0328294
-0.00331004
0.014011
0.0253858
0.0337926
0.0399852
0.0445067
0.0477903
0.0501153
0.0516845
0.0526644
0.0531947
0.0533941
0.0533632
0.0531865
0.052933
0.05266
0.0524126
0.0522273
0.0521292
0.0521372
0.0522549
0.0524889
0.0528179
0.0532746
0.0537398
-0.0881158
-0.0736342
-0.100113
-0.0826973
-0.0420735
-0.00873195
0.0111402
0.0237217
0.0327885
0.039441
0.0443388
0.0479423
0.0505272
0.0522907
0.053398
0.0539912
0.054195
0.0541188
0.0538566
0.0534879
0.0530798
0.0526867
0.0523517
0.0521068
0.0519759
0.0519715
0.0521031
0.0523558
0.0527583
0.0531793
-0.0937285
-0.0854378
-0.108651
-0.0957529
-0.0530875
-0.0153138
0.00755884
0.0216341
0.0314981
0.0386384
0.0439108
0.0478437
0.0507166
0.0527151
0.0539943
0.0546925
0.0549372
0.054844
0.0545134
0.0540314
0.0534731
0.0529061
0.0523891
0.051969
0.0516794
0.0515389
0.0515593
0.0517257
0.0520697
0.0524348
-0.100422
-0.0977536
-0.118947
-0.109575
-0.0653089
-0.0227586
0.00311483
0.0190074
0.0298433
0.0375025
0.0431247
0.0473665
0.0505345
0.0528022
0.0543022
0.0551544
0.0554804
0.0554025
0.0550347
0.0544738
0.0537982
0.0530732
0.0523595
0.0517171
0.0512024
0.0508578