/*--------------------------------*- C++ -*----------------------------------*\
  =========                 |
  \\      /  F ield         | OpenFOAM: The Open Source CFD Toolbox
   \\    /   O peration     | Website:  https://openfoam.org
    \\  /    A nd           | Version:  11
     \\/     M anipulation  |
\*---------------------------------------------------------------------------*/
FoamFile
{
    format      ascii;
    class       volScalarField;
    location    "1";
    object      p;
}
// * * * * * * * * * * * * * * * * * * * * * * * * * * * * * * * * * * * * * //

dimensions      [0 2 -2 0 0 0 0];

internalField   nonuniform List<scalar> 
12600
(
0.609366
0.609232
0.609164
0.609136
0.609107
0.609067
0.609019
0.608964
0.6089
0.608825
0.608736
0.60863
0.608503
0.608351
0.608167
0.607942
0.607671
0.607339
0.606922
0.606405
0.605782
0.605015
0.60406
0.602867
0.601376
0.599504
0.597133
0.594111
0.590272
0.5853
0.609295
0.609224
0.609166
0.609136
0.609106
0.609067
0.60902
0.608965
0.608902
0.608829
0.608742
0.608637
0.608512
0.608361
0.608179
0.607958
0.607691
0.607368
0.606953
0.606438
0.605825
0.605072
0.604132
0.602959
0.60149
0.599639
0.597293
0.594306
0.590471
0.585545
0.609262
0.609227
0.609177
0.609141
0.60911
0.609072
0.609026
0.608973
0.608911
0.608839
0.608753
0.60865
0.608527
0.608379
0.608201
0.607985
0.607723
0.607402
0.607
0.606507
0.605909
0.605173
0.604255
0.603109
0.601673
0.599865
0.597569
0.594648
0.590855
0.58604
0.609241
0.609218
0.609178
0.609142
0.60911
0.609075
0.609031
0.608979
0.608919
0.608849
0.608766
0.608666
0.608548
0.608405
0.608233
0.608024
0.60777
0.607459
0.607075
0.606601
0.606023
0.605311
0.604428
0.603325
0.601942
0.600198
0.597978
0.595152
0.591456
0.586776
0.609227
0.609212
0.60918
0.609147
0.609116
0.609082
0.60904
0.60899
0.608933
0.608865
0.608785
0.60869
0.608576
0.608439
0.608274
0.608074
0.607832
0.607535
0.60717
0.606721
0.606171
0.605495
0.604655
0.603606
0.60229
0.600629
0.598511
0.59581
0.592256
0.587763
0.609218
0.609207
0.609182
0.609152
0.609122
0.609089
0.609049
0.609002
0.608947
0.608883
0.608807
0.608717
0.608609
0.608479
0.608324
0.608135
0.607907
0.607628
0.607285
0.606864
0.606349
0.605714
0.604926
0.603944
0.60271
0.601153
0.599162
0.59662
0.59325
0.58899
0.609214
0.609205
0.609185
0.609158
0.609129
0.609098
0.609061
0.609017
0.608965
0.608904
0.608833
0.608749
0.608648
0.608527
0.608382
0.608207
0.607995
0.607736
0.607419
0.607031
0.606556
0.60597
0.605244
0.604339
0.603202
0.601765
0.599925
0.59757
0.594427
0.590447
0.609213
0.609205
0.609188
0.609165
0.609138
0.609108
0.609074
0.609033
0.608985
0.608929
0.608863
0.608785
0.608692
0.608581
0.608448
0.608288
0.608094
0.607858
0.607571
0.607219
0.606788
0.606257
0.6056
0.604782
0.603754
0.602455
0.600789
0.598651
0.595775
0.592125
0.609214
0.609208
0.609193
0.609172
0.609148
0.60912
0.609088
0.609051
0.609007
0.608955
0.608895
0.608824
0.608741
0.608641
0.608521
0.608377
0.608204
0.607993
0.607737
0.607425
0.607043
0.606573
0.605993
0.60527
0.604363
0.603217
0.601743
0.599849
0.597279
0.594008
0.609217
0.609212
0.609199
0.609181
0.609159
0.609134
0.609104
0.60907
0.609031
0.608984
0.608931
0.608868
0.608793
0.608705
0.6086
0.608474
0.608323
0.60814
0.607918
0.607647
0.607318
0.606913
0.606414
0.605795
0.605018
0.604036
0.602773
0.601146
0.598918
0.596074
0.609222
0.609217
0.609207
0.60919
0.609171
0.609148
0.609122
0.609091
0.609056
0.609015
0.608968
0.608914
0.60885
0.608774
0.608684
0.608577
0.608449
0.608295
0.608109
0.607883
0.607609
0.607274
0.606861
0.60635
0.60571
0.604903
0.603864
0.602524
0.60067
0.598295
0.609228
0.609225
0.609215
0.609201
0.609183
0.609163
0.60914
0.609113
0.609083
0.609048
0.609008
0.608962
0.608909
0.608846
0.608773
0.608685
0.608582
0.608458
0.608309
0.60813
0.607913
0.607649
0.607326
0.606927
0.60643
0.605805
0.604999
0.60396
0.602506
0.600636
0.609236
0.609233
0.609225
0.609212
0.609197
0.609179
0.609159
0.609137
0.609111
0.609082
0.60905
0.609013
0.60897
0.608921
0.608864
0.608798
0.608719
0.608627
0.608516
0.608385
0.608226
0.608035
0.607803
0.607519
0.607168
0.606727
0.60616
0.60543
0.604392
0.603054
0.609245
0.609242
0.609235
0.609224
0.609211
0.609196
0.609179
0.609161
0.60914
0.609117
0.609092
0.609064
0.609033
0.608998
0.608958
0.608913
0.60886
0.608799
0.608728
0.608644
0.608545
0.608428
0.608287
0.608118
0.607912
0.607656
0.607329
0.606908
0.606293
0.605497
0.609255
0.609252
0.609246
0.609237
0.609226
0.609213
0.6092
0.609185
0.609169
0.609153
0.609135
0.609117
0.609097
0.609076
0.609053
0.609029
0.609002
0.608973
0.608941
0.608905
0.608865
0.608821
0.608772
0.608716
0.608652
0.608578
0.608485
0.608368
0.608169
0.607912
0.609266
0.609263
0.609258
0.60925
0.609241
0.609231
0.60922
0.60921
0.609199
0.609189
0.609179
0.609169
0.609161
0.609154
0.609149
0.609145
0.609144
0.609147
0.609153
0.609165
0.609184
0.609211
0.60925
0.609305
0.609379
0.609478
0.609609
0.609781
0.60998
0.610239
0.609277
0.609275
0.609271
0.609264
0.609256
0.609248
0.609241
0.609234
0.609228
0.609224
0.609222
0.609222
0.609225
0.609232
0.609243
0.609261
0.609285
0.609319
0.609363
0.609421
0.609496
0.609593
0.609718
0.609878
0.610082
0.610345
0.610685
0.611124
0.611689
0.612422
0.609289
0.609288
0.609283
0.609278
0.609272
0.609266
0.609262
0.609259
0.609258
0.609259
0.609264
0.609273
0.609287
0.609308
0.609336
0.609374
0.609423
0.609487
0.609568
0.609671
0.6098
0.609964
0.610169
0.610428
0.610754
0.611167
0.611696
0.612374
0.61326
0.614408
0.609302
0.6093
0.609297
0.609292
0.609287
0.609283
0.609282
0.609282
0.609286
0.609293
0.609305
0.609323
0.609348
0.609382
0.609426
0.609484
0.609557
0.609649
0.609765
0.609911
0.610092
0.610318
0.610599
0.610949
0.611386
0.611935
0.612629
0.613512
0.614667
0.616154
0.609315
0.609314
0.60931
0.609305
0.609302
0.6093
0.609301
0.609305
0.609313
0.609326
0.609345
0.609371
0.609407
0.609453
0.609513
0.609589
0.609684
0.609804
0.609954
0.61014
0.610369
0.610653
0.611004
0.611437
0.611974
0.61264
0.613475
0.614525
0.615889
0.617628
0.609329
0.609327
0.609323
0.609319
0.609316
0.609316
0.60932
0.609327
0.609339
0.609357
0.609383
0.609417
0.609462
0.60952
0.609594
0.609688
0.609805
0.609951
0.610132
0.610355
0.610629
0.610966
0.61138
0.611888
0.612511
0.613277
0.614226
0.615406
0.616916
0.618815
0.609343
0.609341
0.609337
0.609332
0.60933
0.609332
0.609338
0.609348
0.609364
0.609387
0.609418
0.60946
0.609514
0.609583
0.609671
0.609781
0.609918
0.610087
0.610297
0.610554
0.610869
0.611255
0.611725
0.612298
0.612995
0.613844
0.614882
0.616151
0.617748
0.619716
0.609358
0.609356
0.60935
0.609344
0.609343
0.609346
0.609354
0.609367
0.609386
0.609414
0.609451
0.609499
0.609561
0.609641
0.609741
0.609866
0.610021
0.610213
0.610448
0.610736
0.611088
0.611516
0.612036
0.612665
0.613425
0.614339
0.615442
0.616767
0.618395
0.62035
0.609375
0.609371
0.609363
0.609356
0.609355
0.609359
0.609369
0.609384
0.609407
0.609438
0.60948
0.609535
0.609605
0.609693
0.609805
0.609943
0.610114
0.610325
0.610584
0.610899
0.611284
0.611749
0.612312
0.612989
0.613799
0.614764
0.61591
0.617261
0.618875
0.62075
0.609392
0.609386
0.609375
0.609366
0.609365
0.609371
0.609382
0.609399
0.609425
0.609459
0.609506
0.609566
0.609642
0.609739
0.60986
0.610011
0.610196
0.610424
0.610703
0.611042
0.611454
0.611952
0.61255
0.613266
0.614117
0.615121
0.616293
0.617646
0.619214
0.620961
0.609412
0.609403
0.609385
0.609374
0.609375
0.609382
0.609394
0.609413
0.609441
0.609478
0.609529
0.609593
0.609676
0.609779
0.609908
0.610069
0.610267
0.610509
0.610806
0.611165
0.611601
0.612125
0.612753
0.6135
0.614382
0.615413
0.616599
0.617938
0.61944
0.621036
0.609435
0.609419
0.609393
0.60938
0.609382
0.60939
0.609403
0.609423
0.609453
0.609493
0.609546
0.609615
0.609702
0.609811
0.609948
0.610116
0.610324
0.610579
0.610889
0.611265
0.611719
0.612264
0.612916
0.613687
0.614594
0.615642
0.616833
0.618149
0.619585
0.621031
0.609464
0.609436
0.609401
0.609388
0.60939
0.609398
0.609412
0.609433
0.609464
0.609506
0.609561
0.609633
0.609723
0.609837
0.609978
0.610154
0.61037
0.610634
0.610955
0.611344
0.611812
0.612373
0.613041
0.613832
0.614757
0.61582
0.61701
0.6183
0.619678
0.621004
0.609502
0.609438
0.609397
0.60939
0.609394
0.609402
0.609415
0.609437
0.609469
0.609513
0.609571
0.609644
0.609738
0.609854
0.61
0.610179
0.6104
0.610671
0.610999
0.611397
0.611875
0.612448
0.613128
0.613931
0.61487
0.615949
0.61714
0.618404
0.619727
0.620961
0.609577
0.609449
0.609397
0.609393
0.609398
0.609406
0.609419
0.609441
0.609474
0.609519
0.609577
0.609652
0.609746
0.609865
0.610013
0.610196
0.610421
0.610696
0.611029
0.611432
0.611916
0.612496
0.613185
0.613998
0.614945
0.616025
0.617213
0.618471
0.619732
0.620793
0.58042
0.578471
0.576926
0.575661
0.574311
0.572783
0.571137
0.569417
0.567626
0.565752
0.563785
0.561713
0.559514
0.557161
0.554619
0.551842
0.548774
0.545345
0.541465
0.537018
0.531853
0.525771
0.518508
0.509688
0.498867
0.485144
0.468286
0.443335
0.422839
0.358277
0.581498
0.579898
0.578515
0.577272
0.575939
0.574473
0.572941
0.571376
0.569762
0.56808
0.566317
0.564457
0.562481
0.560363
0.55807
0.555564
0.552794
0.549699
0.546199
0.542193
0.537547
0.532087
0.525582
0.51771
0.508075
0.495924
0.480981
0.459643
0.439821
0.385999
0.581781
0.58048
0.579331
0.578185
0.576966
0.57568
0.574357
0.572998
0.571586
0.570107
0.568552
0.56691
0.565164
0.563292
0.561266
0.559052
0.556608
0.553878
0.550795
0.547268
0.543185
0.538396
0.5327
0.525827
0.517429
0.506902
0.493927
0.475832
0.457737
0.413402
0.582547
0.581555
0.580666
0.579656
0.578557
0.577427
0.576275
0.575088
0.573854
0.572564
0.571213
0.56979
0.568277
0.566656
0.564904
0.562991
0.56088
0.558526
0.555869
0.552836
0.549329
0.545221
0.540346
0.534477
0.527316
0.518386
0.507337
0.492218
0.476305
0.440295
0.583622
0.582851
0.58215
0.581261
0.580284
0.579309
0.578333
0.577329
0.576285
0.575196
0.574059
0.572861
0.571591
0.570232
0.568765
0.567166
0.565404
0.563443
0.561233
0.558712
0.555801
0.552396
0.548358
0.543501
0.537577
0.530212
0.521052
0.508715
0.495179
0.466553
0.584976
0.584405
0.583891
0.583145
0.58231
0.581498
0.580698
0.579876
0.579019
0.57813
0.577205
0.576236
0.575211
0.57412
0.572945
0.571668
0.570266
0.568708
0.566954
0.564956
0.56265
0.559951
0.556749
0.552894
0.548182
0.542323
0.534986
0.52522
0.51408
0.491917
0.586606
0.586223
0.585887
0.585284
0.584591
0.583938
0.583312
0.58267
0.582004
0.581317
0.580609
0.579874
0.579101
0.578283
0.577408
0.576462
0.575426
0.574277
0.572987
0.571517
0.569816
0.567821
0.565443
0.562565
0.559024
0.554599
0.548991
0.541571
0.532751
0.516152
0.588508
0.588303
0.588137
0.587679
0.587131
0.58664
0.586187
0.585729
0.585254
0.584772
0.584283
0.583783
0.583265
0.582723
0.582151
0.581537
0.58087
0.580133
0.579305
0.578358
0.577255
0.575948
0.574368
0.572428
0.569999
0.566912
0.562915
0.557594
0.550953
0.539047
0.590672
0.590634
0.59063
0.590317
0.589916
0.589585
0.589306
0.589029
0.588746
0.588468
0.588199
0.587935
0.587672
0.587407
0.587136
0.586854
0.586554
0.586223
0.58585
0.585414
0.58489
0.584244
0.583425
0.582367
0.580972
0.579115
0.576581
0.573105
0.568454
0.560407
0.59308
0.593199
0.593345
0.593175
0.592923
0.592751
0.592642
0.592545
0.592453
0.592378
0.592326
0.592295
0.592284
0.592292
0.592318
0.592361
0.592418
0.592482
0.592547
0.592601
0.592628
0.592604
0.592494
0.592251
0.591798
0.591044
0.589807
0.587914
0.585026
0.580051
0.595704
0.595966
0.596251
0.596221
0.596116
0.596101
0.596157
0.596236
0.59633
0.596453
0.596613
0.596809
0.597043
0.597315
0.597628
0.597984
0.598382
0.598821
0.599301
0.599814
0.600353
0.600903
0.60144
0.601931
0.602317
0.60253
0.602412
0.601854
0.600474
0.597827
0.598505
0.598895
0.599304
0.59941
0.599448
0.599584
0.5998
0.600047
0.600319
0.600632
0.600995
0.601408
0.601875
0.602398
0.602982
0.603631
0.604348
0.605137
0.605998
0.606932
0.607935
0.609
0.610112
0.611247
0.61236
0.613399
0.614224
0.614775
0.614641
0.61368
0.601428
0.601931
0.602448
0.602681
0.602858
0.603138
0.603503
0.603908
0.604348
0.604839
0.60539
0.606006
0.606688
0.607443
0.608276
0.609194
0.610202
0.611305
0.612509
0.613817
0.615229
0.616743
0.61835
0.620032
0.621754
0.623473
0.625069
0.62651
0.627364
0.627656
0.60441
0.605006
0.605614
0.605965
0.606273
0.606684
0.607186
0.607735
0.608328
0.608981
0.609704
0.610502
0.611379
0.612341
0.613396
0.614552
0.615815
0.617194
0.618695
0.620323
0.622083
0.623973
0.62599
0.628118
0.630329
0.632582
0.634775
0.636871
0.638433
0.63972
0.607374
0.608046
0.608726
0.609181
0.609608
0.610138
0.61076
0.611436
0.612164
0.612959
0.613832
0.614789
0.615834
0.616974
0.618219
0.619577
0.621056
0.622664
0.624411
0.626302
0.628342
0.630534
0.632872
0.635344
0.637924
0.640571
0.643193
0.645732
0.647799
0.649713
0.610239
0.610967
0.611699
0.612244
0.612775
0.613406
0.614129
0.614912
0.615753
0.616667
0.617665
0.618753
0.619935
0.621222
0.62262
0.62414
0.62579
0.62758
0.629517
0.63161
0.633862
0.636276
0.638847
0.641562
0.644393
0.647296
0.650187
0.652978
0.655362
0.657552
0.612923
0.613687
0.614452
0.615068
0.615685
0.616399
0.617202
0.618068
0.618998
0.620004
0.621098
0.622286
0.623573
0.624969
0.626481
0.628121
0.629895
0.631814
0.633886
0.636118
0.638513
0.641072
0.643789
0.646648
0.649617
0.652646
0.655649
0.658508
0.660987
0.663073
0.615346
0.616128
0.616907
0.617576
0.618259
0.619033
0.619892
0.620817
0.621808
0.622878
0.624037
0.625292
0.626648
0.628115
0.6297
0.631415
0.633266
0.635262
0.637412
0.63972
0.64219
0.644821
0.647601
0.650513
0.65352
0.656562
0.659547
0.662327
0.664703
0.666399
0.617443
0.618225
0.619001
0.619703
0.620429
0.621239
0.62213
0.623086
0.624111
0.625215
0.626407
0.627694
0.629083
0.630581
0.632198
0.633942
0.635821
0.637843
0.640015
0.64234
0.64482
0.647451
0.650221
0.653104
0.65606
0.659022
0.661891
0.664502
0.666675
0.667953
0.619169
0.619934
0.620692
0.621404
0.622149
0.622972
0.623869
0.62483
0.625859
0.626965
0.628158
0.629442
0.630826
0.632317
0.633923
0.635652
0.637512
0.639509
0.641649
0.643934
0.646363
0.648929
0.651616
0.654396
0.657221
0.660016
0.662676
0.66502
0.666859
0.667634
0.620499
0.621233
0.621957
0.62266
0.6234
0.624211
0.625088
0.626027
0.627032
0.62811
0.62927
0.630518
0.631861
0.633305
0.634859
0.63653
0.638324
0.640247
0.642303
0.644493
0.646812
0.649252
0.651791
0.654395
0.657011
0.659554
0.661905
0.663857
0.665206
0.665344
0.621436
0.622127
0.622805
0.623477
0.62419
0.624964
0.625797
0.626688
0.627639
0.628659
0.629755
0.630933
0.632199
0.63356
0.635022
0.636593
0.638277
0.64008
0.642002
0.644044
0.646199
0.648452
0.650779
0.65314
0.655472
0.657677
0.659623
0.66108
0.661864
0.661128
0.622011
0.622645
0.623265
0.623889
0.624551
0.625267
0.626033
0.62685
0.627722
0.628655
0.629657
0.630732
0.631887
0.633128
0.634461
0.63589
0.637422
0.639058
0.6408
0.642644
0.644579
0.64659
0.648644
0.650695
0.652671
0.654463
0.655927
0.656797
0.656956
0.654897
0.622274
0.622842
0.623395
0.623952
0.624545
0.625181
0.625859
0.626579
0.627347
0.628167
0.629047
0.62999
0.631003
0.632089
0.633256
0.634506
0.635842
0.637268
0.638782
0.640378
0.642043
0.643754
0.645476
0.647154
0.648707
0.650012
0.650915
0.651084
0.650566
0.646837
0.622297
0.622791
0.623267
0.623744
0.624249
0.624787
0.625358
0.62596
0.626601
0.627284
0.628016
0.628801
0.629642
0.630546
0.631516
0.632554
0.633659
0.634835
0.636079
0.637382
0.638726
0.640084
0.641414
0.642652
0.643707
0.644434
0.644677
0.644008
0.642752
0.637243
0.622164
0.622581
0.622969
0.62335
0.623752
0.624179
0.624627
0.625096
0.625589
0.626111
0.626669
0.627265
0.627904
0.628588
0.629322
0.630108
0.63095
0.63184
0.632771
0.633733
0.634705
0.635655
0.636535
0.637268
0.637752
0.637817
0.637311
0.635667
0.633555
0.626099
0.621975
0.622309
0.622595
0.622865
0.623149
0.62345
0.623761
0.62408
0.624413
0.624764
0.625134
0.625527
0.625945
0.626391
0.626866
0.627371
0.627906
0.628465
0.629037
0.629607
0.630151
0.630632
0.630992
0.631146
0.630978
0.630289
0.628934
0.626169
0.623058
0.613297
0.621876
0.622084
0.622218
0.622373
0.622556
0.622739
0.622904
0.623051
0.623196
0.623346
0.623503
0.623666
0.623837
0.624017
0.624205
0.624399
0.624596
0.624789
0.624963
0.625101
0.625172
0.62513
0.62491
0.624413
0.623512
0.62197
0.619659
0.615613
0.611391
0.598858
0.622102
0.622051
0.621898
0.621878
0.621932
0.622008
0.622055
0.622048
0.622011
0.62196
0.621894
0.621815
0.621723
0.621614
0.621489
0.621344
0.621173
0.620967
0.620708
0.620372
0.619925
0.619309
0.618448
0.617227
0.615502
0.612995
0.609609
0.604061
0.598763
0.582856
0.622503
0.622151
0.621864
0.6218
0.621775
0.621688
0.621533
0.621328
0.621093
0.620819
0.620498
0.620157
0.619787
0.619363
0.618886
0.618358
0.617767
0.617101
0.616338
0.615457
0.614419
0.61315
0.611568
0.60954
0.606904
0.603323
0.598799
0.591345
0.585417
0.56512
0.546407
0.525907
0.502703
0.477625
0.450969
0.422401
0.391785
0.359483
0.326133
0.292622
0.259912
0.22906
0.201187
0.179524
0.166571
0.161793
0.162006
0.164433
0.167366
0.169687
0.171221
0.173233
0.176445
0.179704
0.18225
0.184132
0.185179
0.185152
0.184429
0.183978
0.571839
0.55377
0.532797
0.510197
0.485751
0.459026
0.429712
0.397899
0.363823
0.32795
0.291165
0.254802
0.220372
0.190956
0.171898
0.163888
0.162788
0.16523
0.168468
0.170607
0.171863
0.174211
0.177794
0.181072
0.183301
0.184871
0.185425
0.184925
0.183893
0.182434
0.578012
0.56133
0.542182
0.520817
0.497035
0.470495
0.441172
0.409411
0.375399
0.339414
0.302322
0.265151
0.229666
0.198568
0.177644
0.168133
0.165875
0.167278
0.169849
0.17119
0.172348
0.174969
0.178991
0.182366
0.1842
0.185633
0.186339
0.186136
0.183916
0.178702
0.588101
0.573707
0.555932
0.5362
0.514033
0.488582
0.459741
0.42776
0.392799
0.355348
0.316438
0.277396
0.240043
0.207244
0.184498
0.173292
0.169792
0.170315
0.17192
0.172562
0.173533
0.176499
0.181019
0.183875
0.185119
0.186919
0.188218
0.188072
0.182689
0.170712
0.593926
0.580864
0.565096
0.547227
0.526738
0.502864
0.475293
0.444079
0.409315
0.371383
0.331235
0.290392
0.250961
0.216078
0.191043
0.17792
0.173246
0.173055
0.174114
0.174742
0.176034
0.179343
0.183426
0.185285
0.186412
0.189109
0.190976
0.189128
0.177899
0.157937
0.598805
0.587337
0.573145
0.556746
0.537574
0.514899
0.488327
0.457761
0.42324
0.385057
0.344057
0.30179
0.26058
0.223799
0.19671
0.181919
0.176272
0.175454
0.17617
0.177008
0.178707
0.182372
0.185569
0.186844
0.188518
0.191855
0.192949
0.186974
0.168712
0.144231
0.60251
0.592379
0.579648
0.564727
0.546969
0.525617
0.500178
0.470377
0.436145
0.397726
0.355924
0.312319
0.269415
0.230823
0.201858
0.185549
0.178993
0.177614
0.178092
0.179093
0.181137
0.184812
0.187539
0.18898
0.191157
0.194288
0.192292
0.18104
0.15719
0.134143
0.60544
0.596495
0.585099
0.571522
0.555097
0.535059
0.510834
0.48198
0.44826
0.409809
0.367361
0.322513
0.277938
0.237518
0.206702
0.188904
0.181439
0.179538
0.179836
0.180995
0.183305
0.186819
0.189609
0.191579
0.193858
0.194934
0.188536
0.172739
0.1479
0.131901
0.607795
0.599883
0.589678
0.577326
0.562145
0.543367
0.520344
0.492497
0.459428
0.421132
0.378231
0.332292
0.286124
0.243892
0.211247
0.191993
0.183643
0.181258
0.181421
0.182756
0.185313
0.188819
0.191821
0.193988
0.19571
0.193661
0.18326
0.165345
0.145818
0.143427
0.60973
0.602718
0.593572
0.582328
0.568302
0.550725
0.528883
0.502067
0.469727
0.431705
0.388494
0.341603
0.293935
0.249934
0.215499
0.194844
0.185643
0.182814
0.182888
0.184414
0.187218
0.190824
0.193946
0.196001
0.19656
0.192
0.179914
0.164321
0.158038
0.176518
0.611352
0.605127
0.596917
0.586672
0.573712
0.557276
0.536587
0.510821
0.479274
0.441626
0.398225
0.350496
0.301411
0.255681
0.219491
0.197485
0.187468
0.18423
0.184259
0.185992
0.189047
0.192775
0.195941
0.197774
0.197408
0.192547
0.182692
0.176353
0.189576
0.227464
0.612737
0.6072
0.599819
0.590476
0.578495
0.563131
0.543557
0.518842
0.48814
0.450958
0.407478
0.359016
0.308588
0.261162
0.223241
0.199927
0.189131
0.185518
0.185543
0.187503
0.190813
0.194685
0.197901
0.19972
0.199552
0.19676
0.194131
0.202387
0.233346
0.282499
0.613939
0.609008
0.602361
0.593829
0.582748
0.568389
0.549882
0.526207
0.496381
0.459738
0.416278
0.367184
0.315484
0.266394
0.22676
0.20218
0.190643
0.186689
0.186749
0.188957
0.192538
0.196593
0.199979
0.202209
0.203415
0.204966
0.21257
0.234502
0.275045
0.326444
0.614991
0.610598
0.604605
0.596805
0.586551
0.57313
0.555642
0.532987
0.504055
0.468009
0.424656
0.37502
0.322114
0.271391
0.230064
0.204249
0.192009
0.187755
0.187888
0.190367
0.194245
0.198549
0.202305
0.205438
0.209095
0.216481
0.233519
0.265149
0.310418
0.357123
0.615923
0.612007
0.606599
0.599462
0.589968
0.577423
0.560904
0.539246
0.511216
0.475813
0.432642
0.382547
0.328497
0.276166
0.233164
0.206143
0.193238
0.188726
0.188968
0.191745
0.195956
0.200611
0.204987
0.209555
0.216488
0.229938
0.254829
0.292724
0.338445
0.378349
0.616754
0.613262
0.608379
0.601845
0.593053
0.581323
0.565728
0.545037
0.517911
0.483188
0.440265
0.389785
0.334648
0.280733
0.236069
0.20787
0.194341
0.189612
0.189995
0.193103
0.197699
0.202832
0.208101
0.21459
0.225279
0.244463
0.275581
0.317072
0.359991
0.392696
0.6175
0.614385
0.609974
0.603988
0.595847
0.584883
0.570163
0.550409
0.524183
0.490167
0.447549
0.396755
0.340584
0.285106
0.23879
0.209437
0.195325
0.190437
0.190974
0.194453
0.199498
0.205252
0.211682
0.220469
0.235102
0.259584
0.295267
0.337698
0.376036
0.401856
0.618169
0.615395
0.611407
0.605922
0.598384
0.588139
0.574251
0.555404
0.530069
0.496783
0.454521
0.403474
0.346317
0.289295
0.241337
0.210851
0.196199
0.191163
0.191923
0.195808
0.201378
0.207906
0.215769
0.22704
0.245644
0.274754
0.313534
0.354693
0.387997
0.408741
0.618769
0.616306
0.612698
0.607669
0.60069
0.591123
0.578029
0.560059
0.535604
0.503063
0.461201
0.409959
0.351862
0.293309
0.243717
0.21212
0.196987
0.191815
0.192847
0.197188
0.203363
0.210843
0.220229
0.234174
0.256613
0.289573
0.329885
0.368569
0.397202
0.413943
0.619308
0.617128
0.613866
0.609251
0.60279
0.59386
0.581526
0.564406
0.540819
0.509034
0.46761
0.416227
0.357231
0.297159
0.245938
0.21325
0.197648
0.192406
0.193758
0.198598
0.205475
0.213978
0.225058
0.24174
0.267757
0.303725
0.344309
0.37995
0.404504
0.418227
0.619796
0.617871
0.614924
0.610686
0.604703
0.596374
0.584767
0.568472
0.545739
0.51472
0.473768
0.422293
0.362436
0.300853
0.248006
0.214245
0.198194
0.192955
0.194662
0.200049
0.207698
0.217336
0.230196
0.249596
0.278874
0.317025
0.35694
0.389433
0.410527
0.4221
0.62024
0.618544
0.615884
0.611991
0.606448
0.598683
0.587774
0.572281
0.55039
0.520142
0.479693
0.42817
0.367487
0.3044
0.24993
0.215109
0.198643
0.193467
0.195566
0.201548
0.210048
0.220901
0.235576
0.257615
0.289793
0.329395
0.368003
0.397562
0.415828
0.425666
0.620634
0.619152
0.616758
0.613181
0.608039
0.600803
0.590564
0.575854
0.554792
0.525319
0.4854
0.433871
0.372395
0.307805
0.251714
0.215848
0.198998
0.193945
0.196473
0.203102
0.212525
0.224642
0.241127
0.265696
0.300399
0.340835
0.377828
0.404749
0.420641
0.428924
0.620976
0.619699
0.617554
0.614267
0.609493
0.60275
0.593154
0.579207
0.558963
0.530269
0.490903
0.439408
0.377169
0.311078
0.253365
0.216476
0.19927
0.194398
0.197389
0.204719
0.215127
0.228517
0.246766
0.273767
0.310647
0.351425
0.386719
0.411228
0.424977
0.431957
0.621264
0.620189
0.61828
0.615259
0.610819
0.604538
0.595557
0.582355
0.56292
0.53501
0.49622
0.444792
0.381815
0.314217
0.254884
0.216953
0.199417
0.194805
0.198303
0.206383
0.217833
0.232483
0.252391
0.281711
0.320566
0.361295
0.394857
0.417135
0.428887
0.434792
0.6215
0.620621
0.618944
0.616169
0.612024
0.606176
0.597787
0.585312
0.566674
0.539551
0.501363
0.450046
0.386363
0.317255
0.256322
0.217486
0.19958
0.195253
0.199279
0.208143
0.220673
0.236573
0.258048
0.289374
0.330082
0.370705
0.402466
0.422529
0.432351
0.437406
0.621691
0.620991
0.619554
0.61701
0.613122
0.607669
0.599849
0.588092
0.570244
0.543894
0.506299
0.455102
0.390723
0.320081
0.25742
0.217428
0.199443
0.195518
0.200191
0.209914
0.223566
0.240699
0.263925
0.297102
0.338756
0.379486
0.409494
0.427323
0.435351
0.439809
0.621849
0.621294
0.620108
0.617798
0.614116
0.609045
0.601772
0.590732
0.573725
0.548223
0.511299
0.460303
0.395341
0.323332
0.259224
0.218079
0.199662
0.195987
0.201244
0.211779
0.226406
0.244359
0.26931
0.305889
0.348927
0.388273
0.416078
0.43154
0.437932
0.441797
0.621998
0.621541
0.620598
0.618578
0.615071
0.610136
0.603325
0.592839
0.576467
0.551621
0.515165
0.464165
0.398428
0.324857
0.2593
0.217453
0.199305
0.196237
0.202245
0.213733
0.22938
0.247857
0.272802
0.31098
0.356283
0.395633
0.42155
0.434859
0.44003
0.443825
0.622137
0.621762
0.621024
0.619415
0.616422
0.611891
0.605641
0.596028
0.580761
0.557128
0.521836
0.471408
0.405048
0.329709
0.261646
0.217836
0.199117
0.196477
0.203382
0.216195
0.233494
0.255029
0.284981
0.324797
0.369221
0.405788
0.428008
0.438167
0.441999
0.444635
0.29868
0.273253
0.269241
0.290921
0.337218
0.378065
0.396637
0.383577
0.364242
0.350084
0.340039
0.333497
0.331194
0.332155
0.335616
0.341059
0.348005
0.356014
0.364724
0.373847
0.383201
0.392567
0.401993
0.411162
0.420479
0.429486
0.439468
0.449969
0.462631
0.462305
0.276635
0.247335
0.245662
0.281084
0.346527
0.400151
0.41728
0.40092
0.373416
0.352464
0.338079
0.326951
0.322023
0.321407
0.323785
0.328547
0.335166
0.343131
0.351992
0.361379
0.371044
0.380733
0.390402
0.399809
0.40907
0.417809
0.426346
0.433659
0.442469
0.447009
0.26779
0.243073
0.240334
0.268832
0.3368
0.402601
0.427438
0.415458
0.382528
0.353594
0.334619
0.321782
0.312066
0.308534
0.309063
0.312898
0.319029
0.326815
0.335773
0.345486
0.355624
0.365907
0.376177
0.386258
0.396089
0.405475
0.414569
0.422835
0.431688
0.440568
0.27666
0.258221
0.248705
0.264292
0.316159
0.374348
0.412122
0.416554
0.388413
0.35199
0.325256
0.308423
0.298283
0.293417
0.291411
0.294502
0.300888
0.309229
0.318923
0.32955
0.340737
0.352157
0.363592
0.374886
0.385958
0.396695
0.407168
0.417163
0.426767
0.43594
0.288276
0.278174
0.26137
0.262207
0.295708
0.339249
0.369094
0.378852
0.372143
0.347361
0.316182
0.290491
0.276111
0.270251
0.269431
0.271095
0.277586
0.286632
0.29751
0.309349
0.321819
0.334589
0.347383
0.360011
0.372351
0.384292
0.395787
0.406774
0.417128
0.426864
0.295072
0.291608
0.271548
0.25964
0.27396
0.29978
0.320942
0.331272
0.329752
0.317325
0.296555
0.27191
0.251159
0.239811
0.236917
0.240125
0.247121
0.256167
0.268748
0.282391
0.296652
0.31103
0.325384
0.339583
0.353444
0.366829
0.379658
0.391922
0.403558
0.414604
0.297774
0.301595
0.274587
0.250776
0.250844
0.262034
0.273075
0.279485
0.278957
0.271348
0.258095
0.241224
0.22284
0.207474
0.198507
0.199288
0.20694
0.217427
0.229571
0.245669
0.263451
0.28075
0.297437
0.313743
0.329631
0.344958
0.359624
0.373613
0.386858
0.399405
0.289595
0.302362
0.265812
0.235064
0.226015
0.225416
0.226339
0.226457
0.223686
0.216877
0.206433
0.193991
0.180974
0.16842
0.158069
0.153452
0.157086
0.168081
0.1828
0.199245
0.218313
0.239867
0.260773
0.280464
0.299279
0.317259
0.334329
0.350493
0.365703
0.380063
0.256356
0.276491
0.242127
0.212916
0.198319
0.188176
0.179572
0.171803
0.163473
0.153725
0.142813
0.131678
0.121524
0.11316
0.106706
0.102717
0.103366
0.110158
0.124248
0.14326
0.163755
0.186586
0.211745
0.236216
0.259354
0.281097
0.301526
0.320676
0.338517
0.355244
0.201327
0.233679
0.208588
0.184302
0.166559
0.149463
0.132798
0.116757
0.10088
0.0851041
0.0700317
0.0566762
0.0460659
0.0390722
0.0359227
0.036088
0.0392604
0.0460766
0.0581296
0.0757472
0.0983635
0.124116
0.150828
0.179022
0.207292
0.234002
0.258923
0.282141
0.303584
0.323484
0.14338
0.181772
0.168137
0.150355
0.13169
0.110155
0.0870999
0.0632539
0.0390976
0.0154831
-0.00643019
-0.0253326
-0.0399518
-0.0492949
-0.0527544
-0.050513
-0.0435548
-0.0328315
-0.018582
-0.000252953
0.0225589
0.049419
0.0795911
0.110489
0.142041
0.174243
0.204591
0.232891
0.259007
0.283131
0.0924805
0.131833
0.127424
0.114956
0.096475
0.0722945
0.0444495
0.0139551
-0.0179734
-0.0497358
-0.0796244
-0.10598
-0.127283
-0.142275
-0.150018
-0.15003
-0.142783
-0.129499
-0.111502
-0.0896583
-0.0643662
-0.0355671
-0.00362376
0.0307342
0.0668897
0.103073
0.138411
0.172243
0.203789
0.233076
0.0558369
0.0918578
0.0924441
0.0832043
0.0650517
0.0391968
0.00784999
-0.0277855
-0.0662095
-0.10532
-0.142925
-0.17702
-0.205846
-0.228009
-0.242497
-0.248495
-0.245572
-0.234249
-0.215714
-0.191424
-0.162751
-0.130612
-0.0955829
-0.0580025
-0.0185888
0.0217089
0.0619574
0.101186
0.138371
0.173396
0.0370649
0.0672275
0.0691548
0.0604767
0.0423239
0.0153192
-0.0187201
-0.0580866
-0.101476
-0.146607
-0.190923
-0.232059
-0.267972
-0.297103
-0.318476
-0.331544
-0.335735
-0.330565
-0.316299
-0.293899
-0.264839
-0.23075
-0.192955
-0.152356
-0.109675
-0.065616
-0.0210772
0.0230194
0.0655746
0.106256
0.038794
0.0586751
0.0598684
0.0498393
0.0312333
0.00399513
-0.0314095
-0.0736284
-0.12047
-0.169915
-0.21942
-0.266388
-0.308512
-0.343963
-0.371525
-0.3907
-0.401509
-0.403693
-0.396598
-0.380143
-0.355035
-0.322692
-0.284847
-0.243019
-0.198331
-0.151671
-0.103921
-0.0559613
-0.0089053
0.0366502
0.0582367
0.0671571
0.065075
0.0525045
0.0323007
0.00422239
-0.0315201
-0.0744753
-0.122677
-0.174151
-0.226551
-0.277357
-0.324184
-0.365008
-0.398321
-0.423286
-0.439704
-0.447753
-0.447387
-0.437923
-0.419164
-0.391747
-0.357086
-0.31688
-0.272605
-0.225419
-0.176316
-0.126249
-0.0762687
-0.0274178
0.0911169
0.090381
0.0835992
0.0679501
0.0457486
0.0165209
-0.0192281
-0.0612252
-0.108961
-0.160621
-0.213956
-0.266421
-0.315567
-0.359396
-0.396631
-0.426535
-0.448524
-0.462118
-0.466898
-0.463488
-0.45069
-0.428903
-0.399046
-0.362528
-0.320857
-0.275315
-0.226977
-0.176886
-0.12604
-0.0759047
0.132019
0.12369
0.112062
0.093474
0.0696484
0.0403245
0.00533341
-0.0352234
-0.0809602
-0.130753
-0.182819
-0.234944
-0.284793
-0.330275
-0.369782
-0.40232
-0.427442
-0.444795
-0.454046
-0.454745
-0.446769
-0.429964
-0.405031
-0.37302
-0.335239
-0.292884
-0.247004
-0.198701
-0.148884
-0.0992812
0.17438
0.161265
0.145705
0.124856
0.0998503
0.0708017
0.0374779
-0.000286072
-0.042388
-0.0882057
-0.13653
-0.185659
-0.23361
-0.278382
-0.31823
-0.351977
-0.379045
-0.398939
-0.4108
-0.414019
-0.408917
-0.395535
-0.374485
-0.346534