/*--------------------------------*- C++ -*----------------------------------*\
  =========                 |
  \\      /  F ield         | OpenFOAM: The Open Source CFD Toolbox
   \\    /   O peration     | Website:  https://openfoam.org
    \\  /    A nd           | Version:  11
     \\/     M anipulation  |
\*---------------------------------------------------------------------------*/
FoamFile
{
    format      ascii;
    class       surfaceScalarField;
    location    "1";
    object      phi;
}
// * * * * * * * * * * * * * * * * * * * * * * * * * * * * * * * * * * * * * //

dimensions      [0 3 -1 0 0 0 0];

internalField   nonuniform List<scalar> 
24840
(
1.53198e-05
1.34922e-08
1.53022e-05
1.76515e-08
1.52861e-05
1.60913e-08
1.52709e-05
1.51901e-08
1.52563e-05
1.45596e-08
1.52427e-05
1.36862e-08
1.52302e-05
1.24606e-08
1.52193e-05
1.09445e-08
1.52101e-05
9.11194e-09
1.52034e-05
6.73965e-09
1.51995e-05
3.8991e-09
1.51991e-05
4.3205e-10
1.5203e-05
-3.96843e-09
1.52125e-05
-9.46697e-09
1.52287e-05
-1.61902e-08
1.52527e-05
-2.40504e-08
1.52866e-05
-3.38322e-08
1.53318e-05
-4.52294e-08
1.53885e-05
-5.67155e-08
1.54591e-05
-7.05345e-08
1.55485e-05
-8.94382e-08
1.5662e-05
-1.13499e-07
1.58059e-05
-1.43878e-07
1.59881e-05
-1.82248e-07
1.62182e-05
-2.30046e-07
1.65064e-05
-2.88243e-07
1.68658e-05
-3.59355e-07
1.73049e-05
-4.39118e-07
1.78635e-05
-5.58579e-07
-5.60645e-07
1.84241e-05
1.53395e-05
7.34281e-09
1.53437e-05
1.34692e-08
1.53477e-05
1.2053e-08
1.5352e-05
1.09409e-08
1.53567e-05
9.76376e-09
1.53624e-05
8.03301e-09
1.53691e-05
5.71722e-09
1.53772e-05
2.8934e-09
1.53868e-05
-5.23135e-10
1.53984e-05
-4.85024e-09
1.54123e-05
-9.98363e-09
1.54289e-05
-1.61809e-08
1.54487e-05
-2.37217e-08
1.5472e-05
-3.28503e-08
1.54998e-05
-4.39602e-08
1.55329e-05
-5.71746e-08
1.55707e-05
-7.1573e-08
1.5614e-05
-8.85584e-08
1.56714e-05
-1.14132e-07
1.57501e-05
-1.49193e-07
1.58512e-05
-1.90541e-07
1.59762e-05
-2.38551e-07
1.61278e-05
-2.95419e-07
1.63098e-05
-3.64298e-07
1.65288e-05
-4.4902e-07
1.67941e-05
-5.53534e-07
1.71179e-05
-6.83173e-07
1.75146e-05
-8.35793e-07
1.80024e-05
-1.04635e-06
-1.16422e-06
1.86059e-05
1.53363e-05
4.41533e-09
1.53401e-05
9.64507e-09
1.53432e-05
8.9849e-09
1.53469e-05
7.22424e-09
1.53513e-05
5.37402e-09
1.53565e-05
2.82316e-09
1.53627e-05
-5.05584e-10
1.53702e-05
-4.58681e-09
1.53792e-05
-9.58506e-09
1.53901e-05
-1.57118e-08
1.54032e-05
-2.31053e-08
1.54191e-05
-3.20717e-08
1.54384e-05
-4.30024e-08
1.54618e-05
-5.62975e-08
1.54903e-05
-7.24121e-08
1.55247e-05
-9.16296e-08
1.55669e-05
-1.13738e-07
1.56184e-05
-1.40037e-07
1.56793e-05
-1.75062e-07
1.57516e-05
-2.21438e-07
1.58399e-05
-2.78865e-07
1.59499e-05
-3.48521e-07
1.60875e-05
-4.33117e-07
1.62593e-05
-5.36094e-07
1.64722e-05
-6.61872e-07
1.67343e-05
-8.15591e-07
1.7056e-05
-1.00495e-06
1.745e-05
-1.22976e-06
1.79335e-05
-1.52984e-06
-1.76598e-06
1.85352e-05
1.5335e-05
2.70775e-09
1.53384e-05
6.33389e-09
1.53414e-05
5.95802e-09
1.53448e-05
3.80857e-09
1.53489e-05
1.24184e-09
1.53539e-05
-2.18001e-09
1.53599e-05
-6.48719e-09
1.53672e-05
-1.1841e-08
1.53759e-05
-1.83555e-08
1.53865e-05
-2.62575e-08
1.53992e-05
-3.58139e-08
1.54145e-05
-4.74045e-08
1.54331e-05
-6.15376e-08
1.54555e-05
-7.8772e-08
1.54828e-05
-9.96983e-08
1.5516e-05
-1.24843e-07
1.55569e-05
-1.54656e-07
1.56076e-05
-1.90713e-07
1.56692e-05
-2.36632e-07
1.57431e-05
-2.9531e-07
1.58322e-05
-3.68023e-07
1.59408e-05
-4.57079e-07
1.60739e-05
-5.66263e-07
1.6238e-05
-7.00152e-07
1.64405e-05
-8.64358e-07
1.66903e-05
-1.06543e-06
1.69984e-05
-1.31303e-06
1.73784e-05
-1.60977e-06
1.78451e-05
-1.99656e-06
-2.35412e-06
1.84333e-05
1.53344e-05
1.59929e-09
1.5337e-05
3.73916e-09
1.53398e-05
3.17541e-09
1.5343e-05
6.51338e-10
1.53469e-05
-2.70586e-09
1.53517e-05
-6.95647e-09
1.53575e-05
-1.22618e-08
1.53644e-05
-1.88053e-08
1.53728e-05
-2.67466e-08
1.53829e-05
-3.63483e-08
1.53951e-05
-4.79751e-08
1.54098e-05
-6.21177e-08
1.54276e-05
-7.93882e-08
1.54493e-05
-1.00438e-07
1.54756e-05
-1.25947e-07
1.55074e-05
-1.56667e-07
1.55463e-05
-1.93572e-07
1.55942e-05
-2.3858e-07
1.56525e-05
-2.95014e-07
1.57233e-05
-3.6607e-07
1.58094e-05
-4.54083e-07
1.59144e-05
-5.62106e-07
1.60428e-05
-6.94634e-07
1.62e-05
-8.57345e-07
1.63929e-05
-1.0573e-06
1.66303e-05
-1.30285e-06
1.6923e-05
-1.60567e-06
1.72851e-05
-1.97187e-06
1.77304e-05
-2.44188e-06
-2.91849e-06
1.82948e-05
1.53341e-05
8.19666e-10
1.53362e-05
1.68758e-09
1.53387e-05
5.99164e-10
1.53417e-05
-2.33591e-09
1.53454e-05
-6.41246e-09
1.535e-05
-1.14801e-08
1.53554e-05
-1.7742e-08
1.5362e-05
-2.54087e-08
1.537e-05
-3.47006e-08
1.53796e-05
-4.59242e-08
1.53911e-05
-5.95096e-08
1.5405e-05
-7.60274e-08
1.54218e-05
-9.61847e-08
1.54421e-05
-1.20773e-07
1.54669e-05
-1.5066e-07
1.5497e-05
-1.86849e-07
1.55341e-05
-2.30646e-07
1.55797e-05
-2.84124e-07
1.56351e-05
-3.50423e-07
1.5702e-05
-4.32957e-07
1.57828e-05
-5.34945e-07
1.58811e-05
-6.60356e-07
1.6001e-05
-8.14575e-07
1.6148e-05
-1.00434e-06
1.63287e-05
-1.23797e-06
1.65512e-05
-1.52542e-06
1.68258e-05
-1.88027e-06
1.71663e-05
-2.31235e-06
1.75857e-05
-2.86128e-06
-3.45369e-06
1.81209e-05
1.53339e-05
2.20839e-10
1.53356e-05
1.41482e-11
1.53379e-05
-1.71115e-09
1.53407e-05
-5.13169e-09
1.53441e-05
-9.85027e-09
1.53484e-05
-1.57055e-08
1.53535e-05
-2.28736e-08
1.53597e-05
-3.15958e-08
1.53671e-05
-4.21432e-08
1.53761e-05
-5.48716e-08
1.53868e-05
-7.02741e-08
1.53998e-05
-8.90004e-08
1.54155e-05
-1.11848e-07
1.54344e-05
-1.39728e-07
1.54574e-05
-1.7366e-07
1.54854e-05
-2.14853e-07
1.55197e-05
-2.64877e-07
1.55615e-05
-3.25998e-07
1.56125e-05
-4.01388e-07
1.56743e-05
-4.94707e-07
1.57491e-05
-6.09833e-07
1.58402e-05
-7.51458e-07
1.59514e-05
-9.25694e-07
1.60872e-05
-1.14022e-06
1.62539e-05
-1.40459e-06
1.64589e-05
-1.73041e-06
1.67118e-05
-2.13317e-06
1.70259e-05
-2.62651e-06
1.74138e-05
-3.24919e-06
-3.95285e-06
1.7913e-05
1.53338e-05
-2.79821e-10
1.53352e-05
-1.36351e-09
1.53373e-05
-3.75854e-09
1.53398e-05
-7.70167e-09
1.5343e-05
-1.30229e-08
1.53469e-05
-1.96145e-08
1.53517e-05
-2.76263e-08
1.53574e-05
-3.73209e-08
1.53643e-05
-4.90147e-08
1.53725e-05
-6.31156e-08
1.53824e-05
-8.01775e-08
1.53943e-05
-1.0092e-07
1.54087e-05
-1.26217e-07
1.5426e-05
-1.57077e-07
1.5447e-05
-1.94659e-07
1.54726e-05
-2.40367e-07
1.55037e-05
-2.9601e-07
1.55417e-05
-3.64035e-07
1.5588e-05
-4.47682e-07
1.56441e-05
-5.50807e-07
1.57121e-05
-6.77785e-07
1.57946e-05
-8.3395e-07
1.5895e-05
-1.02613e-06
1.60176e-05
-1.26287e-06
1.61679e-05
-1.55487e-06
1.63527e-05
-1.91522e-06
1.65808e-05
-2.36122e-06
1.68645e-05
-2.91022e-06
1.72156e-05
-3.60025e-06
-4.4087e-06
1.76714e-05
1.53337e-05
-6.96652e-10
1.53349e-05
-2.52339e-09
1.53367e-05
-5.56238e-09
1.5339e-05
-1.00383e-08
1.5342e-05
-1.59258e-08
1.53455e-05
-2.3186e-08
1.53499e-05
-3.19628e-08
1.53551e-05
-4.25338e-08
1.53613e-05
-5.52551e-08
1.53688e-05
-7.05824e-08
1.53777e-05
-8.91212e-08
1.53885e-05
-1.11651e-07
1.54014e-05
-1.39119e-07
1.54169e-05
-1.72633e-07
1.54357e-05
-2.13479e-07
1.54586e-05
-2.63211e-07
1.54864e-05
-3.238e-07
1.55202e-05
-3.97838e-07
1.55612e-05
-4.88683e-07
1.56108e-05
-6.00418e-07
1.56708e-05
-7.3785e-07
1.57437e-05
-9.06849e-07
1.58324e-05
-1.11481e-06
1.59406e-05
-1.37102e-06
1.60728e-05
-1.68713e-06
1.62352e-05
-2.07759e-06
1.64353e-05
-2.56135e-06
1.66844e-05
-3.15931e-06
1.69931e-05
-3.90891e-06
-4.81326e-06
1.73977e-05
1.53337e-05
-1.03884e-09
1.53347e-05
-3.52009e-09
1.53363e-05
-7.15019e-09
1.53384e-05
-1.21398e-08
1.5341e-05
-1.85473e-08
1.53442e-05
-2.64002e-08
1.53481e-05
-3.58532e-08
1.53527e-05
-4.7195e-08
1.53583e-05
-6.08124e-08
1.53649e-05
-7.72036e-08
1.53728e-05
-9.70222e-08
1.53823e-05
-1.21102e-07
1.53936e-05
-1.50456e-07
1.54072e-05
-1.86264e-07
1.54237e-05
-2.2991e-07
1.54435e-05
-2.83072e-07
1.54676e-05
-3.47868e-07
1.54968e-05
-4.2703e-07
1.55321e-05
-5.2404e-07
1.55749e-05
-6.43165e-07
1.56266e-05
-7.89532e-07
1.56892e-05
-9.69423e-07
1.57651e-05
-1.19072e-06
1.58573e-05
-1.4633e-06
1.59698e-05
-1.79964e-06
1.61076e-05
-2.2153e-06
1.62769e-05
-2.73072e-06
1.64876e-05
-3.36994e-06
1.67485e-05
-4.16987e-06
-5.15848e-06
1.70937e-05
1.53336e-05
-1.32631e-09
1.53345e-05
-4.38156e-09
1.53359e-05
-8.54023e-09
1.53377e-05
-1.40036e-08
1.53401e-05
-2.08778e-08
1.53429e-05
-2.92434e-08
1.53463e-05
-3.92743e-08
1.53504e-05
-5.12704e-08
1.53552e-05
-6.5643e-08
1.5361e-05
-8.2926e-08
1.53677e-05
-1.03813e-07
1.53758e-05
-1.29183e-07
1.53855e-05
-1.601e-07
1.5397e-05
-1.97812e-07
1.54109e-05
-2.43787e-07
1.54276e-05
-2.99796e-07
1.54478e-05
-3.68057e-07
1.54722e-05
-4.51403e-07
1.55016e-05
-5.53426e-07
1.5537e-05
-6.78561e-07
1.55796e-05
-8.3219e-07
1.56311e-05
-1.02092e-06
1.56934e-05
-1.25297e-06
1.57687e-05
-1.53867e-06
1.58602e-05
-1.89108e-06
1.59715e-05
-2.32664e-06
1.61077e-05
-2.86694e-06
1.62765e-05
-3.5387e-06
1.64849e-05
-4.37824e-06
-5.43644e-06
1.67628e-05
1.53336e-05
-1.57201e-09
1.53343e-05
-5.12495e-09
1.53355e-05
-9.74859e-09
1.53372e-05
-1.56332e-08
1.53392e-05
-2.29116e-08
1.53417e-05
-3.17045e-08
1.53446e-05
-4.22078e-08
1.5348e-05
-5.47333e-08
1.53521e-05
-6.97107e-08
1.53569e-05
-8.77018e-08
1.53625e-05
-1.09433e-07
1.53691e-05
-1.3582e-07
1.5377e-05
-1.6797e-07
1.53864e-05
-2.07181e-07
1.53976e-05
-2.54977e-07
1.5411e-05
-3.13196e-07
1.54271e-05
-3.84133e-07
1.54464e-05
-4.70701e-07
1.54695e-05
-5.76581e-07
1.54973e-05
-7.06327e-07
1.55306e-05
-8.65493e-07
1.55705e-05
-1.06088e-06
1.56185e-05
-1.30095e-06
1.56761e-05
-1.59629e-06
1.57454e-05
-1.96036e-06
1.5829e-05
-2.41017e-06
1.59301e-05
-2.96806e-06
1.60542e-05
-3.66278e-06
1.62058e-05
-4.52987e-06
-5.64002e-06
1.64094e-05
1.53335e-05
-1.78324e-09
1.53342e-05
-5.76453e-09
1.53352e-05
-1.07895e-08
1.53366e-05
-1.70342e-08
1.53384e-05
-2.46463e-08
1.53404e-05
-3.37761e-08
1.53429e-05
-4.46408e-08
1.53457e-05
-5.75636e-08
1.5349e-05
-7.29878e-08
1.53528e-05
-9.14959e-08
1.53572e-05
-1.13839e-07
1.53623e-05
-1.40959e-07
1.53683e-05
-1.73993e-07
1.53754e-05
-2.14276e-07
1.53838e-05
-2.63371e-07
1.53938e-05
-3.2316e-07
1.54056e-05
-3.95979e-07
1.54197e-05
-4.84792e-07
1.54365e-05
-5.9333e-07
1.54564e-05
-7.26222e-07
1.548e-05
-8.89117e-07
1.5508e-05
-1.08893e-06
1.55413e-05
-1.3342e-06
1.55806e-05
-1.63561e-06
1.5627e-05
-2.00677e-06
1.56818e-05
-2.46494e-06
1.57465e-05
-3.03275e-06
1.58239e-05
-3.74019e-06
1.59156e-05
-4.6216e-06
-5.76338e-06
1.6039e-05
1.53335e-05
-1.96488e-09
1.53341e-05
-6.31239e-09
1.53349e-05
-1.16756e-08
1.53361e-05
-1.82141e-08
1.53376e-05
-2.60828e-08
1.53392e-05
-3.54545e-08
1.53412e-05
-4.65652e-08
1.53433e-05
-5.97482e-08
1.53458e-05
-7.54557e-08
1.53486e-05
-9.42832e-08
1.53518e-05
-1.16998e-07
1.53554e-05
-1.4456e-07
1.53595e-05
-1.78123e-07
1.53643e-05
-2.19041e-07
1.53698e-05
-2.68899e-07
1.53762e-05
-3.29596e-07
1.53837e-05
-4.03489e-07
1.53925e-05
-4.93557e-07
1.54027e-05
-6.0355e-07
1.54146e-05
-7.38115e-07
1.54284e-05
-9.02919e-07
1.54444e-05
-1.10487e-06
1.54626e-05
-1.35247e-06
1.54834e-05
-1.65633e-06
1.55065e-05
-2.02995e-06
1.55321e-05
-2.49046e-06
1.55596e-05
-3.06032e-06
1.55893e-05
-3.76983e-06
1.56193e-05
-4.65161e-06
-5.80264e-06
1.56585e-05
1.53335e-05
-2.12084e-09
1.5334e-05
-6.77931e-09
1.53347e-05
-1.24195e-08
1.53357e-05
-1.91824e-08
1.53368e-05
-2.72259e-08
1.53381e-05
-3.67405e-08
1.53395e-05
-4.79787e-08
1.5341e-05
-6.12813e-08
1.53427e-05
-7.71044e-08
1.53445e-05
-9.60499e-08
1.53464e-05
-1.18893e-07
1.53484e-05
-1.466e-07
1.53506e-05
-1.80329e-07
1.5353e-05
-2.2144e-07
1.53556e-05
-2.71519e-07
1.53585e-05
-3.32464e-07
1.53616e-05
-4.06624e-07
1.5365e-05
-4.96962e-07
1.53687e-05
-6.07206e-07
1.53725e-05
-7.41965e-07
1.53765e-05
-9.06846e-07
1.53802e-05
-1.10865e-06
1.53835e-05
-1.35573e-06
1.53856e-05
-1.65843e-06
1.53855e-05
-2.02989e-06
1.53819e-05
-2.48679e-06
1.53724e-05
-3.05083e-06
1.53543e-05
-3.75172e-06
1.53222e-05
-4.6196e-06
-5.75638e-06
1.5276e-05
1.53335e-05
-2.25474e-09
1.53339e-05
-7.17576e-09
1.53345e-05
-1.30342e-08
1.53352e-05
-1.99505e-08
1.53361e-05
-2.80832e-08
1.5337e-05
-3.7639e-08
1.53379e-05
-4.88842e-08
1.53388e-05
-6.21638e-08
1.53396e-05
-7.7933e-08
1.53404e-05
-9.67934e-08
1.5341e-05
-1.19519e-07
1.53415e-05
-1.47073e-07
1.53417e-05
-1.80606e-07
1.53418e-05
-2.21465e-07
1.53415e-05
-2.71224e-07
1.53408e-05
-3.31758e-07
1.53395e-05
-4.05384e-07
1.53376e-05
-4.9502e-07
1.53347e-05
-6.04328e-07
1.53306e-05
-7.37822e-07
1.53247e-05
-9.00977e-07
1.53164e-05
-1.1004e-06
1.53048e-05
-1.34413e-06
1.52885e-05
-1.64214e-06
1.52656e-05
-2.00696e-06
1.52333e-05
-2.45447e-06
1.51876e-05
-3.00508e-06
1.51228e-05
-3.68697e-06
1.50302e-05
-4.52703e-06
-5.62611e-06
1.49e-05
1.53334e-05
-2.37041e-09
1.53338e-05
-7.51296e-09
1.53343e-05
-1.35346e-08
1.53349e-05
-2.05321e-08
1.53354e-05
-2.86657e-08
1.5336e-05
-3.81589e-08
1.53364e-05
-4.92902e-08
1.53366e-05
-6.2404e-08
1.53366e-05
-7.79494e-08
1.53364e-05
-9.65219e-08
1.53357e-05
-1.18887e-07
1.53346e-05
-1.45991e-07
1.5333e-05
-1.78965e-07
1.53307e-05
-2.19132e-07
1.53275e-05
-2.68035e-07
1.53232e-05
-3.27511e-07
1.53177e-05
-3.99824e-07
1.53105e-05
-4.87812e-07
1.53012e-05
-5.95027e-07
1.52892e-05
-7.25833e-07
1.52737e-05
-8.855e-07
1.52536e-05
-1.08035e-06
1.52276e-05
-1.31804e-06
1.51934e-05
-1.60797e-06
1.51483e-05
-1.96189e-06
1.50884e-05
-2.39456e-06
1.5008e-05
-2.92463e-06
1.48988e-05
-3.57783e-06
1.47489e-05
-4.37712e-06
-5.41645e-06
1.45393e-05
1.53334e-05
-2.47224e-09
1.53337e-05
-7.80391e-09
1.53341e-05
-1.39377e-08
1.53345e-05
-2.09435e-08
1.53349e-05
-2.89872e-08
1.5335e-05
-3.83135e-08
1.53349e-05
-4.92106e-08
1.53345e-05
-6.20166e-08
1.53338e-05
-7.71699e-08
1.53325e-05
-9.52545e-08
1.53306e-05
-1.17018e-07
1.5328e-05
-1.43381e-07
1.53245e-05
-1.75442e-07
1.53198e-05
-2.14484e-07
1.53138e-05
-2.62007e-07
1.53061e-05
-3.19796e-07
1.52963e-05
-3.90037e-07
1.5284e-05
-4.75462e-07
1.52684e-05
-5.7947e-07
1.52488e-05
-7.0622e-07
1.5224e-05
-8.60712e-07
1.51926e-05
-1.04891e-06
1.51525e-05
-1.27798e-06
1.51012e-05
-1.55667e-06
1.50351e-05
-1.89574e-06
1.49491e-05
-2.30859e-06
1.48361e-05
-2.8117e-06
1.46859e-05
-3.42761e-06
1.44836e-05
-4.17476e-06
-5.13506e-06
1.42022e-05
1.53334e-05
-2.56563e-09
1.53337e-05
-8.06467e-09
1.5334e-05
-1.4264e-08
1.53343e-05
-2.12036e-08
1.53343e-05
-2.90646e-08
1.53342e-05
-3.812e-08
1.53336e-05
-4.86646e-08
1.53326e-05
-6.10235e-08
1.53311e-05
-7.56199e-08
1.53288e-05
-9.30213e-08
1.53258e-05
-1.1395e-07
1.53217e-05
-1.39288e-07
1.53163e-05
-1.70089e-07
1.53094e-05
-2.07588e-07
1.53006e-05
-2.53225e-07
1.52896e-05
-3.08719e-07
1.52757e-05
-3.76162e-07
1.52584e-05
-4.5815e-07
1.52368e-05
-5.57892e-07
1.52099e-05
-6.79291e-07
1.51762e-05
-8.27016e-07
1.51339e-05
-1.00661e-06
1.50806e-05
-1.22467e-06
1.50131e-05
-1.48918e-06
1.49272e-05
-1.80983e-06
1.4817e-05
-2.19843e-06
1.46744e-05
-2.66907e-06
1.44872e-05
-3.2405e-06
1.42388e-05
-3.92632e-06
-4.79227e-06
1.3896e-05
1.53334e-05
-2.65764e-09
1.53337e-05
-8.31598e-09
1.53339e-05
-1.45382e-08
1.53341e-05
-2.13335e-08
1.53339e-05
-2.89169e-08
1.53334e-05
-3.75998e-08
1.53324e-05
-4.76766e-08
1.53309e-05
-5.94519e-08
1.53286e-05
-7.33315e-08
1.53254e-05
-8.98627e-08
1.53212e-05
-1.09732e-07
1.53157e-05
-1.33773e-07
1.53086e-05
-1.62978e-07
1.52995e-05
-1.98524e-07
1.52881e-05
-2.41791e-07
1.52738e-05
-2.94422e-07
1.5256e-05
-3.58396e-07
1.5234e-05
-4.36139e-07
1.52067e-05
-5.30621e-07
1.51729e-05
-6.45443e-07
1.51307e-05
-7.84897e-07
1.50782e-05
-9.54056e-07
1.50124e-05
-1.15892e-06
1.49299e-05
-1.40662e-06
1.48257e-05
-1.70569e-06
1.46936e-05
-2.06629e-06
1.45245e-05
-2.49995e-06
1.43053e-05
-3.02133e-06
1.40182e-05
-3.63917e-06
-4.40038e-06
1.36263e-05
1.53334e-05
-2.75801e-09
1.53337e-05
-8.58592e-09
1.5334e-05
-1.47905e-08
1.5334e-05
-2.13553e-08
1.53336e-05
-2.85636e-08
1.53328e-05
-3.67779e-08
1.53314e-05
-4.62779e-08
1.53293e-05
-5.7338e-08
1.53263e-05
-7.03464e-08
1.53223e-05
-8.58262e-08
1.5317e-05
-1.04421e-07
1.53101e-05
-1.26906e-07
1.53013e-05
-1.54207e-07
1.52902e-05
-1.87424e-07
1.52763e-05
-2.27862e-07
1.52589e-05
-2.77078e-07
1.52375e-05
-3.36933e-07
1.5211e-05
-4.09666e-07
1.51784e-05
-4.97979e-07
1.5138e-05
-6.05121e-07
1.50881e-05
-7.34953e-07
1.50261e-05
-8.92027e-07
1.49488e-05
-1.08169e-06
1.48525e-05
-1.31024e-06
1.47318e-05
-1.58503e-06
1.45801e-05
-1.91456e-06
1.43879e-05
-2.30781e-06
1.41419e-05
-2.77532e-06
1.38241e-05
-3.32131e-06
-3.97276e-06
1.33964e-05
1.53335e-05
-2.88149e-09
1.53338e-05
-8.91371e-09
1.5334e-05
-1.50559e-08
1.5334e-05
-2.129e-08
1.53334e-05
-2.80299e-08
1.53324e-05
-3.56884e-08
1.53306e-05
-4.45032e-08
1.5328e-05
-5.47178e-08
1.53243e-05
-6.67096e-08
1.53195e-05
-8.09743e-08
1.53132e-05
-9.80979e-08
1.5305e-05
-1.18781e-07
1.52947e-05
-1.4387e-07
1.52817e-05
-1.7439e-07
1.52654e-05
-2.11576e-07
1.52452e-05
-2.56897e-07
1.52203e-05
-3.12068e-07
1.51898e-05
-3.79106e-07
1.51522e-05
-4.60404e-07
1.51059e-05
-5.58828e-07
1.50487e-05
-6.77781e-07
1.4978e-05
-8.21273e-07
1.48903e-05
-9.93987e-07
1.47814e-05
-1.20137e-06
1.4646e-05
-1.44965e-06
1.44772e-05
-1.74573e-06
1.42656e-05
-2.09625e-06
1.39981e-05
-2.50776e-06
1.36575e-05
-2.98075e-06
-3.52275e-06
1.32075e-05
1.53335e-05
-3.05281e-09
1.53339e-05
-9.35277e-09
1.53343e-05
-1.5376e-08
1.53341e-05
-2.11674e-08
1.53335e-05
-2.73432e-08
1.53321e-05
-3.43549e-08
1.533e-05
-4.23822e-08
1.53269e-05
-5.16358e-08
1.53227e-05
-6.24783e-08
1.53171e-05
-7.53686e-08
1.53098e-05
-9.08339e-08
1.53005e-05
-1.09504e-07
1.52888e-05
-1.32134e-07
1.5274e-05
-1.5964e-07
1.52556e-05
-1.93164e-07
1.52328e-05
-2.34082e-07
1.52047e-05
-2.83994e-07
1.51703e-05
-3.44706e-07
1.51282e-05
-4.18279e-07
1.50765e-05
-5.07126e-07
1.50129e-05
-6.14123e-07
1.49343e-05
-7.42699e-07
1.48372e-05
-8.96891e-07
1.47172e-05
-1.08136e-06
1.45689e-05
-1.30135e-06
1.43854e-05
-1.56229e-06
1.41579e-05
-1.86872e-06
1.38738e-05
-2.22369e-06
1.3518e-05
-2.62492e-06
-3.06266e-06
1.30579e-05
1.53336e-05
-3.31477e-09
1.53342e-05
-9.98177e-09
1.53346e-05
-1.57914e-08
1.53345e-05
-2.10034e-08
1.53337e-05
-2.65343e-08
1.53321e-05
-3.28184e-08
1.53297e-05
-3.99542e-08
1.53262e-05
-4.81346e-08
1.53214e-05
-5.77122e-08
1.53152e-05
-6.90934e-08
1.53071e-05
-8.27295e-08
1.52967e-05
-9.91727e-08
1.52837e-05
-1.19081e-07
1.52673e-05
-1.43274e-07
1.52469e-05
-1.72796e-07
1.52218e-05
-2.08921e-07
1.51909e-05
-2.53102e-07
1.51531e-05
-3.06916e-07
1.51069e-05
-3.72072e-07
1.50503e-05
-4.50518e-07
1.49807e-05
-5.44582e-07
1.48951e-05
-6.57101e-07
1.47897e-05
-7.91472e-07
1.466e-05
-9.51622e-07
1.45006e-05
-1.14194e-06
1.43049e-05
-1.36662e-06
1.40646e-05
-1.62845e-06
1.37685e-05
-1.92754e-06
1.34038e-05
-2.26022e-06
-2.60284e-06
1.2944e-05
1.53338e-05
-3.74193e-09
1.53347e-05
-1.09145e-08
1.53352e-05
-1.63269e-08
1.5335e-05
-2.08135e-08
1.53341e-05
-2.56429e-08
1.53324e-05
-3.1122e-08
1.53298e-05
-3.72676e-08
1.53259e-05
-4.42719e-08
1.53207e-05
-5.24767e-08
1.53138e-05
-6.22224e-08
1.53049e-05
-7.38842e-08
1.52937e-05
-8.79372e-08
1.52796e-05
-1.04927e-07
1.52618e-05
-1.25555e-07
1.52398e-05
-1.50758e-07
1.52126e-05
-1.81703e-07
1.51792e-05
-2.19698e-07
1.51383e-05
-2.66084e-07
1.50885e-05
-3.22208e-07
1.50275e-05
-3.89528e-07
1.49527e-05
-4.69801e-07
1.48609e-05
-5.65258e-07
1.47481e-05
-6.78667e-07
1.46097e-05
-8.13292e-07
1.44407e-05
-9.72925e-07
1.42349e-05
-1.16082e-06
1.39848e-05
-1.37834e-06
1.36805e-05
-1.62324e-06
1.33124e-05
-1.89215e-06
-2.15148e-06
1.28611e-05
1.53341e-05
-4.47027e-09
1.53355e-05
-1.23253e-08
1.53361e-05
-1.69766e-08
1.53359e-05
-2.06098e-08
1.5335e-05
-2.46999e-08
1.53331e-05
-2.92855e-08
1.53302e-05
-3.43509e-08
1.5326e-05
-4.01005e-08
1.53204e-05
-4.68492e-08
1.5313e-05
-5.48365e-08
1.53035e-05
-6.4385e-08
1.52915e-05
-7.59168e-08
1.52764e-05
-8.98555e-08
1.52576e-05
-1.06719e-07
1.52341e-05
-1.27234e-07
1.52048e-05
-1.52424e-07
1.51687e-05
-1.83568e-07
1.51246e-05
-2.21976e-07
1.50711e-05
-2.68737e-07
1.50063e-05
-3.247e-07
1.49272e-05
-3.90773e-07
1.48304e-05
-4.68395e-07
1.47115e-05
-5.59766e-07
1.4566e-05
-6.67771e-07
1.43891e-05
-7.9612e-07
1.41757e-05
-9.47411e-07
1.39192e-05
-1.12182e-06
1.3611e-05
-1.31499e-06
1.32451e-05
-1.52627e-06
-1.71437e-06
1.2808e-05
1.53346e-05
-5.74783e-09
1.53367e-05
-1.44251e-08
1.53375e-05
-1.77382e-08
1.53373e-05
-2.04821e-08
1.53364e-05
-2.3772e-08
1.53345e-05
-2.73467e-08
1.53314e-05
-3.12463e-08
1.53269e-05
-3.56659e-08
1.5321e-05
-4.09075e-08
1.53132e-05
-4.70441e-08
1.53032e-05
-5.43823e-08
1.52905e-05
-6.3258e-08
1.52746e-05
-7.39474e-08
1.52547e-05
-8.68371e-08
1.523e-05
-1.02503e-07
1.51994e-05
-1.21807e-07
1.51617e-05
-1.45838e-07
1.51153e-05
-1.75633e-07
1.50585e-05
-2.11914e-07
1.49889e-05
-2.55142e-07
1.49041e-05
-3.05897e-07
1.4801e-05
-3.65339e-07
1.46765e-05
-4.35224e-07
1.45264e-05
-5.17728e-07
1.43466e-05
-6.16254e-07
1.41316e-05
-7.32435e-07
1.3875e-05
-8.65241e-07
1.35686e-05
-1.00854e-06
1.32106e-05
-1.1683e-06
-1.29194e-06
1.27882e-05
1.53357e-05
-8.12585e-09
1.53384e-05
-1.71036e-08
1.53392e-05
-1.85396e-08
1.53393e-05
-2.05495e-08
1.53384e-05
-2.28883e-08
1.53364e-05
-2.5332e-08
1.53331e-05
-2.80261e-08
1.53285e-05
-3.10412e-08
1.53224e-05
-3.47483e-08
1.53143e-05
-3.89506e-08
1.53039e-05
-4.39998e-08
1.52908e-05
-5.01556e-08
1.52744e-05
-5.75403e-08
1.5254e-05
-6.64262e-08
1.52286e-05
-7.71648e-08
1.5197e-05
-9.02371e-08
1.51575e-05
-1.06286e-07
1.5108e-05
-1.26107e-07
1.50466e-05
-1.50594e-07
1.49721e-05
-1.80641e-07
1.48833e-05
-2.17015e-07
1.47783e-05
-2.60351e-07
1.46541e-05
-3.11093e-07
1.45064e-05
-3.69951e-07
1.43298e-05
-4.39698e-07
1.41181e-05
-5.20705e-07
1.38639e-05
-6.11046e-07
1.35596e-05
-7.04224e-07
1.3205e-05
-8.13765e-07
-8.66151e-07
1.27792e-05
1.53395e-05
-1.42713e-08
1.53422e-05
-1.9797e-08
1.53427e-05
-1.90449e-08
1.53421e-05
-1.99749e-08
1.53405e-05
-2.13e-08
1.53378e-05
-2.25776e-08
1.53337e-05
-2.3964e-08
1.53281e-05
-2.549e-08
1.53208e-05
-2.74329e-08
1.53114e-05
-2.95424e-08
1.52995e-05
-3.20739e-08
1.52845e-05
-3.51634e-08
1.52658e-05
-3.88187e-08
1.52425e-05
-4.31881e-08
1.52139e-05
-4.85096e-08
1.51788e-05
-5.51827e-08
1.51363e-05
-6.37873e-08
1.50852e-05
-7.50009e-08
1.50241e-05
-8.94384e-08
1.49509e-05
-1.07488e-07
1.48631e-05
-1.29246e-07
1.47574e-05
-1.54604e-07
1.46298e-05
-1.83488e-07
1.44757e-05
-2.15876e-07
1.42868e-05
-2.50773e-07
1.40554e-05
-2.89321e-07
1.37777e-05
-3.33375e-07
1.34533e-05
-3.79816e-07
1.30716e-05
-4.31998e-07
-3.87666e-07
1.25931e-05
1.53191e-05
1.52993e-05
1.52802e-05
1.52602e-05
1.52389e-05
1.52164e-05
1.51924e-05
1.51669e-05
1.51395e-05
1.51099e-05
1.50779e-05
1.50427e-05
1.50039e-05
1.49607e-05
1.49122e-05
1.4857e-05
1.47932e-05
1.47182e-05
1.46288e-05
1.45213e-05
1.4392e-05
1.42374e-05
1.40539e-05
1.38381e-05
1.35873e-05
1.3298e-05
1.29646e-05
1.25848e-05
1.21528e-05
1.17651e-05
1.8163e-05
-8.48097e-06
8.74212e-06
1.79315e-05
-8.64855e-06
8.88005e-06
1.76653e-05
-8.81804e-06
9.08422e-06
1.73655e-05
-8.98048e-06
9.28022e-06
1.70374e-05
-9.14366e-06
9.4718e-06
1.66864e-05
-9.3119e-06
9.66286e-06
1.63161e-05
-9.4868e-06
9.85714e-06
1.59285e-05
-9.66934e-06
1.0057e-05
1.55246e-05
-9.86042e-06
1.02643e-05
1.51047e-05
-1.00606e-05
1.04805e-05
1.46682e-05
-1.02701e-05
1.07066e-05
1.42139e-05
-1.04892e-05
1.09434e-05
1.37409e-05
-1.07185e-05
1.11915e-05
1.32481e-05
-1.09588e-05
1.14517e-05
1.27344e-05
-1.12115e-05
1.17252e-05
1.21986e-05
-1.14781e-05
1.20138e-05
1.16395e-05
-1.17606e-05
1.23197e-05
1.10554e-05
-1.20614e-05
1.26455e-05
1.04441e-05
-1.23834e-05
1.29947e-05
9.80303e-06
-1.27304e-05
1.33715e-05
9.12871e-06
-1.31068e-05
1.37811e-05
8.41675e-06
-1.35184e-05
1.42304e-05
7.6613e-06
-1.39723e-05
1.47278e-05
6.85475e-06
-1.44778e-05
1.52843e-05
5.98586e-06
-1.50462e-05
1.59151e-05
5.04257e-06
-1.56924e-05
1.66357e-05
4.00679e-06
-1.64354e-05
1.74712e-05
2.80766e-06
-1.73167e-05
1.85158e-05
1.57189e-06
-1.8222e-05
1.94578e-05
-1.97597e-05
2.13315e-05
1.83386e-05
-8.21362e-06
1.80364e-05
-8.34638e-06
1.77059e-05
-8.4875e-06
1.73569e-05
-8.63146e-06
1.69939e-05
-8.78073e-06
1.66192e-05
-8.93718e-06
1.62333e-05
-9.10092e-06
1.58358e-05
-9.27181e-06
1.54254e-05
-9.45002e-06
1.50006e-05
-9.6358e-06
1.456e-05
-9.82946e-06
1.41023e-05
-1.00315e-05
1.36266e-05
-1.02428e-05
1.3132e-05
-1.04642e-05
1.26175e-05
-1.0697e-05
1.20821e-05
-1.09426e-05
1.15243e-05
-1.12027e-05
1.09423e-05
-1.14794e-05
1.0334e-05
-1.17751e-05
9.69649e-06
-1.20929e-05
9.0264e-06
-1.24367e-05
8.3192e-06
-1.28112e-05
7.56904e-06
-1.32222e-05
6.76823e-06
-1.3677e-05
5.90657e-06
-1.41845e-05
4.97078e-06
-1.47567e-05
3.9416e-06
-1.54062e-05
2.7844e-06
-1.61595e-05
1.52922e-06
-1.69668e-05
-1.82304e-05
1.82234e-05
-7.90175e-06
1.78958e-05
-8.01885e-06
1.75541e-05
-8.14581e-06
1.72025e-05
-8.27986e-06
1.68418e-05
-8.41998e-06
1.64706e-05
-8.56596e-06
1.60874e-05
-8.71776e-06
1.56911e-05
-8.87547e-06
1.52805e-05
-9.03942e-06
1.48547e-05
-9.21008e-06
1.44132e-05
-9.38795e-06
1.39554e-05
-9.57366e-06
1.34805e-05
-9.7679e-06
1.29878e-05
-9.9715e-06
1.24762e-05
-1.01855e-05
1.19445e-05
-1.04109e-05
1.13911e-05
-1.06493e-05
1.08141e-05
-1.09024e-05
1.02112e-05
-1.11722e-05
9.5796e-06
-1.14614e-05
8.91573e-06
-1.17729e-05
8.21501e-06
-1.21105e-05
7.4716e-06
-1.24788e-05
6.67791e-06
-1.28833e-05
5.82402e-06
-1.33306e-05
4.89678e-06
-1.38294e-05
3.87882e-06
-1.43883e-05
2.74382e-06
-1.50245e-05
1.48901e-06
-1.5712e-05
-1.67414e-05
1.81096e-05
-7.57807e-06
1.77758e-05
-7.68502e-06
1.74306e-05
-7.80065e-06
1.70751e-05
-7.92435e-06
1.67091e-05
-8.05395e-06
1.63315e-05
-8.18837e-06
1.59415e-05
-8.32778e-06
1.55387e-05
-8.47266e-06
1.51227e-05
-8.62338e-06
1.46929e-05
-8.78032e-06
1.42488e-05
-8.94386e-06
1.37896e-05
-9.11449e-06
1.33145e-05
-9.29278e-06
1.28224e-05
-9.47941e-06
1.23122e-05
-9.67522e-06
1.17825e-05
-9.8812e-06
1.12317e-05
-1.00985e-05
1.06579e-05
-1.03286e-05
1.00589e-05
-1.05732e-05
9.43172e-06
-1.08342e-05
8.77281e-06
-1.11139e-05
8.07765e-06
-1.14153e-05
7.34052e-06
-1.17416e-05
6.5541e-06
-1.20968e-05
5.70892e-06
-1.24854e-05
4.79272e-06
-1.29132e-05
3.78951e-06
-1.33851e-05
2.67781e-06
-1.39128e-05
1.44102e-06
-1.44753e-05
-1.53004e-05
1.7961e-05
-7.24433e-06
1.76183e-05
-7.34226e-06
1.72653e-05
-7.44774e-06
1.69026e-05
-7.56158e-06
1.65298e-05
-7.6812e-06
1.61465e-05
-7.80502e-06
1.57519e-05
-7.93325e-06
1.53457e-05
-8.06645e-06
1.49273e-05
-8.20495e-06
1.4496e-05
-8.34899e-06
1.4051e-05
-8.49887e-06
1.35915e-05
-8.65502e-06
1.31167e-05
-8.81793e-06
1.26255e-05
-8.98821e-06
1.21168e-05
-9.16653e-06
1.15893e-05
-9.35369e-06
1.10414e-05
-9.55062e-06
1.04711e-05
-9.7584e-06
9.87624e-06
-9.9783e-06
9.25384e-06
-1.02118e-05
8.60038e-06
-1.04605e-05
7.91148e-06
-1.07264e-05
7.18161e-06
-1.10118e-05
6.40384e-06
-1.13191e-05
5.56928e-06
-1.16509e-05
4.66668e-06
-1.20106e-05
3.68147e-06
-1.23998e-05
2.59476e-06
-1.28261e-05
1.3861e-06
-1.32666e-05
-1.39143e-05
1.7779e-05
-6.90239e-06
1.74289e-05
-6.9922e-06
1.70697e-05
-7.08857e-06
1.67015e-05
-7.19329e-06
1.63238e-05
-7.30353e-06
1.59361e-05
-7.41736e-06
1.55379e-05
-7.53498e-06
1.51285e-05
-7.65703e-06
1.47073e-05
-7.78383e-06
1.42739e-05
-7.91552e-06
1.38274e-05
-8.05237e-06
1.33671e-05
-8.19473e-06
1.28921e-05
-8.343e-06
1.24016e-05
-8.49765e-06
1.18942e-05
-8.65919e-06
1.13688e-05
-8.82822e-06
1.08236e-05
-9.00541e-06
1.02567e-05
-9.19153e-06
9.66585e-06
-9.38746e-06
9.04826e-06
-9.59417e-06
8.40049e-06
-9.81272e-06
7.71833e-06
-1.00443e-05
6.99657e-06
-1.029e-05
6.22872e-06
-1.05512e-05
5.40662e-06
-1.08288e-05
4.52009e-06
-1.11241e-05
3.556e-06
-1.14358e-05
2.49798e-06
-1.17681e-05
1.32548e-06
-1.20941e-05
-1.25888e-05
1.75638e-05
-6.55322e-06
1.72072e-05
-6.63561e-06
1.68422e-05
-6.72361e-06
1.64687e-05
-6.81976e-06
1.60863e-05
-6.92108e-06
1.56944e-05
-7.02545e-06
1.52924e-05
-7.13306e-06
1.488e-05
-7.24458e-06
1.44565e-05
-7.36031e-06
1.40213e-05
-7.48035e-06
1.35738e-05
-7.60485e-06
1.31131e-05
-7.73409e-06
1.26385e-05
-7.86838e-06
1.21489e-05
-8.00804e-06
1.16432e-05
-8.15345e-06
1.11199e-05
-8.30499e-06
1.05776e-05
-8.46312e-06
1.00144e-05
-8.62832e-06
9.42804e-06
-8.80108e-06
8.8158e-06
-8.98193e-06
8.17445e-06
-9.17136e-06
7.50002e-06
-9.36984e-06
6.78766e-06
-9.57765e-06
6.03142e-06
-9.79499e-06
5.22392e-06
-1.00213e-05
4.35611e-06
-1.02563e-05
3.41638e-06
-1.0496e-05
2.39084e-06
-1.07425e-05
1.26073e-06
-1.0964e-05
-1.13281e-05
1.73158e-05
-6.19765e-06
1.69534e-05
-6.2732e-06
1.65833e-05
-6.35349e-06
1.62051e-05
-6.44157e-06
1.58185e-05
-6.53445e-06
1.5423e-05
-6.62991e-06
1.5018e-05
-6.72808e-06
1.46031e-05
-6.82967e-06
1.41777e-05
-6.93493e-06
1.37412e-05
-7.04388e-06
1.3293e-05
-7.15662e-06
1.28322e-05
-7.27335e-06
1.23581e-05
-7.39428e-06
1.18697e-05
-7.5196e-06
1.13658e-05
-7.64953e-06
1.08451e-05
-7.7843e-06
1.03061e-05
-7.92412e-06
9.74697e-06
-8.0692e-06
9.1656e-06
-8.21971e-06
8.55943e-06
-8.37575e-06
7.9254e-06
-8.53733e-06
7.25984e-06
-8.70429e-06
6.55833e-06
-8.87614e-06
5.8155e-06
-9.05216e-06
5.02479e-06
-9.23056e-06
4.1783e-06
-9.4098e-06
3.26602e-06
-9.58375e-06
2.27646e-06
-9.75297e-06
1.19349e-06
-9.881e-06
-1.01346e-05
1.70364e-05
-5.83638e-06
1.66688e-05
-5.90564e-06
1.62942e-05
-5.97882e-06
1.59119e-05
-6.05933e-06
1.55217e-05
-6.14423e-06
1.51231e-05
-6.23127e-06
1.47155e-05
-6.32055e-06
1.42986e-05
-6.41275e-06
1.38718e-05
-6.50809e-06
1.34344e-05
-6.60654e-06
1.29859e-05
-6.70813e-06
1.25255e-05
-6.81296e-06
1.20524e-05
-6.92115e-06
1.15656e-05
-7.03279e-06
1.1064e-05
-7.14796e-06
1.05464e-05
-7.26669e-06
1.00113e-05
-7.38901e-06
9.457e-06
-7.51488e-06
8.88145e-06
-7.64416e-06
8.2823e-06
-7.7766e-06
7.65674e-06
-7.91177e-06
7.00142e-06
-8.04897e-06
6.31238e-06
-8.1871e-06
5.58485e-06
-8.32463e-06
4.81315e-06
-8.45886e-06
3.99047e-06
-8.58712e-06
3.10844e-06
-8.70172e-06
2.15778e-06
-8.80231e-06
1.12524e-06
-8.84847e-06
-9.00936e-06
1.67275e-05
-5.47017e-06
1.63555e-05
-5.53364e-06
1.5977e-05
-5.60029e-06
1.55913e-05
-5.67368e-06
1.51981e-05
-5.75104e-06
1.4797e-05
-5.83015e-06
1.43875e-05
-5.91106e-06
1.39692e-05
-5.99441e-06
1.35415e-05
-6.08039e-06
1.31039e-05
-6.16891e-06
1.26557e-05
-6.25992e-06
1.21962e-05
-6.35347e-06
1.17246e-05
-6.44958e-06
1.124e-05
-6.54823e-06
1.07414e-05
-6.64936e-06
1.02276e-05
-6.75286e-06
9.69715e-06
-6.85856e-06
9.14848e-06
-6.9662e-06
8.57972e-06
-7.0754e-06
7.9887e-06
-7.18558e-06
7.37288e-06
-7.29595e-06