/*--------------------------------*- C++ -*----------------------------------*\
  =========                 |
  \\      /  F ield         | OpenFOAM: The Open Source CFD Toolbox
   \\    /   O peration     | Website:  https://openfoam.org
    \\  /    A nd           | Version:  11
     \\/     M anipulation  |
\*---------------------------------------------------------------------------*/
FoamFile
{
    format      ascii;
    class       surfaceScalarField;
    location    "1";
    object      phi;
}
// * * * * * * * * * * * * * * * * * * * * * * * * * * * * * * * * * * * * * //

dimensions      [0 3 -1 0 0 0 0];

internalField   nonuniform List<scalar> 
24840
(
1.57973e-05
1.36993e-08
1.57787e-05
1.85382e-08
1.57614e-05
1.73014e-08
1.57443e-05
1.71382e-08
1.57269e-05
1.74216e-08
1.57094e-05
1.74932e-08
1.5692e-05
1.74199e-08
1.56747e-05
1.72797e-08
1.56576e-05
1.70614e-08
1.56409e-05
1.67354e-08
1.56246e-05
1.62743e-08
1.5609e-05
1.5644e-08
1.55942e-05
1.48023e-08
1.55804e-05
1.37384e-08
1.5568e-05
1.24506e-08
1.55571e-05
1.08992e-08
1.55478e-05
9.28731e-09
1.55399e-05
7.83748e-09
1.55333e-05
6.61471e-09
1.55277e-05
5.6485e-09
1.55231e-05
4.61161e-09
1.552e-05
3.08908e-09
1.55194e-05
6.2958e-10
1.55232e-05
-3.89545e-09
1.55343e-05
-1.10892e-08
1.55556e-05
-2.12352e-08
1.55906e-05
-3.49852e-08
1.56423e-05
-5.17419e-08
1.57206e-05
-7.8311e-08
-1.47373e-07
1.5868e-05
1.58171e-05
7.61515e-09
1.58208e-05
1.48002e-08
1.58235e-05
1.45708e-08
1.58258e-05
1.48344e-08
1.5828e-05
1.52784e-08
1.58301e-05
1.5399e-08
1.58322e-05
1.52784e-08
1.58344e-05
1.50372e-08
1.58368e-05
1.46627e-08
1.58394e-05
1.41341e-08
1.58423e-05
1.34407e-08
1.58454e-05
1.25611e-08
1.58487e-05
1.14381e-08
1.58524e-05
1.00586e-08
1.58564e-05
8.40963e-09
1.58612e-05
6.19409e-09
1.58669e-05
3.53106e-09
1.58742e-05
5.46081e-10
1.58838e-05
-2.95365e-09
1.58962e-05
-6.82201e-09
1.5912e-05
-1.11817e-08
1.59314e-05
-1.62424e-08
1.59547e-05
-2.26813e-08
1.59823e-05
-3.15479e-08
1.60148e-05
-4.35839e-08
1.60535e-05
-5.98912e-08
1.60988e-05
-8.03355e-08
1.61562e-05
-1.09142e-07
1.62183e-05
-1.40416e-07
-1.75039e-07
1.6246e-05
1.58137e-05
4.92085e-09
1.58171e-05
1.13991e-08
1.58192e-05
1.23936e-08
1.58215e-05
1.25676e-08
1.58238e-05
1.29973e-08
1.5826e-05
1.32134e-08
1.58282e-05
1.30689e-08
1.58305e-05
1.27509e-08
1.58329e-05
1.22431e-08
1.58355e-05
1.1518e-08
1.58384e-05
1.05502e-08
1.58417e-05
9.28138e-09
1.58455e-05
7.62944e-09
1.58499e-05
5.59528e-09
1.58552e-05
3.19904e-09
1.58611e-05
2.04517e-10
1.58678e-05
-3.07442e-09
1.58748e-05
-6.51743e-09
1.58822e-05
-1.03699e-08
1.58904e-05
-1.49853e-08
1.59001e-05
-2.09264e-08
1.59127e-05
-2.88094e-08
1.593e-05
-4.00031e-08
1.59539e-05
-5.5384e-08
1.59856e-05
-7.52694e-08
1.60256e-05
-9.99263e-08
1.60746e-05
-1.29307e-07
1.61301e-05
-1.6473e-07
1.61961e-05
-2.06324e-07
-2.39315e-07
1.62603e-05
1.58125e-05
3.36206e-09
1.58153e-05
8.57751e-09
1.58175e-05
1.02628e-08
1.58195e-05
1.05674e-08
1.58216e-05
1.08831e-08
1.58237e-05
1.1092e-08
1.58258e-05
1.0936e-08
1.58281e-05
1.05369e-08
1.58304e-05
9.88461e-09
1.5833e-05
8.95719e-09
1.58358e-05
7.71176e-09
1.5839e-05
6.07909e-09
1.58427e-05
3.97911e-09
1.58468e-05
1.42775e-09
1.58517e-05
-1.67568e-09
1.58574e-05
-5.44389e-09
1.5864e-05
-9.69963e-09
1.58718e-05
-1.43617e-08
1.58811e-05
-1.96475e-08
1.58921e-05
-2.59897e-08
1.59051e-05
-3.39562e-08
1.59206e-05
-4.42835e-08
1.59392e-05
-5.86007e-08
1.59619e-05
-7.80562e-08
1.59899e-05
-1.03261e-07
1.60244e-05
-1.34491e-07
1.6067e-05
-1.71901e-07
1.61181e-05
-2.15783e-07
1.61806e-05
-2.68804e-07
-3.14399e-07
1.62557e-05
1.58119e-05
2.39084e-09
1.58141e-05
6.45139e-09
1.5816e-05
8.29846e-09
1.58179e-05
8.73576e-09
1.58198e-05
8.93812e-09
1.58218e-05
9.05123e-09
1.58239e-05
8.86628e-09
1.58261e-05
8.37741e-09
1.58284e-05
7.58245e-09
1.58309e-05
6.45731e-09
1.58336e-05
4.94373e-09
1.58367e-05
2.98375e-09
1.58403e-05
4.04519e-10
1.58444e-05
-2.70213e-09
1.58493e-05
-6.48436e-09
1.58547e-05
-1.09244e-08
1.5861e-05
-1.59444e-08
1.58682e-05
-2.16303e-08
1.5877e-05
-2.83597e-08
1.58877e-05
-3.66905e-08
1.5901e-05
-4.72607e-08
1.59175e-05
-6.08635e-08
1.59377e-05
-7.87301e-08
1.59615e-05
-1.01923e-07
1.59896e-05
-1.31286e-07
1.60226e-05
-1.67557e-07
1.60623e-05
-2.11547e-07
1.61102e-05
-2.63662e-07
1.61688e-05
-3.27438e-07
-3.88431e-07
1.62428e-05
1.58116e-05
1.73963e-09
1.58132e-05
4.83137e-09
1.5815e-05
6.51696e-09
1.58168e-05
7.00412e-09
1.58186e-05
7.10977e-09
1.58205e-05
7.10472e-09
1.58225e-05
6.85695e-09
1.58246e-05
6.28196e-09
1.58269e-05
5.35622e-09
1.58293e-05
4.03712e-09
1.5832e-05
2.2478e-09
1.5835e-05
-9.71763e-12
1.58384e-05
-3.0003e-09
1.58423e-05
-6.59641e-09
1.58468e-05
-1.09703e-08
1.5852e-05
-1.61656e-08
1.58582e-05
-2.21956e-08
1.58658e-05
-2.91727e-08
1.58749e-05
-3.74522e-08
1.58858e-05
-4.76013e-08
1.58988e-05
-6.03062e-08
1.59144e-05
-7.6424e-08
1.59328e-05
-9.71497e-08
1.59546e-05
-1.23703e-07
1.59805e-05
-1.57171e-07
1.60115e-05
-1.98569e-07
1.6049e-05
-2.49062e-07
1.60947e-05
-3.09373e-07
1.61507e-05
-3.83419e-07
-4.60057e-07
1.62223e-05
1.58114e-05
1.26673e-09
1.58127e-05
3.56111e-09
1.58143e-05
4.94124e-09
1.58159e-05
5.38454e-09
1.58176e-05
5.40248e-09
1.58194e-05
5.27579e-09
1.58214e-05
4.93673e-09
1.58234e-05
4.26902e-09
1.58255e-05
3.2138e-09
1.58278e-05
1.71574e-09
1.58304e-05
-3.17264e-10
1.58333e-05
-2.9056e-09
1.58365e-05
-6.24228e-09
1.58403e-05
-1.03205e-08
1.58446e-05
-1.52603e-08
1.58495e-05
-2.11407e-08
1.58554e-05
-2.80401e-08
1.58623e-05
-3.61413e-08
1.58707e-05
-4.58363e-08
1.58808e-05
-5.77116e-08
1.5893e-05
-7.24877e-08
1.59077e-05
-9.10606e-08
1.59251e-05
-1.14594e-07
1.59457e-05
-1.44351e-07
1.59702e-05
-1.81596e-07
1.59992e-05
-2.27635e-07
1.60342e-05
-2.8403e-07
1.60769e-05
-3.52024e-07
1.61292e-05
-4.35736e-07
-5.27335e-07
1.61965e-05
1.58113e-05
9.00725e-10
1.58124e-05
2.53646e-09
1.58137e-05
3.56093e-09
1.58152e-05
3.88265e-09
1.58168e-05
3.80129e-09
1.58186e-05
3.55035e-09
1.58204e-05
3.1029e-09
1.58223e-05
2.33618e-09
1.58244e-05
1.15696e-09
1.58266e-05
-5.09407e-10
1.58291e-05
-2.75825e-09
1.58318e-05
-5.65042e-09
1.58349e-05
-9.31964e-09
1.58384e-05
-1.38245e-08
1.58424e-05
-1.92707e-08
1.5847e-05
-2.57769e-08
1.58525e-05
-3.34898e-08
1.5859e-05
-4.26538e-08
1.58668e-05
-5.36819e-08
1.58763e-05
-6.71568e-08
1.58876e-05
-8.38042e-08
1.59011e-05
-1.04534e-07
1.5917e-05
-1.30514e-07
1.59357e-05
-1.63093e-07
1.59579e-05
-2.03733e-07
1.59843e-05
-2.54023e-07
1.60161e-05
-3.15858e-07
1.60551e-05
-3.91018e-07
1.61031e-05
-4.83714e-07
-5.89556e-07
1.61653e-05
1.58113e-05
6.0398e-10
1.58121e-05
1.68646e-09
1.58133e-05
2.34892e-09
1.58147e-05
2.49623e-09
1.58162e-05
2.29728e-09
1.58178e-05
1.92344e-09
1.58196e-05
1.36357e-09
1.58214e-05
4.95613e-10
1.58234e-05
-8.00385e-10
1.58255e-05
-2.62342e-09
1.58278e-05
-5.07087e-09
1.58304e-05
-8.22556e-09
1.58333e-05
-1.21981e-08
1.58365e-05
-1.70804e-08
1.58402e-05
-2.2988e-08
1.58445e-05
-3.0065e-08
1.58495e-05
-3.84992e-08
1.58555e-05
-4.85772e-08
1.58625e-05
-6.07391e-08
1.58709e-05
-7.55875e-08
1.5881e-05
-9.38752e-08
1.5893e-05
-1.16538e-07
1.59073e-05
-1.44756e-07
1.59241e-05
-1.79929e-07
1.5944e-05
-2.23654e-07
1.59677e-05
-2.77739e-07
1.59963e-05
-3.44381e-07
1.60311e-05
-4.2591e-07
1.6074e-05
-5.26616e-07
-6.45464e-07
1.613e-05
1.58112e-05
3.54652e-10
1.58119e-05
9.6262e-10
1.5813e-05
1.2761e-09
1.58143e-05
1.21961e-09
1.58157e-05
8.86997e-10
1.58172e-05
3.91789e-10
1.58189e-05
-2.8003e-10
1.58206e-05
-1.24992e-09
1.58225e-05
-2.65619e-09
1.58245e-05
-4.6179e-09
1.58266e-05
-7.24115e-09
1.5829e-05
-1.06218e-08
1.58317e-05
-1.48658e-08
1.58347e-05
-2.00785e-08
1.58381e-05
-2.63856e-08
1.5842e-05
-3.39522e-08
1.58465e-05
-4.30043e-08
1.58518e-05
-5.38709e-08
1.58581e-05
-6.70198e-08
1.58655e-05
-8.30653e-08
1.58744e-05
-1.02768e-07
1.5885e-05
-1.27076e-07
1.58974e-05
-1.57184e-07
1.5912e-05
-1.9455e-07
1.59293e-05
-2.40896e-07
1.59498e-05
-2.98231e-07
1.59744e-05
-3.69008e-07
1.60045e-05
-4.56051e-07
1.60416e-05
-5.63695e-07
-6.94165e-07
1.60903e-05
1.58112e-05
1.39058e-10
1.58118e-05
3.31519e-10
1.58128e-05
3.16122e-10
1.58139e-05
4.37482e-11
1.58153e-05
-4.33242e-10
1.58167e-05
-1.04864e-09
1.58183e-05
-1.82927e-09
1.58199e-05
-2.89746e-09
1.58217e-05
-4.40453e-09
1.58235e-05
-6.4869e-09
1.58255e-05
-9.26134e-09
1.58278e-05
-1.28316e-08
1.58302e-05
-1.73038e-08
1.58329e-05
-2.27916e-08
1.5836e-05
-2.94321e-08
1.58394e-05
-3.74073e-08
1.58434e-05
-4.69699e-08
1.5848e-05
-5.84785e-08
1.58534e-05
-7.24258e-08
1.58598e-05
-8.94448e-08
1.58673e-05
-1.10314e-07
1.58762e-05
-1.35994e-07
1.58867e-05
-1.67692e-07
1.58991e-05
-2.06898e-07
1.59136e-05
-2.55413e-07
1.59308e-05
-3.15392e-07
1.59513e-05
-3.895e-07
1.59762e-05
-4.80995e-07
1.60068e-05
-5.94252e-07
-7.34508e-07
1.60471e-05
1.58112e-05
-5.23163e-11
1.58117e-05
-2.29604e-10
1.58126e-05
-5.52655e-10
1.58137e-05
-1.04271e-09
1.58149e-05
-1.66915e-09
1.58163e-05
-2.40217e-09
1.58177e-05
-3.28564e-09
1.58193e-05
-4.4458e-09
1.58209e-05
-6.04279e-09
1.58226e-05
-8.22653e-09
1.58245e-05
-1.11239e-08
1.58265e-05
-1.48451e-08
1.58287e-05
-1.9499e-08
1.58311e-05
-2.52058e-08
1.58338e-05
-3.21132e-08
1.58368e-05
-4.04172e-08
1.58402e-05
-5.03891e-08
1.58442e-05
-6.24072e-08
1.58487e-05
-7.69794e-08
1.5854e-05
-9.47509e-08
1.58602e-05
-1.16513e-07
1.58675e-05
-1.43241e-07
1.58759e-05
-1.76154e-07
1.58858e-05
-2.16763e-07
1.58973e-05
-2.66922e-07
1.59108e-05
-3.2889e-07
1.59268e-05
-4.0548e-07
1.59461e-05
-5.00289e-07
1.59695e-05
-6.17697e-07
-7.65601e-07
1.60006e-05
1.58111e-05
-2.26011e-10
1.58116e-05
-7.37343e-10
1.58124e-05
-1.34796e-09
1.58135e-05
-2.05162e-09
1.58146e-05
-2.82771e-09
1.58159e-05
-3.67399e-09
1.58172e-05
-4.65251e-09
1.58187e-05
-5.89543e-09
1.58202e-05
-7.56882e-09
1.58218e-05
-9.83254e-09
1.58235e-05
-1.28229e-08
1.58253e-05
-1.66562e-08
1.58273e-05
-2.14444e-08
1.58294e-05
-2.73107e-08
1.58317e-05
-3.44082e-08
1.58342e-05
-4.29434e-08
1.5837e-05
-5.32043e-08
1.58402e-05
-6.55875e-08
1.58438e-05
-8.06143e-08
1.5848e-05
-9.89359e-08
1.58529e-05
-1.21346e-07
1.58584e-05
-1.48821e-07
1.58649e-05
-1.8258e-07
1.58722e-05
-2.2414e-07
1.58807e-05
-2.75377e-07
1.58904e-05
-3.38605e-07
1.59017e-05
-4.16727e-07
1.5915e-05
-5.13579e-07
1.59308e-05
-6.33503e-07
-7.86556e-07
1.59517e-05
1.58111e-05
-3.85772e-10
1.58116e-05
-1.20575e-09
1.58123e-05
-2.08544e-09
1.58133e-05
-2.99443e-09
1.58144e-05
-3.91631e-09
1.58156e-05
-4.86982e-09
1.58168e-05
-5.9341e-09
1.58182e-05
-7.24801e-09
1.58196e-05
-8.98188e-09
1.58211e-05
-1.13029e-08
1.58226e-05
-1.43552e-08
1.58242e-05
-1.82599e-08
1.58259e-05
-2.31309e-08
1.58277e-05
-2.90945e-08
1.58296e-05
-3.63095e-08
1.58316e-05
-4.49902e-08
1.58339e-05
-5.54332e-08
1.58363e-05
-6.80423e-08
1.5839e-05
-8.33432e-08
1.58421e-05
-1.01989e-07
1.58455e-05
-1.24775e-07
1.58494e-05
-1.52675e-07
1.58537e-05
-1.86899e-07
1.58585e-05
-2.28947e-07
1.58638e-05
-2.80681e-07
1.58696e-05
-3.4442e-07
1.5876e-05
-4.23089e-07
1.58831e-05
-5.20649e-07
1.58909e-05
-6.41346e-07
-7.96775e-07
1.59011e-05
1.58111e-05
-5.35128e-10
1.58116e-05
-1.64668e-09
1.58123e-05
-2.77946e-09
1.58131e-05
-3.88321e-09
1.58142e-05
-4.94309e-09
1.58153e-05
-5.99539e-09
1.58165e-05
-7.13479e-09
1.58178e-05
-8.50619e-09
1.58191e-05
-1.02827e-08
1.58204e-05
-1.2637e-08
1.58217e-05
-1.57193e-08
1.58231e-05
-1.96547e-08
1.58246e-05
-2.45579e-08
1.5826e-05
-3.05554e-08
1.58275e-05
-3.78083e-08
1.58291e-05
-4.65365e-08
1.58307e-05
-5.70444e-08
1.58324e-05
-6.97417e-08
1.58342e-05
-8.51532e-08
1.58361e-05
-1.03924e-07
1.58382e-05
-1.26835e-07
1.58404e-05
-1.54845e-07
1.58426e-05
-1.8914e-07
1.58448e-05
-2.31189e-07
1.5847e-05
-2.8281e-07
1.58488e-05
-3.46281e-07
1.58502e-05
-4.24486e-07
1.5851e-05
-5.21384e-07
1.58507e-05
-6.41056e-07
-7.95914e-07
1.58498e-05
1.58111e-05
-6.78381e-10
1.58115e-05
-2.07033e-09
1.58122e-05
-3.44378e-09
1.5813e-05
-4.73038e-09
1.5814e-05
-5.91695e-09
1.58151e-05
-7.05671e-09
1.58162e-05
-8.25891e-09
1.58174e-05
-9.67319e-09
1.58186e-05
-1.14738e-08
1.58198e-05
-1.38367e-08
1.5821e-05
-1.69169e-08
1.58221e-05
-2.08415e-08
1.58233e-05
-2.5724e-08
1.58244e-05
-3.16894e-08
1.58255e-05
-3.89003e-08
1.58266e-05
-4.75823e-08
1.58276e-05
-5.80455e-08
1.58285e-05
-7.06988e-08
1.58294e-05
-8.6056e-08
1.58303e-05
-1.04744e-07
1.5831e-05
-1.27524e-07
1.58314e-05
-1.55333e-07
1.58316e-05
-1.8932e-07
1.58313e-05
-2.30897e-07
1.58303e-05
-2.81807e-07
1.58283e-05
-3.44235e-07
1.58248e-05
-4.20961e-07
1.58192e-05
-5.15826e-07
1.58108e-05
-6.32676e-07
-7.83969e-07
1.57989e-05
1.58111e-05
-8.19712e-10
1.58115e-05
-2.48721e-09
1.58122e-05
-4.09255e-09
1.5813e-05
-5.54884e-09
1.58139e-05
-6.84724e-09
1.58149e-05
-8.06056e-09
1.5816e-05
-9.31207e-09
1.58171e-05
-1.07538e-08
1.58181e-05
-1.25589e-08
1.58192e-05
-1.49053e-08
1.58202e-05
-1.79508e-08
1.58212e-05
-2.18228e-08
1.58221e-05
-2.66315e-08
1.58229e-05
-3.2499e-08
1.58236e-05
-3.95893e-08
1.58242e-05
-4.81325e-08
1.58246e-05
-5.84415e-08
1.58248e-05
-7.09187e-08
1.58248e-05
-8.60602e-08
1.58245e-05
-1.04468e-07
1.58239e-05
-1.26878e-07
1.58227e-05
-1.5419e-07
1.58209e-05
-1.87501e-07
1.58182e-05
-2.28142e-07
1.58141e-05
-2.77744e-07
1.58082e-05
-3.38365e-07
1.57999e-05
-4.12626e-07
1.57882e-05
-5.04142e-07
1.5772e-05
-6.1646e-07
-7.61308e-07
1.57493e-05
1.58111e-05
-9.63616e-10
1.58115e-05
-2.90919e-09
1.58122e-05
-4.74101e-09
1.5813e-05
-6.35199e-09
1.58139e-05
-7.74397e-09
1.58148e-05
-9.01498e-09
1.58158e-05
-1.03015e-08
1.58168e-05
-1.17541e-08
1.58178e-05
-1.35429e-08
1.58187e-05
-1.58464e-08
1.58196e-05
-1.88243e-08
1.58204e-05
-2.26022e-08
1.58211e-05
-2.72855e-08
1.58215e-05
-3.29908e-08
1.58218e-05
-3.9881e-08
1.58219e-05
-4.81912e-08
1.58217e-05
-5.82387e-08
1.58212e-05
-7.04184e-08
1.58203e-05
-8.52024e-08
1.5819e-05
-1.03156e-07
1.58171e-05
-1.24971e-07
1.58144e-05
-1.51498e-07
1.58107e-05
-1.83764e-07
1.58055e-05
-2.22999e-07
1.57985e-05
-2.70704e-07
1.57889e-05
-3.2878e-07
1.5776e-05
-3.99653e-07
1.57584e-05
-4.86621e-07
1.57348e-05
-5.92872e-07
-7.28702e-07
1.57022e-05
1.58111e-05
-1.11537e-09
1.58116e-05
-3.35064e-09
1.58122e-05
-5.40661e-09
1.5813e-05
-7.15415e-09
1.58139e-05
-8.61746e-09
1.58148e-05
-9.92852e-09
1.58157e-05
-1.12347e-08
1.58167e-05
-1.26805e-08
1.58176e-05
-1.44314e-08
1.58184e-05
-1.66663e-08
1.58191e-05
-1.95437e-08
1.58197e-05
-2.3185e-08
1.58201e-05
-2.769e-08
1.58203e-05
-3.31714e-08
1.58202e-05
-3.97919e-08
1.58198e-05
-4.77878e-08
1.5819e-05
-5.74733e-08
1.58178e-05
-6.92312e-08
1.58161e-05
-8.35084e-08
1.58138e-05
-1.00832e-07
1.58107e-05
-1.21843e-07
1.58065e-05
-1.4732e-07
1.58009e-05
-1.78198e-07
1.57935e-05
-2.15585e-07
1.57837e-05
-2.60838e-07
1.57706e-05
-3.15688e-07
1.57532e-05
-3.8234e-07
1.57303e-05
-4.63706e-07
1.57e-05
-5.62577e-07
-6.87252e-07
1.56586e-05
1.58111e-05
-1.28175e-09
1.58116e-05
-3.83008e-09
1.58123e-05
-6.10995e-09
1.58131e-05
-7.97019e-09
1.5814e-05
-9.4779e-09
1.58149e-05
-1.08103e-08
1.58158e-05
-1.21202e-08
1.58166e-05
-1.35401e-08
1.58174e-05
-1.52307e-08
1.58181e-05
-1.73709e-08
1.58187e-05
-2.0116e-08
1.58191e-05
-2.35814e-08
1.58193e-05
-2.78594e-08
1.58191e-05
-3.30553e-08
1.58187e-05
-3.93271e-08
1.58178e-05
-4.69121e-08
1.58165e-05
-5.61289e-08
1.58146e-05
-6.73578e-08
1.58121e-05
-8.10211e-08
1.58089e-05
-9.75902e-08
1.58046e-05
-1.17623e-07
1.57991e-05
-1.41802e-07
1.57919e-05
-1.70951e-07
1.57823e-05
-2.06052e-07
1.57698e-05
-2.48318e-07
1.57534e-05
-2.99309e-07
1.57321e-05
-3.61001e-07
1.57043e-05
-4.35885e-07
1.56681e-05
-5.26346e-07
-6.38308e-07
1.56191e-05
1.58112e-05
-1.47225e-09
1.58117e-05
-4.37247e-09
1.58125e-05
-6.87566e-09
1.58133e-05
-8.8151e-09
1.58142e-05
-1.03354e-08
1.5815e-05
-1.16704e-08
1.58159e-05
-1.29671e-08
1.58167e-05
-1.43406e-08
1.58174e-05
-1.59485e-08
1.5818e-05
-1.79686e-08
1.58184e-05
-2.05497e-08
1.58186e-05
-2.37988e-08
1.58186e-05
-2.78012e-08
1.58182e-05
-3.26564e-08
1.58174e-05
-3.85176e-08
1.58161e-05
-4.5619e-08
1.58142e-05
-5.42786e-08
1.58117e-05
-6.48739e-08
1.58085e-05
-7.78054e-08
1.58044e-05
-9.34852e-08
1.57992e-05
-1.12371e-07
1.57924e-05
-1.35017e-07
1.57836e-05
-1.62116e-07
1.5772e-05
-1.94519e-07
1.5757e-05
-2.33307e-07
1.57376e-05
-2.79884e-07
1.57126e-05
-3.36007e-07
1.56804e-05
-4.03735e-07
1.56392e-05
-4.85076e-07
-5.83428e-07
1.55843e-05
1.58112e-05
-1.70102e-09
1.58118e-05
-5.01287e-09
1.58127e-05
-7.73299e-09
1.58136e-05
-9.70261e-09
1.58144e-05
-1.12e-08
1.58153e-05
-1.25201e-08
1.58161e-05
-1.3785e-08
1.58169e-05
-1.50893e-08
1.58175e-05
-1.65916e-08
1.5818e-05
-1.84681e-08
1.58183e-05
-2.08571e-08
1.58184e-05
-2.38537e-08
1.58181e-05
-2.7533e-08
1.58174e-05
-3.19867e-08
1.58163e-05
-3.73649e-08
1.58146e-05
-4.39047e-08
1.58122e-05
-5.19302e-08
1.58092e-05
-6.18139e-08
1.58053e-05
-7.39181e-08
1.58004e-05
-8.8574e-08
1.57941e-05
-1.06127e-07
1.57861e-05
-1.27014e-07
1.57758e-05
-1.51801e-07
1.57625e-05
-1.81197e-07
1.57453e-05
-2.1613e-07
1.57232e-05
-2.5784e-07
1.56951e-05
-3.07872e-07
1.56593e-05
-3.67899e-07
1.56138e-05
-4.39648e-07
-5.24082e-07
1.55545e-05
1.58113e-05
-1.99048e-09
1.5812e-05
-5.80209e-09
1.5813e-05
-8.71527e-09
1.5814e-05
-1.06439e-08
1.58149e-05
-1.20818e-08
1.58157e-05
-1.33708e-08
1.58165e-05
-1.45828e-08
1.58172e-05
-1.57948e-08
1.58178e-05
-1.71704e-08
1.58182e-05
-1.88797e-08
1.58184e-05
-2.10472e-08
1.58183e-05
-2.37565e-08
1.58178e-05
-2.70754e-08
1.58169e-05
-3.1083e-08
1.58155e-05
-3.59114e-08
1.58134e-05
-4.17962e-08
1.58105e-05
-4.90863e-08
1.58069e-05
-5.81821e-08
1.58024e-05
-6.94243e-08
1.57969e-05
-8.30305e-08
1.57899e-05
-9.91625e-08
1.57809e-05
-1.18076e-07
1.57694e-05
-1.40207e-07
1.57543e-05
-1.66167e-07
1.5735e-05
-1.96796e-07
1.57104e-05
-2.33222e-07
1.56793e-05
-2.76806e-07
1.56403e-05
-3.28858e-07
1.55916e-05
-3.90933e-07
-4.61841e-07
1.55293e-05
1.58114e-05
-2.37894e-09
1.58124e-05
-6.81405e-09
1.58135e-05
-9.8552e-09
1.58145e-05
-1.16474e-08
1.58154e-05
-1.29956e-08
1.58163e-05
-1.42355e-08
1.58171e-05
-1.53656e-08
1.58177e-05
-1.64598e-08
1.58183e-05
-1.76897e-08
1.58186e-05
-1.92129e-08
1.58187e-05
-2.11342e-08
1.58184e-05
-2.35228e-08
1.58178e-05
-2.64357e-08
1.58167e-05
-2.99444e-08
1.58149e-05
-3.41751e-08
1.58125e-05
-3.93576e-08
1.58092e-05
-4.58414e-08
1.58051e-05
-5.4032e-08
1.57999e-05
-6.42543e-08
1.57935e-05
-7.6648e-08
1.57856e-05
-9.12319e-08
1.57756e-05
-1.08086e-07
1.57629e-05
-1.2747e-07
1.57465e-05
-1.49829e-07
1.57256e-05
-1.75882e-07
1.56991e-05
-2.0668e-07
1.56658e-05
-2.43473e-07
1.56242e-05
-2.87285e-07
1.5573e-05
-3.39702e-07
-3.9783e-07
1.55089e-05
1.58115e-05
-2.93832e-09
1.58129e-05
-8.15615e-09
1.58142e-05
-1.11695e-08
1.58153e-05
-1.27158e-08
1.58162e-05
-1.39636e-08
1.58171e-05
-1.51325e-08
1.58179e-05
-1.61461e-08
1.58185e-05
-1.70984e-08
1.5819e-05
-1.81648e-08
1.58193e-05
-1.94831e-08
1.58193e-05
-2.11357e-08
1.58189e-05
-2.31764e-08
1.58181e-05
-2.56472e-08
1.58168e-05
-2.86064e-08
1.58148e-05
-3.21723e-08
1.5812e-05
-3.65771e-08
1.58084e-05
-4.21806e-08
1.58037e-05
-4.94165e-08
1.57981e-05
-5.86114e-08
1.57912e-05
-6.9781e-08
1.57827e-05
-8.27003e-08
1.57718e-05
-9.72186e-08
1.57578e-05
-1.13473e-07
1.57399e-05
-1.31866e-07
1.57171e-05
-1.53091e-07
1.56885e-05
-1.78138e-07
1.56532e-05
-2.08093e-07
1.56095e-05
-2.43653e-07
1.55565e-05
-2.86658e-07
-3.33096e-07
1.54918e-05
1.58118e-05
-3.80978e-09
1.58137e-05
-9.9889e-09
1.58151e-05
-1.26431e-08
1.58163e-05
-1.38448e-08
1.58173e-05
-1.49921e-08
1.58182e-05
-1.60511e-08
1.5819e-05
-1.6913e-08
1.58196e-05
-1.77099e-08
1.582e-05
-1.86021e-08
1.58203e-05
-1.96995e-08
1.58202e-05
-2.10551e-08
1.58197e-05
-2.27162e-08
1.58188e-05
-2.47339e-08
1.58174e-05
-2.71675e-08
1.58153e-05
-3.00712e-08
1.58122e-05
-3.3561e-08
1.5808e-05
-3.795e-08
1.58024e-05
-4.38128e-08
1.57955e-05
-5.16771e-08
1.57873e-05
-6.15738e-08
1.57776e-05
-7.30461e-08
1.5766e-05
-8.56e-08
1.57516e-05
-9.90303e-08
1.57331e-05
-1.1346e-07
1.57096e-05
-1.2952e-07
1.56798e-05
-1.48362e-07
1.56428e-05
-1.71117e-07
1.55974e-05
-1.98248e-07
1.55429e-05
-2.32157e-07
-2.67364e-07
1.54772e-05
1.58124e-05
-5.2578e-09
1.58149e-05
-1.25066e-08
1.58166e-05
-1.42643e-08
1.58178e-05
-1.51122e-08
1.5819e-05
-1.61307e-08
1.58199e-05
-1.7e-08
1.58207e-05
-1.76707e-08
1.58213e-05
-1.83007e-08
1.58217e-05
-1.90041e-08
1.58218e-05
-1.98708e-08
1.58217e-05
-2.0922e-08
1.58212e-05
-2.21868e-08
1.58201e-05
-2.36981e-08
1.58185e-05
-2.55171e-08
1.58161e-05
-2.76871e-08
1.58128e-05
-3.02811e-08
1.58084e-05
-3.35299e-08
1.58026e-05
-3.79921e-08
1.57951e-05
-4.42192e-08
1.57858e-05
-5.2264e-08
1.57744e-05
-6.16582e-08
1.57605e-05
-7.17069e-08
1.57435e-05
-8.20014e-08
1.57226e-05
-9.25736e-08
1.56971e-05
-1.04037e-07
1.56665e-05
-1.17694e-07
1.56295e-05
-1.34159e-07
1.55844e-05
-1.53117e-07
1.55305e-05
-1.78256e-07
-2.00433e-07
1.54635e-05
1.58135e-05
-7.82266e-09
1.58166e-05
-1.56169e-08
1.58183e-05
-1.59212e-08
1.58198e-05
-1.66124e-08
1.58211e-05
-1.73918e-08
1.5822e-05
-1.79781e-08
1.58228e-05
-1.84415e-08
1.58234e-05
-1.88999e-08
1.58238e-05
-1.94019e-08
1.58239e-05
-2.00083e-08
1.58238e-05
-2.07467e-08
1.58232e-05
-2.16341e-08
1.58222e-05
-2.26581e-08
1.58205e-05
-2.38533e-08
1.58181e-05
-2.52468e-08
1.58147e-05
-2.69045e-08
1.581e-05
-2.88641e-08
1.58034e-05
-3.14099e-08
1.57941e-05
-3.48887e-08
1.57814e-05
-3.95434e-08
1.57655e-05
-4.57171e-08
1.57471e-05
-5.33852e-08
1.57274e-05
-6.22705e-08
1.57066e-05
-7.17305e-08
1.56835e-05
-8.09695e-08
1.56565e-05
-9.07087e-08
1.56233e-05
-1.00958e-07
1.55808e-05
-1.1059e-07
1.55273e-05
-1.24763e-07
-1.24732e-07
1.54516e-05
1.5817e-05
-1.38862e-08
1.58204e-05
-1.89752e-08
1.58223e-05
-1.7881e-08
1.58237e-05
-1.80082e-08
1.58248e-05
-1.84921e-08
1.58257e-05
-1.88143e-08
1.58263e-05
-1.90342e-08
1.58266e-05
-1.92467e-08
1.58267e-05
-1.94721e-08
1.58264e-05
-1.97199e-08
1.58256e-05
-1.99946e-08
1.58243e-05
-2.02849e-08
1.58222e-05
-2.05574e-08
1.58192e-05
-2.08356e-08
1.58151e-05
-2.11577e-08
1.58098e-05
-2.16176e-08
1.58033e-05
-2.23461e-08
1.57956e-05
-2.37711e-08
1.5787e-05
-2.6231e-08
1.57771e-05
-2.96579e-08
1.57655e-05
-3.40692e-08
1.57513e-05
-3.92192e-08
1.57337e-05
-4.47083e-08
1.57118e-05
-4.98493e-08
1.56847e-05
-5.38452e-08
1.56513e-05
-5.72781e-08
1.56108e-05
-6.04237e-08
1.55621e-05
-6.19079e-08
1.55015e-05
-6.41622e-08
-2.323e-08
1.54e-05
1.57971e-05
1.57781e-05
1.57602e-05
1.57422e-05
1.57237e-05
1.57049e-05
1.56859e-05
1.56666e-05
1.56472e-05
1.56274e-05
1.56074e-05
1.55872e-05
1.55666e-05
1.55458e-05
1.55246e-05
1.5503e-05
1.54806e-05
1.54569e-05
1.54306e-05
1.5401e-05
1.53669e-05
1.53277e-05
1.5283e-05
1.52331e-05
1.51793e-05
1.5122e-05
1.50616e-05
1.49997e-05
1.49355e-05
1.49123e-05
1.55725e-05
-9.09988e-06
9.39539e-06
1.52332e-05
-9.18545e-06
9.52472e-06
1.48416e-05
-9.24794e-06
9.63953e-06
1.44069e-05
-9.28622e-06
9.72088e-06
1.39472e-05
-9.31908e-06
9.77884e-06
1.34752e-05
-9.35411e-06
9.82605e-06
1.29976e-05
-9.39269e-06
9.87027e-06
1.25172e-05
-9.43475e-06
9.91515e-06
1.2035e-05
-9.48015e-06
9.96239e-06
1.1551e-05
-9.52872e-06
1.00127e-05
1.1065e-05
-9.58041e-06
1.00664e-05
1.05767e-05
-9.63546e-06
1.01237e-05
1.00861e-05
-9.6944e-06
1.0185e-05
9.59327e-06
-9.75803e-06
1.02509e-05
9.09803e-06
-9.82732e-06
1.03226e-05
8.60036e-06
-9.90348e-06
1.04012e-05
8.10006e-06
-9.98805e-06
1.04883e-05
7.59685e-06
-1.0083e-05
1.05862e-05
7.09031e-06
-1.0191e-05
1.06975e-05
6.57979e-06
-1.03155e-05
1.0826e-05
6.06445e-06
-1.04613e-05
1.09767e-05
5.54259e-06
-1.06355e-05
1.11574e-05
5.01351e-06
-1.08469e-05
1.1376e-05
4.46936e-06
-1.1114e-05
1.16581e-05
3.91851e-06
-1.14436e-05
1.19944e-05
3.31903e-06
-1.19278e-05
1.25272e-05
2.72583e-06
-1.24622e-05
1.30554e-05
1.97582e-06
-1.36305e-05
1.43806e-05
1.20615e-06
-1.45121e-05
1.52818e-05
-1.84986e-05
1.97048e-05
1.58413e-05
-8.69516e-06
1.53905e-05
-8.73465e-06
1.49163e-05
-8.77371e-06
1.44347e-05
-8.80467e-06
1.39529e-05
-8.83729e-06
1.34729e-05
-8.87407e-06
1.29941e-05
-8.91396e-06
1.25154e-05
-8.956e-06
1.20354e-05
-9.00015e-06
1.15534e-05
-9.04671e-06
1.10691e-05
-9.0961e-06
1.05824e-05
-9.14881e-06
1.00935e-05
-9.20549e-06
9.60236e-06
-9.26687e-06
9.10888e-06
-9.33384e-06
8.61293e-06
-9.40754e-06
8.11428e-06
-9.4894e-06
7.6126e-06
-9.58131e-06
7.1074e-06
-9.68576e-06
6.59801e-06
-9.80608e-06
6.08345e-06
-9.94677e-06
5.56218e-06
-1.01142e-05
5.0325e-06
-1.03172e-05
4.48912e-06
-1.05706e-05
3.9335e-06
-1.0888e-05
3.3375e-06
-1.13318e-05
2.73174e-06
-1.18565e-05
1.98887e-06
-1.28877e-05
1.21283e-06
-1.37361e-05
-1.72858e-05
1.58056e-05
-8.24039e-06
1.53403e-05
-8.26942e-06
1.48694e-05
-8.30281e-06
1.43999e-05
-8.33513e-06
1.39305e-05
-8.36795e-06
1.34598e-05
-8.40332e-06
1.29867e-05
-8.44081e-06
1.25107e-05
-8.4801e-06
1.20321e-05
-8.52155e-06
1.15511e-05
-8.56567e-06
1.10679e-05
-8.61287e-06
1.05826e-05
-8.66351e-06
1.00952e-05
-8.71811e-06
9.60566e-06
-8.77733e-06
9.1138e-06
-8.84199e-06
8.61945e-06
-8.91318e-06
8.12233e-06
-8.99227e-06
7.62207e-06
-9.08106e-06
7.11818e-06
-9.18186e-06
6.6099e-06
-9.2978e-06
6.09621e-06
-9.43308e-06
5.57557e-06
-9.59358e-06
5.04585e-06
-9.78748e-06
4.50292e-06
-1.00276e-05
3.94444e-06
-1.03295e-05
3.35077e-06
-1.07381e-05
2.73577e-06
-1.12415e-05
1.99838e-06
-1.21503e-05
1.21345e-06
-1.29511e-05
-1.60723e-05
1.57961e-05
-7.78088e-06
1.53337e-05
-7.80694e-06
1.48669e-05
-7.83606e-06
1.4398e-05
-7.86618e-06
1.39273e-05
-7.89731e-06
1.34545e-05
-7.93047e-06
1.29795e-05
-7.96583e-06
1.25027e-05
-8.0033e-06
1.20242e-05
-8.04309e-06
1.15441e-05
-8.08553e-06
1.10622e-05
-8.13092e-06
1.05783e-05
-8.17963e-06
1.00923e-05
-8.23217e-06
9.6042e-06
-8.28919e-06
9.11372e-06
-8.3515e-06
8.62067e-06
-8.42014e-06
8.12479e-06
-8.49639e-06
7.62567e-06
-8.58194e-06
7.12275e-06
-8.67894e-06
6.61526e-06
-8.79031e-06
6.10208e-06
-8.91991e-06
5.58164e-06
-9.07314e-06
5.05164e-06
-9.25748e-06
4.50834e-06
-9.48433e-06
3.9475e-06
-9.76864e-06
3.35444e-06
-1.0145e-05
2.73171e-06
-1.06187e-05
1.99902e-06
-1.14176e-05
1.20809e-06
-1.21602e-05
-1.48643e-05
1.57803e-05
-7.31832e-06
1.53156e-05
-7.34225e-06
1.4848e-05
-7.36851e-06
1.43787e-05
-7.39682e-06
1.39081e-05
-7.42678e-06
1.34362e-05
-7.45855e-06
1.29627e-05
-7.49231e-06
1.24875e-05
-7.52813e-06
1.20106e-05
-7.56618e-06
1.15318e-05
-7.60676e-06
1.10511e-05
-7.65021e-06
1.05684e-05
-7.69691e-06
1.00836e-05
-7.74737e-06
9.5966e-06
-7.8022e-06
9.10725e-06
-7.86215e-06
8.61531e-06
-7.92819e-06
8.12044e-06
-8.00153e-06
7.62222e-06
-8.08371e-06
7.12005e-06
-8.17677e-06
6.6131e-06
-8.28336e-06
6.10022e-06
-8.40703e-06
5.57977e-06
-8.55269e-06
5.04938e-06
-8.72709e-06
4.50536e-06
-8.94031e-06
3.94267e-06
-9.20595e-06
3.34925e-06
-9.55162e-06
2.72074e-06
-9.99023e-06
1.99174e-06
-1.06886e-05
1.19565e-06
-1.13641e-05
-1.36686e-05
1.57586e-05
-6.85462e-06
1.52934e-05
-6.87704e-06
1.48264e-05
-6.90145e-06
1.43578e-05
-6.92828e-06
1.3888e-05
-6.95697e-06
1.34167e-05
-6.98727e-06
1.29438e-05
-7.01937e-06
1.24691e-05
-7.05349e-06
1.19928e-05
-7.08984e-06
1.15147e-05
-7.12867e-06
1.10348e-05
-7.1703e-06
1.0553e-05
-7.2151e-06
1.00692e-05
-7.26353e-06
9.58313e-06
-7.31618e-06
9.09472e-06
-7.37374e-06
8.60365e-06
-7.43712e-06
8.10957e-06
-7.50745e-06
7.61201e-06
-7.58616e-06
7.11034e-06
-7.6751e-06
6.60369e-06
-7.77671e-06
6.09088e-06
-7.89422e-06
5.57021e-06
-8.03202e-06
5.03924e-06
-8.19612e-06
4.49428e-06
-8.39536e-06
3.92997e-06
-8.64164e-06
3.33563e-06
-8.95729e-06
2.70283e-06
-9.35743e-06
1.97702e-06
-9.96279e-06
1.17806e-06
-1.05651e-05
-1.24905e-05
1.57322e-05
-6.39039e-06
1.52668e-05
-6.41159e-06
1.47999e-05
-6.43457e-06
1.43317e-05
-6.46006e-06
1.38622e-05
-6.48744e-06
1.33912e-05
-6.51634e-06
1.29188e-05
-6.54693e-06
1.24448e-05
-6.57949e-06
1.19692e-05
-6.61423e-06
1.14919e-05
-6.65138e-06
1.10128e-05
-6.69122e-06
1.05318e-05
-6.73411e-06
1.00488e-05
-6.7805e-06
9.56353e-06
-6.83092e-06
9.07584e-06
-6.88605e-06
8.58542e-06
-6.94671e-06
8.09191e-06
-7.01393e-06
7.59479e-06
-7.08904e-06
7.09341e-06
-7.17372e-06
6.58688e-06
-7.27017e-06
6.07394e-06
-7.38128e-06
5.55288e-06
-7.51095e-06
5.02121e-06
-7.66445e-06
4.47524e-06
-7.84938e-06
3.90949e-06
-8.07589e-06
3.31405e-06
-8.36185e-06
2.67827e-06
-8.72165e-06
1.95599e-06
-9.24051e-06
1.1558e-06
-9.76496e-06
-1.13347e-05
1.57009e-05
-5.92599e-06
1.52355e-05
-5.94617e-06
1.47688e-05
-5.96793e-06
1.43009e-05
-5.99215e-06
1.38317e-05
-6.01826e-06
1.33612e-05
-6.04581e-06
1.28892e-05
-6.07496e-06
1.24157e-05
-6.106e-06
1.19406e-05
-6.13916e-06
1.14639e-05
-6.17464e-06
1.09854e-05
-6.21271e-06
1.0505e-05
-6.2537e-06
1.00225e-05
-6.29805e-06
9.53786e-06
-6.34624e-06
9.05069e-06
-6.39889e-06
8.56074e-06
-6.45675e-06
8.06759e-06
-6.52078e-06
7.57073e-06
-6.59218e-06
7.06946e-06
-6.67245e-06
6.56285e-06
-6.76356e-06
6.04964e-06
-6.86807e-06
5.52806e-06
-6.98938e-06
4.99563e-06
-7.13202e-06
4.44863e-06
-7.30238e-06
3.88163e-06
-7.50888e-06
3.28518e-06
-7.7654e-06
2.6476e-06
-8.08407e-06
1.9292e-06
-8.52211e-06
1.12977e-06
-8.96553e-06
-1.0205e-05
1.56654e-05
-5.46144e-06
1.51999e-05
-5.48069e-06
1.47334e-05
-5.50137e-06
1.42656e-05
-5.52441e-06
1.37966e-05
-5.54927e-06
1.33264e-05
-5.57552e-06
1.28547e-05
-5.60328e-06
1.23815e-05
-5.63287e-06
1.19069e-05
-5.66448e-06
1.14306e-05
-5.69833e-06
1.09525e-05
-5.73464e-06
1.04725e-05
-5.77375e-06
9.99053e-06
-5.81603e-06
9.50624e-06
-5.86196e-06
9.01943e-06
-5.91207e-06
8.52976e-06
-5.96708e-06
8.03681e-06
-6.02783e-06
7.54003e-06
-6.0954e-06
7.03871e-06
-6.17113e-06
6.5319e-06
-6.25675e-06
6.0183e-06
-6.35448e-06
5.49615e-06
-6.46723e-06
4.96295e-06
-6.59882e-06
4.41501e-06
-6.75444e-06
3.84697e-06
-6.94084e-06
3.2498e-06
-7.16823e-06
2.6115e-06
-7.44577e-06
1.8975e-06
-7.80811e-06
1.10101e-06
-8.16903e-06
-9.10397e-06
1.56256e-05
-4.99676e-06
1.51601e-05
-5.01518e-06
1.46936e-05
-5.03487e-06
1.4226e-05
-5.05677e-06
1.37571e-05
-5.08042e-06
1.3287e-05
-5.1054e-06
1.28155e-05
-5.13183e-06
1.23426e-05
-5.15998e-06
1.18682e-05
-5.19008e-06
1.13922e-05
-5.22231e-06
1.09145e-05
-5.25687e-06
1.04348e-05
-5.29409e-06
9.95306e-06
-5.33429e-06
9.46902e-06
-5.37792e-06
8.9824e-06
-5.42546e-06
8.49286e-06
-5.47754e-06
7.99996e-06
-5.53493e-06
7.50314e-06
-5.59857e-06
7.00166e-06
-5.66965e-06
6.49455e-06
-5.74964e-06
5.98051e-06
-5.84045e-06
5.45777e-06
-5.94449e-06
4.92384e-06
-6.06489e-06
4.37511e-06
-6.20571e-06