/*--------------------------------*- C++ -*----------------------------------*\
  =========                 |
  \\      /  F ield         | OpenFOAM: The Open Source CFD Toolbox
   \\    /   O peration     | Website:  https://openfoam.org
    \\  /    A nd           | Version:  11
     \\/     M anipulation  |
\*---------------------------------------------------------------------------*/
FoamFile
{
    format      ascii;
    class       surfaceScalarField;
    location    "1";
    object      phi;
}
// * * * * * * * * * * * * * * * * * * * * * * * * * * * * * * * * * * * * * //

dimensions      [0 3 -1 0 0 0 0];

internalField   nonuniform List<scalar> 
24840
(
1.92415e-05
6.65192e-09
1.9235e-05
6.46585e-09
1.9231e-05
4.02254e-09
1.92295e-05
1.52827e-09
1.92306e-05
-1.18354e-09
1.92349e-05
-4.22083e-09
1.92424e-05
-7.55039e-09
1.92536e-05
-1.11941e-08
1.92688e-05
-1.51812e-08
1.92885e-05
-1.96567e-08
1.93132e-05
-2.47057e-08
1.93436e-05
-3.0444e-08
1.93806e-05
-3.70107e-08
1.94252e-05
-4.45634e-08
1.94785e-05
-5.32867e-08
1.95419e-05
-6.3402e-08
1.9617e-05
-7.5152e-08
1.97058e-05
-8.87839e-08
1.98103e-05
-1.04548e-07
1.9933e-05
-1.2269e-07
2.00765e-05
-1.4346e-07
2.02436e-05
-1.67119e-07
2.04377e-05
-1.94113e-07
2.06627e-05
-2.24979e-07
2.0923e-05
-2.60272e-07
2.12232e-05
-3.00191e-07
2.15691e-05
-3.45926e-07
2.1961e-05
-3.91931e-07
2.24219e-05
-4.60826e-07
-4.40152e-07
2.2862e-05
1.92529e-05
1.88449e-09
1.92588e-05
5.59464e-10
1.92666e-05
-3.75068e-09
1.92769e-05
-8.77642e-09
1.92899e-05
-1.42421e-08
1.9306e-05
-2.02396e-08
1.93252e-05
-2.68135e-08
1.9348e-05
-3.40108e-08
1.93748e-05
-4.19381e-08
1.94059e-05
-5.07506e-08
1.94418e-05
-6.05993e-08
1.9483e-05
-7.16941e-08
1.95303e-05
-8.43003e-08
1.95845e-05
-9.87228e-08
1.96465e-05
-1.15316e-07
1.97176e-05
-1.34449e-07
1.97989e-05
-1.56454e-07
1.98918e-05
-1.81696e-07
1.9998e-05
-2.1073e-07
2.01197e-05
-2.44395e-07
2.02599e-05
-2.83737e-07
2.04226e-05
-3.29817e-07
2.06121e-05
-3.83559e-07
2.08328e-05
-4.45665e-07
2.10891e-05
-5.16648e-07
2.13856e-05
-5.96659e-07
2.17265e-05
-6.86848e-07
2.2116e-05
-7.81396e-07
2.25599e-05
-9.04705e-07
-9.27019e-07
2.30467e-05
1.9251e-05
-1.00064e-09
1.92564e-05
-4.78102e-09
1.92637e-05
-1.11089e-08
1.92736e-05
-1.86872e-08
1.92863e-05
-2.69098e-08
1.93019e-05
-3.58154e-08
1.93206e-05
-4.55351e-08
1.93428e-05
-5.61724e-08
1.93687e-05
-6.78713e-08
1.93988e-05
-8.0831e-08
1.94335e-05
-9.52939e-08
1.94733e-05
-1.1157e-07
1.95191e-05
-1.30037e-07
1.95715e-05
-1.51136e-07
1.96316e-05
-1.75388e-07
1.97005e-05
-2.03372e-07
1.97797e-05
-2.35668e-07
1.98709e-05
-2.72888e-07
1.9976e-05
-3.15806e-07
2.0097e-05
-3.65465e-07
2.02365e-05
-4.23172e-07
2.0397e-05
-4.90394e-07
2.05821e-05
-5.68635e-07
2.07958e-05
-6.5931e-07
2.10428e-05
-7.63703e-07
2.13287e-05
-8.82498e-07
2.16593e-05
-1.01744e-06
2.20399e-05
-1.16205e-06
2.24777e-05
-1.34252e-06
-1.43155e-06
2.29823e-05
1.92501e-05
-2.9419e-09
1.92548e-05
-9.49798e-09
1.92618e-05
-1.80756e-08
1.92712e-05
-2.80855e-08
1.92833e-05
-3.90125e-08
1.92983e-05
-5.081e-08
1.93163e-05
-6.36184e-08
1.93378e-05
-7.75905e-08
1.93628e-05
-9.29143e-08
1.93918e-05
-1.0985e-07
1.94253e-05
-1.28736e-07
1.94637e-05
-1.49984e-07
1.95077e-05
-1.74082e-07
1.95582e-05
-2.01591e-07
1.9616e-05
-2.33166e-07
1.96821e-05
-2.69554e-07
1.97581e-05
-3.1159e-07
1.98454e-05
-3.60223e-07
1.99462e-05
-4.16574e-07
2.00627e-05
-4.81975e-07
2.01975e-05
-5.57985e-07
2.03534e-05
-6.46356e-07
2.05338e-05
-7.48996e-07
2.07424e-05
-8.6788e-07
2.09837e-05
-1.00501e-06
2.1263e-05
-1.16186e-06
2.15865e-05
-1.34092e-06
2.19611e-05
-1.53663e-06
2.23928e-05
-1.77417e-06
-1.93469e-06
2.28959e-05
1.92496e-05
-4.36461e-09
1.92537e-05
-1.35992e-08
1.92601e-05
-2.45262e-08
1.9269e-05
-3.69293e-08
1.92804e-05
-5.04693e-08
1.92947e-05
-6.50578e-08
1.93119e-05
-8.08211e-08
1.93322e-05
-9.79612e-08
1.9356e-05
-1.1673e-07
1.93837e-05
-1.37455e-07
1.94155e-05
-1.60547e-07
1.9452e-05
-1.86508e-07
1.94938e-05
-2.15933e-07
1.95418e-05
-2.49519e-07
1.95967e-05
-2.88075e-07
1.96596e-05
-3.32519e-07
1.97319e-05
-3.83875e-07
1.9815e-05
-4.43306e-07
1.99106e-05
-5.12194e-07
2.00209e-05
-5.922e-07
2.01482e-05
-6.85288e-07
2.02955e-05
-7.93692e-07
2.04663e-05
-9.19852e-07
2.06648e-05
-1.06633e-06
2.08956e-05
-1.23579e-06
2.11642e-05
-1.4305e-06
2.1477e-05
-1.65373e-06
2.18418e-05
-1.90142e-06
2.22649e-05
-2.19724e-06
-2.43282e-06
2.2763e-05
1.92493e-05
-5.54232e-09
1.92529e-05
-1.7217e-08
1.92589e-05
-3.04572e-08
1.92671e-05
-4.51785e-08
1.92778e-05
-6.1187e-08
1.92912e-05
-7.84089e-08
1.93073e-05
-9.6964e-08
1.93264e-05
-1.17089e-07
1.93488e-05
-1.39091e-07
1.93747e-05
-1.63359e-07
1.94045e-05
-1.90379e-07
1.94388e-05
-2.20739e-07
1.9478e-05
-2.55134e-07
1.95228e-05
-2.94371e-07
1.95741e-05
-3.39386e-07
1.96329e-05
-3.91253e-07
1.97002e-05
-4.51202e-07
1.97775e-05
-5.20654e-07
1.98666e-05
-6.01279e-07
1.99695e-05
-6.95046e-07
2.00884e-05
-8.04244e-07
2.02262e-05
-9.3149e-07
2.03861e-05
-1.07973e-06
2.0572e-05
-1.2522e-06
2.07886e-05
-1.4524e-06
2.10418e-05
-1.68368e-06
2.13384e-05
-1.95036e-06
2.16874e-05
-2.25044e-06
2.20963e-05
-2.60611e-06
-2.92245e-06
2.25859e-05
1.92492e-05
-6.5764e-09
1.92524e-05
-2.04217e-08
1.92578e-05
-3.58369e-08
1.92653e-05
-5.27525e-08
1.92752e-05
-7.10616e-08
1.92875e-05
-9.07258e-08
1.93024e-05
-1.11869e-07
1.93201e-05
-1.34753e-07
1.93407e-05
-1.59734e-07
1.93646e-05
-1.87262e-07
1.93921e-05
-2.17887e-07
1.94237e-05
-2.52275e-07
1.94598e-05
-2.91209e-07
1.9501e-05
-3.35607e-07
1.95481e-05
-3.86529e-07
1.96021e-05
-4.45195e-07
1.96639e-05
-5.13006e-07
1.97348e-05
-5.91582e-07
1.98164e-05
-6.82826e-07
1.99103e-05
-7.88991e-07
2.00188e-05
-9.12723e-07
2.01444e-05
-1.0571e-06
2.02903e-05
-1.22565e-06
2.04604e-05
-1.42232e-06
2.06596e-05
-1.65153e-06
2.08937e-05
-1.91779e-06
2.117e-05
-2.22668e-06
2.14983e-05
-2.57878e-06
2.18873e-05
-2.99509e-06
-3.3973e-06
2.23622e-05
1.9249e-05
-7.49171e-09
1.92519e-05
-2.32537e-08
1.92567e-05
-4.06532e-08
1.92635e-05
-5.95943e-08
1.92725e-05
-8.00102e-08
1.92837e-05
-1.01896e-07
1.92972e-05
-1.25391e-07
1.93132e-05
-1.50777e-07
1.93319e-05
-1.78453e-07
1.93536e-05
-2.08918e-07
1.93785e-05
-2.42784e-07
1.9407e-05
-2.80783e-07
1.94396e-05
-3.23782e-07
1.94767e-05
-3.72784e-07
1.95192e-05
-4.28955e-07
1.95676e-05
-4.93643e-07
1.9623e-05
-5.68403e-07
1.96865e-05
-6.55046e-07
1.97593e-05
-7.55698e-07
1.98432e-05
-8.7287e-07
1.994e-05
-1.00953e-06
2.00521e-05
-1.16916e-06
2.01823e-05
-1.35585e-06
2.03342e-05
-1.57429e-06
2.05126e-05
-1.82986e-06
2.07232e-05
-2.12843e-06
2.09736e-05
-2.4771e-06
2.12744e-05
-2.87958e-06
2.16354e-05
-3.35601e-06
-3.84821e-06
2.20863e-05
1.92489e-05
-8.29345e-09
1.92514e-05
-2.57318e-08
1.92557e-05
-4.48951e-08
1.92617e-05
-6.56542e-08
1.92697e-05
-8.79552e-08
1.92796e-05
-1.11818e-07
1.92916e-05
-1.37399e-07
1.93058e-05
-1.65e-07
1.93224e-05
-1.95051e-07
1.93416e-05
-2.28097e-07
1.93636e-05
-2.64799e-07
1.93888e-05
-3.05949e-07
1.94175e-05
-3.52476e-07
1.94501e-05
-4.05467e-07
1.94874e-05
-4.66177e-07
1.95298e-05
-5.36062e-07
1.95782e-05
-6.16804e-07
1.96335e-05
-7.10359e-07
1.96968e-05
-8.19028e-07
1.97695e-05
-9.45546e-07
1.98532e-05
-1.09317e-06
1.99498e-05
-1.2658e-06
2.0062e-05
-1.46805e-06
2.01931e-05
-1.70534e-06
2.03472e-05
-1.98404e-06
2.05302e-05
-2.31138e-06
2.07493e-05
-2.69618e-06
2.10153e-05
-3.14567e-06
2.13389e-05
-3.67957e-06
-4.26311e-06
2.17538e-05
1.92488e-05
-8.98211e-09
1.92509e-05
-2.78598e-08
1.92546e-05
-4.85488e-08
1.92598e-05
-7.08902e-08
1.92667e-05
-9.48301e-08
1.92753e-05
-1.20403e-07
1.92857e-05
-1.47781e-07
1.9298e-05
-1.77282e-07
1.93123e-05
-2.09364e-07
1.93288e-05
-2.44604e-07
1.93477e-05
-2.83707e-07
1.93693e-05
-3.27511e-07
1.93938e-05
-3.77001e-07
1.94216e-05
-4.33321e-07
1.94533e-05
-4.97799e-07
1.94892e-05
-5.71973e-07
1.953e-05
-6.57621e-07
1.95764e-05
-7.56818e-07
1.96294e-05
-8.72005e-07
1.969e-05
-1.0061e-06
1.97594e-05
-1.1626e-06
1.98393e-05
-1.34572e-06
1.99318e-05
-1.56056e-06
2.00397e-05
-1.81318e-06
2.01665e-05
-2.11089e-06
2.03174e-05
-2.46227e-06
2.04992e-05
-2.87794e-06
2.07224e-05
-3.36887e-06
2.09976e-05
-3.95478e-06
-4.62672e-06
2.13612e-05
1.92487e-05
-9.55658e-09
1.92505e-05
-2.96346e-08
1.92535e-05
-5.15995e-08
1.92579e-05
-7.5268e-08
1.92637e-05
-1.0058e-07
1.92708e-05
-1.27577e-07
1.92795e-05
-1.56442e-07
1.92897e-05
-1.87508e-07
1.93016e-05
-2.21253e-07
1.93153e-05
-2.58279e-07
1.93309e-05
-2.99323e-07
1.93486e-05
-3.45257e-07
1.93688e-05
-3.97105e-07
1.93915e-05
-4.56055e-07
1.94172e-05
-5.23487e-07
1.94462e-05
-6.00994e-07
1.9479e-05
-6.90422e-07
1.95161e-05
-7.93922e-07
1.95581e-05
-9.14027e-07
1.96058e-05
-1.05377e-06
1.966e-05
-1.21683e-06
1.9722e-05
-1.40768e-06
1.97932e-05
-1.63175e-06
1.98757e-05
-1.89568e-06
1.99723e-05
-2.20754e-06
2.00872e-05
-2.57713e-06
2.0226e-05
-3.01675e-06
2.03981e-05
-3.54101e-06
2.06133e-05
-4.16994e-06
-4.92129e-06
2.09079e-05
1.92486e-05
-1.00153e-08
1.925e-05
-3.10515e-08
1.92524e-05
-5.40344e-08
1.92559e-05
-7.87605e-08
1.92605e-05
-1.05161e-07
1.92662e-05
-1.33281e-07
1.92731e-05
-1.63309e-07
1.92812e-05
-1.9559e-07
1.92905e-05
-2.30611e-07
1.93012e-05
-2.68997e-07
1.93134e-05
-3.11502e-07
1.93272e-05
-3.59022e-07
1.93427e-05
-4.12603e-07
1.93601e-05
-4.73462e-07
1.93796e-05
-5.43005e-07
1.94015e-05
-6.22855e-07
1.94259e-05
-7.1489e-07
1.94533e-05
-8.21294e-07
1.94839e-05
-9.44643e-07
1.95182e-05
-1.08803e-06
1.95566e-05
-1.25522e-06
1.95997e-05
-1.45083e-06
1.96485e-05
-1.68052e-06
1.97041e-05
-1.95126e-06
1.97682e-05
-2.2717e-06
1.98437e-05
-2.65256e-06
1.99344e-05
-3.10749e-06
2.00477e-05
-3.65426e-06
2.01911e-05
-4.31334e-06
-5.12766e-06
2.03974e-05
1.92485e-05
-1.03572e-08
1.92495e-05
-3.21064e-08
1.92513e-05
-5.58439e-08
1.92539e-05
-8.1349e-08
1.92573e-05
-1.08545e-07
1.92615e-05
-1.37474e-07
1.92665e-05
-1.6833e-07
1.92724e-05
-2.01461e-07
1.92791e-05
-2.37364e-07
1.92868e-05
-2.7667e-07
1.92955e-05
-3.20145e-07
1.93051e-05
-3.68693e-07
1.93159e-05
-4.23372e-07
1.93278e-05
-4.85403e-07
1.9341e-05
-5.56199e-07
1.93556e-05
-6.37384e-07
1.93715e-05
-7.30834e-07
1.93889e-05
-8.38725e-07
1.94079e-05
-9.63619e-07
1.94285e-05
-1.1086e-06
1.94507e-05
-1.27741e-06
1.94745e-05
-1.47469e-06
1.95002e-05
-1.70617e-06
1.95278e-05
-1.97892e-06
1.9558e-05
-2.30183e-06
1.95915e-05
-2.68611e-06
1.96303e-05
-3.14624e-06
1.96782e-05
-3.70222e-06
1.97396e-05
-4.37469e-06
-5.22751e-06
1.98394e-05
1.92484e-05
-1.05818e-08
1.9249e-05
-3.27976e-08
1.92502e-05
-5.7023e-08
1.92519e-05
-8.30231e-08
1.92541e-05
-1.10713e-07
1.92567e-05
-1.40132e-07
1.92599e-05
-1.71472e-07
1.92635e-05
-2.05085e-07
1.92676e-05
-2.41466e-07
1.92722e-05
-2.81248e-07
1.92772e-05
-3.25196e-07
1.92827e-05
-3.74213e-07
1.92887e-05
-4.29348e-07
1.92951e-05
-4.91815e-07
1.93019e-05
-5.63007e-07
1.93091e-05
-6.44525e-07
1.93165e-05
-7.38205e-07
1.93239e-05
-8.46171e-07
1.93312e-05
-9.70917e-07
1.9338e-05
-1.11543e-06
1.9344e-05
-1.28337e-06
1.93485e-05
-1.47922e-06
1.93509e-05
-1.70859e-06
1.93504e-05
-1.97839e-06
1.9346e-05
-2.29738e-06
1.93365e-05
-2.6767e-06
1.93212e-05
-3.13088e-06
1.92998e-05
-3.68083e-06
1.92718e-05
-4.34668e-06
-5.20615e-06
1.92504e-05
1.92482e-05
-1.06886e-08
1.92486e-05
-3.31269e-08
1.92491e-05
-5.75731e-08
1.92499e-05
-8.37824e-08
1.92508e-05
-1.11662e-07
1.92519e-05
-1.41247e-07
1.92532e-05
-1.72727e-07
1.92546e-05
-2.06449e-07
1.9256e-05
-2.42905e-07
1.92575e-05
-2.82718e-07
1.92589e-05
-3.26644e-07
1.92603e-05
-3.75573e-07
1.92615e-05
-4.30533e-07
1.92624e-05
-4.9271e-07
1.92628e-05
-5.63458e-07
1.92626e-05
-6.44326e-07
1.92615e-05
-7.37081e-07
1.92591e-05
-8.4375e-07
1.92549e-05
-9.66705e-07
1.92482e-05
-1.10877e-06
1.92382e-05
-1.2734e-06
1.92238e-05
-1.46482e-06
1.92035e-05
-1.68827e-06
1.91754e-05
-1.95025e-06
1.91369e-05
-2.25895e-06
1.90851e-05
-2.62482e-06
1.90157e-05
-3.06154e-06
1.89242e-05
-3.58932e-06
1.88042e-05
-4.22666e-06
-5.05582e-06
1.86539e-05
1.92481e-05
-1.06818e-08
1.92481e-05
-3.30981e-08
1.9248e-05
-5.75007e-08
1.92479e-05
-8.36351e-08
1.92476e-05
-1.11402e-07
1.92472e-05
-1.4083e-07
1.92466e-05
-1.72106e-07
1.92457e-05
-2.05568e-07
1.92445e-05
-2.41697e-07
1.92429e-05
-2.81103e-07
1.92408e-05
-3.24522e-07
1.9238e-05
-3.72818e-07
1.92345e-05
-4.26987e-07
1.92299e-05
-4.8817e-07
1.92241e-05
-5.57663e-07
1.92167e-05
-6.36941e-07
1.92073e-05
-7.27668e-07
1.91953e-05
-8.31742e-07
1.918e-05
-9.51359e-07
1.91603e-05
-1.08912e-06
1.91351e-05
-1.24816e-06
1.91026e-05
-1.43233e-06
1.90606e-05
-1.64633e-06
1.90063e-05
-1.89594e-06
1.89357e-05
-2.18837e-06
1.88437e-05
-2.53278e-06
1.87232e-05
-2.94103e-06
1.85648e-05
-3.4309e-06
1.83561e-05
-4.01797e-06
-4.7786e-06
1.80789e-05
1.9248e-05
-1.05616e-08
1.92476e-05
-3.27218e-08
1.9247e-05
-5.68217e-08
1.92459e-05
-8.26013e-08
1.92445e-05
-1.09955e-07
1.92426e-05
-1.38909e-07
1.92401e-05
-1.69641e-07
1.9237e-05
-2.02479e-07
1.92332e-05
-2.3789e-07
1.92286e-05
-2.76461e-07
1.92229e-05
-3.18902e-07
1.92162e-05
-3.6604e-07
1.9208e-05
-4.18827e-07
1.91982e-05
-4.78344e-07
1.91863e-05
-5.45815e-07
1.9172e-05
-6.22618e-07
1.91546e-05
-7.10292e-07
1.91335e-05
-8.10571e-07
1.91075e-05
-9.25435e-07
1.90756e-05
-1.0572e-06
1.90361e-05
-1.20862e-06
1.89868e-05
-1.38303e-06
1.89249e-05
-1.58444e-06
1.88466e-05
-1.81769e-06
1.87469e-05
-2.08864e-06
1.86187e-05
-2.40461e-06
1.84525e-05
-2.7748e-06
1.82346e-05
-3.21297e-06
1.79471e-05
-3.73047e-06
-4.38797e-06
1.75564e-05
1.92479e-05
-1.03338e-08
1.92472e-05
-3.20105e-08
1.92459e-05
-5.55576e-08
1.9244e-05
-8.07103e-08
1.92414e-05
-1.07359e-07
1.92381e-05
-1.35527e-07
1.92338e-05
-1.65384e-07
1.92286e-05
-1.97247e-07
1.92222e-05
-2.3156e-07
1.92147e-05
-2.68885e-07
1.92057e-05
-3.09895e-07
1.9195e-05
-3.55376e-07
1.91824e-05
-4.06222e-07
1.91675e-05
-4.63445e-07
1.91499e-05
-5.2818e-07
1.91289e-05
-6.01693e-07
1.9104e-05
-6.8538e-07
1.90742e-05
-7.80786e-07
1.90384e-05
-8.89644e-07
1.89952e-05
-1.01394e-06
1.89426e-05
-1.15599e-06
1.88781e-05
-1.31854e-06
1.87984e-05
-1.5048e-06
1.86992e-05
-1.71846e-06
1.85744e-05
-1.96381e-06
1.84157e-05
-2.2459e-06
1.82115e-05
-2.57066e-06
1.79452e-05
-2.94666e-06
1.75948e-05
-3.38005e-06
-3.9083e-06
1.71151e-05
1.92478e-05
-1.00043e-08
1.92468e-05
-3.09829e-08
1.9245e-05
-5.37385e-08
1.92422e-05
-7.80026e-08
1.92386e-05
-1.03664e-07
1.92338e-05
-1.30744e-07
1.92278e-05
-1.59408e-07
1.92205e-05
-1.89958e-07
1.92118e-05
-2.2281e-07
1.92014e-05
-2.58496e-07
1.91891e-05
-2.9765e-07
1.91747e-05
-3.41003e-07
1.91579e-05
-3.89388e-07
1.91382e-05
-4.43736e-07
1.91151e-05
-5.05085e-07
1.9088e-05
-5.74575e-07
1.90561e-05
-6.53447e-07
1.90183e-05
-7.43043e-07
1.89735e-05
-8.44829e-07
1.892e-05
-9.60438e-07
1.88557e-05
-1.09172e-06
1.8778e-05
-1.24079e-06
1.86831e-05
-1.40996e-06
1.85664e-05
-1.60173e-06
1.84213e-05
-1.81867e-06
1.82387e-05
-2.06334e-06
1.80062e-05
-2.33816e-06
1.77054e-05
-2.64585e-06
1.73124e-05
-2.9871e-06
-3.37211e-06
1.67762e-05
1.92477e-05
-9.58078e-09
1.92464e-05
-2.96629e-08
1.92441e-05
-5.14034e-08
1.92406e-05
-7.45295e-08
1.92358e-05
-9.8931e-08
1.92297e-05
-1.24635e-07
1.92221e-05
-1.51803e-07
1.92129e-05
-1.80717e-07
1.92019e-05
-2.11767e-07
1.91888e-05
-2.45447e-07
1.91735e-05
-2.82344e-07
1.91556e-05
-3.23136e-07
1.91348e-05
-3.68583e-07
1.91106e-05
-4.19531e-07
1.90824e-05
-4.7691e-07
1.90496e-05
-5.41732e-07
1.90112e-05
-6.15075e-07
1.89663e-05
-6.98073e-07
1.89134e-05
-7.91921e-07
1.88508e-05
-8.97896e-07
1.87765e-05
-1.01737e-06
1.86875e-05
-1.15182e-06
1.85802e-05
-1.30268e-06
1.84497e-05
-1.47126e-06
1.82895e-05
-1.65839e-06
1.80903e-05
-1.86421e-06
1.78398e-05
-2.08766e-06
1.75197e-05
-2.32575e-06
1.71066e-05
-2.57401e-06
-2.81559e-06
1.65501e-05
1.92476e-05
-9.07321e-09
1.9246e-05
-2.80815e-08
1.92432e-05
-4.8601e-08
1.92391e-05
-7.03531e-08
1.92334e-05
-9.3236e-08
1.9226e-05
-1.1729e-07
1.92169e-05
-1.42676e-07
1.92058e-05
-1.69652e-07
1.91926e-05
-1.98579e-07
1.91771e-05
-2.2991e-07
1.9159e-05
-2.64186e-07
1.91378e-05
-3.0202e-07
1.91134e-05
-3.441e-07
1.9085e-05
-3.91179e-07
1.90522e-05
-4.44078e-07
1.90141e-05
-5.03676e-07
1.89699e-05
-5.70888e-07
1.89185e-05
-6.46648e-07
1.88585e-05
-7.31893e-07
1.87881e-05
-8.27556e-07
1.87053e-05
-9.34562e-07
1.86073e-05
-1.05377e-06
1.84904e-05
-1.1858e-06
1.835e-05
-1.33084e-06
1.81798e-05
-1.48818e-06
1.79713e-05
-1.65574e-06
1.77131e-05
-1.82942e-06
1.73885e-05
-2.00122e-06
1.6977e-05
-2.16249e-06
-2.27335e-06
1.64348e-05
1.92476e-05
-8.49426e-09
1.92458e-05
-2.62785e-08
1.92425e-05
-4.53916e-08
1.92377e-05
-6.55465e-08
1.92312e-05
-8.66638e-08
1.92227e-05
-1.08811e-07
1.92122e-05
-1.32147e-07
1.91994e-05
-1.56907e-07
1.91842e-05
-1.83416e-07
1.91664e-05
-2.12086e-07
1.91456e-05
-2.43406e-07
1.91215e-05
-2.77927e-07
1.90937e-05
-3.16256e-07
1.90616e-05
-3.59055e-07
1.90245e-05
-4.07034e-07
1.89818e-05
-4.60943e-07
1.89325e-05
-5.21544e-07
1.88754e-05
-5.89584e-07
1.88093e-05
-6.65758e-07
1.87324e-05
-7.50688e-07
1.86427e-05
-8.44889e-07
1.85376e-05
-9.48685e-07
1.84138e-05
-1.06201e-06
1.82671e-05
-1.18407e-06
1.80918e-05
-1.31288e-06
1.78806e-05
-1.44457e-06
1.76239e-05
-1.57266e-06
1.7308e-05
-1.68531e-06
1.69166e-05
-1.7711e-06
-1.77357e-06
1.64168e-05
1.92475e-05
-7.8605e-09
1.92455e-05
-2.43069e-08
1.9242e-05
-4.18501e-08
1.92366e-05
-6.01933e-08
1.92293e-05
-7.93094e-08
1.92198e-05
-9.93113e-08
1.9208e-05
-1.20353e-07
1.91937e-05
-1.4264e-07
1.91768e-05
-1.66461e-07
1.91569e-05
-1.92188e-07
1.91337e-05
-2.20257e-07
1.91069e-05
-2.51151e-07
1.90761e-05
-2.85398e-07
1.90406e-05
-3.23565e-07
1.89998e-05
-3.66252e-07
1.8953e-05
-4.14083e-07
1.88991e-05
-4.67686e-07
1.88372e-05
-5.27645e-07
1.87658e-05
-5.94456e-07
1.86836e-05
-6.68477e-07
1.85886e-05
-7.49878e-07
1.84785e-05
-8.38537e-07
1.83503e-05
-9.33813e-07
1.82004e-05
-1.03419e-06
1.80242e-05
-1.13671e-06
1.78159e-05
-1.23626e-06
1.7568e-05
-1.3248e-06
1.72709e-05
-1.38819e-06
1.69135e-05
-1.41365e-06
-1.33586e-06
1.64758e-05
1.92475e-05
-7.19581e-09
1.92454e-05
-2.22408e-08
1.92416e-05
-3.80671e-08
1.92358e-05
-5.43857e-08
1.92278e-05
-7.12776e-08
1.92174e-05
-8.89158e-08
1.92045e-05
-1.07439e-07
1.91888e-05
-1.27018e-07
1.91703e-05
-1.47911e-07
1.91486e-05
-1.70447e-07
1.91233e-05
-1.95004e-07
1.90942e-05
-2.21995e-07
1.90606e-05
-2.51869e-07
1.90222e-05
-2.85106e-07
1.89781e-05
-3.22208e-07
1.89277e-05
-3.63687e-07
1.88701e-05
-4.10036e-07
1.88041e-05
-4.61687e-07
1.87286e-05
-5.1896e-07
1.86422e-05
-5.82012e-07
1.85431e-05
-6.50776e-07
1.84293e-05
-7.24826e-07
1.82987e-05
-8.03133e-07
1.81481e-05
-8.83676e-07
1.79743e-05
-9.62907e-07
1.77731e-05
-1.035e-06
1.75395e-05
-1.09125e-06
1.7268e-05
-1.1167e-06
1.6953e-05
-1.09863e-06
-9.70466e-07
1.65876e-05
1.92475e-05
-6.54087e-09
1.92454e-05
-2.0192e-08
1.92415e-05
-3.4147e-08
1.92353e-05
-4.8215e-08
1.92267e-05
-6.26775e-08
1.92156e-05
-7.7761e-08
1.92017e-05
-9.35664e-08
1.91849e-05
-1.1023e-07
1.9165e-05
-1.27983e-07
1.91417e-05
-1.47111e-07
1.91146e-05
-1.67933e-07
1.90834e-05
-1.90794e-07
1.90476e-05
-2.16062e-07
1.90066e-05
-2.44123e-07
1.89598e-05
-2.75372e-07
1.89063e-05
-3.10219e-07
1.88453e-05
-3.49064e-07
1.87759e-05
-3.92249e-07
1.86969e-05
-4.39989e-07
1.86072e-05
-4.92302e-07
1.85054e-05
-5.48931e-07
1.83898e-05
-6.09224e-07
1.82585e-05
-6.71892e-07
1.81095e-05
-7.34655e-07
1.79403e-05
-7.93758e-07
1.77486e-05
-8.4329e-07
1.75321e-05
-8.74704e-07
1.72891e-05
-8.73675e-07
1.70192e-05
-8.28728e-07
-6.7852e-07
1.67272e-05
1.92476e-05
-5.97062e-09
1.92457e-05
-1.83461e-08
1.92418e-05
-3.02102e-08
1.92353e-05
-4.17703e-08
1.92263e-05
-5.36132e-08
1.92145e-05
-6.59693e-08
1.91998e-05
-7.88769e-08
1.9182e-05
-9.24471e-08
1.91609e-05
-1.06884e-07
1.91362e-05
-1.22427e-07
1.91076e-05
-1.39329e-07
1.90747e-05
-1.57859e-07
1.90369e-05
-1.78315e-07
1.89938e-05
-2.0101e-07
1.89447e-05
-2.26265e-07
1.88889e-05
-2.54385e-07
1.88255e-05
-2.85646e-07
1.87535e-05
-3.20266e-07
1.86719e-05
-3.58369e-07
1.85795e-05
-3.99948e-07
1.84753e-05
-4.44753e-07
1.83582e-05
-4.92105e-07
1.82269e-05
-5.40623e-07
1.80802e-05
-5.87922e-07
1.79167e-05
-6.30294e-07
1.77357e-05
-6.62204e-07
1.7537e-05
-6.76026e-07
1.73225e-05
-6.5923e-07
1.70963e-05
-6.02473e-07
-4.54018e-07
1.68718e-05
1.92478e-05
-5.65754e-09
1.92464e-05
-1.69307e-08
1.92426e-05
-2.63885e-08
1.9236e-05
-3.51988e-08
1.92267e-05
-4.42608e-08
1.92144e-05
-5.3715e-08
1.91991e-05
-6.35492e-08
1.91805e-05
-7.38683e-08
1.91585e-05
-8.48431e-08
1.91327e-05
-9.66553e-08
1.91028e-05
-1.09492e-07
1.90685e-05
-1.23554e-07
1.90293e-05
-1.39055e-07
1.89845e-05
-1.5622e-07
1.89335e-05
-1.75277e-07
1.88756e-05
-1.96455e-07
1.88099e-05
-2.19991e-07
1.87357e-05
-2.46079e-07
1.86522e-05
-2.74801e-07
1.85583e-05
-3.06109e-07
1.84533e-05
-3.39683e-07
1.83359e-05
-3.74763e-07
1.82053e-05
-4.10005e-07
1.80607e-05
-4.43307e-07
1.7902e-05
-4.71579e-07
1.773e-05
-4.90236e-07
1.75471e-05
-4.93117e-07
1.73578e-05
-4.69968e-07
1.71702e-05
-4.148e-07
-2.86832e-07
1.7003e-05
1.92486e-05
-6.1192e-09
1.92477e-05
-1.6068e-08
1.9244e-05
-2.26668e-08
1.92374e-05
-2.85516e-08
1.92278e-05
-3.47226e-08
1.92153e-05
-4.11418e-08
1.91995e-05
-4.77808e-08
1.91804e-05
-5.47422e-08
1.91577e-05
-6.21548e-08
1.91312e-05
-7.01373e-08
1.91005e-05
-7.88074e-08
1.90652e-05
-8.82953e-08
1.90249e-05
-9.87486e-08
1.8979e-05
-1.10324e-07
1.89269e-05
-1.23173e-07
1.88679e-05
-1.37437e-07
1.88012e-05
-1.53357e-07
1.87262e-05
-1.7104e-07
1.86418e-05
-1.90358e-07
1.85468e-05
-2.1118e-07
1.84404e-05
-2.33263e-07
1.83218e-05
-2.56124e-07
1.81907e-05
-2.78935e-07
1.80477e-05
-3.0027e-07
1.78939e-05
-3.17833e-07
1.77316e-05
-3.27948e-07
1.75643e-05
-3.25818e-07
1.73972e-05
-3.02844e-07
1.72406e-05
-2.58161e-07
-1.58912e-07
1.71127e-05
1.92514e-05
-9.39683e-09
1.92506e-05
-1.5238e-08
1.92462e-05
-1.83203e-08
1.92392e-05
-2.1492e-08
1.92291e-05
-2.46793e-08
1.92159e-05
-2.78871e-08
1.91993e-05
-3.1216e-08
1.91793e-05
-3.47346e-08
1.91556e-05
-3.84955e-08
1.91281e-05
-4.25607e-08
1.90963e-05
-4.69988e-08
1.90598e-05
-5.18788e-08
1.90184e-05
-5.72716e-08
1.89713e-05
-6.3251e-08
1.8918e-05
-6.98836e-08
1.88578e-05
-7.72122e-08
1.87896e-05
-8.51462e-08
1.87122e-05
-9.36924e-08
1.86249e-05
-1.03035e-07
1.8527e-05
-1.13258e-07
1.84181e-05
-1.24354e-07
1.82981e-05
-1.3618e-07
1.81674e-05
-1.48255e-07
1.80267e-05
-1.59572e-07
1.78774e-05
-1.68464e-07
1.77219e-05
-1.72461e-07
1.75646e-05
-1.68538e-07
1.74131e-05
-1.51315e-07
1.72747e-05
-1.19738e-07
-3.3329e-08
1.71491e-05
1.92387e-05
1.92235e-05
1.92052e-05
1.91837e-05
1.9159e-05
1.91311e-05
1.90999e-05
1.90652e-05
1.90267e-05
1.89841e-05
1.89371e-05
1.88852e-05
1.8828e-05
1.87647e-05
1.86948e-05
1.86176e-05
1.85325e-05
1.84388e-05
1.83357e-05
1.82225e-05
1.80981e-05
1.7962e-05
1.78137e-05
1.76541e-05
1.74857e-05
1.73132e-05
1.71447e-05
1.69933e-05
1.68736e-05
1.68403e-05
2.24192e-05
-1.06253e-05
1.10681e-05
2.19735e-05
-1.07613e-05
1.1207e-05
2.1498e-05
-1.08902e-05
1.13657e-05
2.099e-05
-1.1008e-05
1.15161e-05
2.04563e-05
-1.11236e-05
1.16573e-05
1.99033e-05
-1.12412e-05
1.17941e-05
1.93353e-05
-1.13614e-05
1.19294e-05
1.87551e-05
-1.14852e-05
1.20654e-05
1.81646e-05
-1.16139e-05
1.22044e-05
1.75647e-05
-1.17482e-05
1.23481e-05
1.69552e-05
-1.18887e-05
1.24981e-05
1.63358e-05
-1.2036e-05
1.26554e-05
1.57057e-05
-1.21908e-05
1.28209e-05
1.50644e-05
-1.23543e-05
1.29956e-05
1.44109e-05
-1.25279e-05
1.31814e-05
1.37442e-05
-1.27135e-05
1.33802e-05
1.30629e-05
-1.29129e-05
1.35942e-05
1.23653e-05
-1.31286e-05
1.38262e-05
1.16488e-05
-1.33633e-05
1.40798e-05
1.09103e-05
-1.36205e-05
1.4359e-05
1.01457e-05
-1.39043e-05
1.4669e-05
9.34934e-06
-1.42198e-05
1.50161e-05
8.51405e-06
-1.45729e-05
1.54082e-05
7.62979e-06
-1.49719e-05
1.58561e-05
6.68269e-06
-1.54246e-05
1.63717e-05
5.65287e-06
-1.59454e-05
1.69752e-05
4.52043e-06
-1.65396e-05
1.7672e-05
3.20825e-06
-1.72441e-05
1.85563e-05
1.79078e-06
-1.79717e-05
1.93892e-05
-1.91328e-05
2.09236e-05
2.25744e-05
-1.0153e-05
2.20663e-05
-1.02532e-05
2.1532e-05
-1.0356e-05
2.09824e-05
-1.04583e-05
2.0422e-05
-1.05632e-05
1.98531e-05
-1.06723e-05
1.9277e-05
-1.07852e-05
1.86938e-05
-1.0902e-05
1.8103e-05
-1.10231e-05
1.75037e-05
-1.11489e-05
1.6895e-05
-1.128e-05
1.62761e-05
-1.1417e-05
1.56462e-05
-1.1561e-05
1.50049e-05
-1.17129e-05
1.43512e-05
-1.18743e-05
1.3684e-05
-1.20463e-05
1.30018e-05
-1.22307e-05
1.23027e-05
-1.24294e-05
1.1584e-05
-1.26446e-05
1.08424e-05
-1.2879e-05
1.00738e-05
-1.31357e-05
9.27266e-06
-1.34186e-05
8.43179e-06
-1.3732e-05
7.54149e-06
-1.40816e-05
6.58878e-06
-1.44718e-05
5.55644e-06
-1.49131e-05
4.41987e-06
-1.5403e-05
3.14258e-06
-1.59668e-05
1.72224e-06
-1.65514e-05
-1.74105e-05
2.24695e-05
-9.64016e-06
2.19427e-05
-9.72639e-06
2.14034e-05
-9.81675e-06
2.08565e-05
-9.91142e-06
2.03031e-05
-1.00098e-05
1.97421e-05
-1.01113e-05
1.91727e-05
-1.02158e-05
1.85943e-05
-1.03236e-05
1.80064e-05
-1.04352e-05
1.74086e-05
-1.05511e-05
1.68007e-05
-1.06721e-05
1.61824e-05
-1.07987e-05
1.55534e-05
-1.09319e-05
1.49129e-05
-1.10725e-05
1.426e-05
-1.12213e-05
1.35933e-05
-1.13797e-05
1.29112e-05
-1.15486e-05
1.22116e-05
-1.17298e-05
1.14918e-05
-1.19249e-05
1.07487e-05
-1.21358e-05
9.97785e-06
-1.23649e-05
9.174e-06
-1.26148e-05
8.33013e-06
-1.28881e-05
7.43698e-06
-1.31884e-05
6.48255e-06
-1.35174e-05
5.4509e-06
-1.38814e-05
4.31991e-06
-1.4272e-05
3.06454e-06
-1.47114e-05
1.6537e-06
-1.51406e-05
-1.57568e-05
2.23746e-05
-9.11886e-06
2.18439e-05
-9.19573e-06
2.13036e-05
-9.27641e-06
2.07552e-05
-9.36297e-06
2.01989e-05
-9.45351e-06
1.96341e-05
-9.54658e-06
1.90606e-05
-9.6423e-06
1.84783e-05
-9.7413e-06
1.78872e-05
-9.84411e-06
1.72872e-05
-9.95115e-06
1.6678e-05
-1.00629e-05
1.6059e-05
-1.01797e-05
1.54294e-05
-1.03023e-05
1.47883e-05
-1.04314e-05
1.41345e-05
-1.05675e-05
1.34666e-05
-1.07117e-05
1.27828e-05
-1.08649e-05
1.20811e-05
-1.10281e-05
1.13589e-05
-1.12027e-05
1.06129e-05
-1.13898e-05
9.83907e-06
-1.1591e-05
9.03207e-06
-1.18078e-05
8.18533e-06
-1.20414e-05
7.29028e-06
-1.22934e-05
6.33607e-06
-1.25632e-05
5.30838e-06
-1.28537e-05
4.18887e-06
-1.31525e-05
2.95682e-06
-1.34794e-05
1.57592e-06
-1.37597e-05
-1.41809e-05
2.22339e-05
-8.58975e-06
2.1697e-05
-8.65878e-06
2.11517e-05
-8.73119e-06
2.05991e-05
-8.81031e-06
2.00392e-05
-8.89363e-06
1.94718e-05
-8.97917e-06
1.88966e-05
-9.06706e-06
1.83133e-05
-9.15806e-06
1.77218e-05
-9.25259e-06
1.71215e-05
-9.35088e-06
1.65119e-05
-9.45323e-06
1.58922e-05
-9.56004e-06
1.52617e-05
-9.67179e-06
1.46193e-05
-9.78898e-06
1.3964e-05
-9.91219e-06
1.32943e-05
-1.0042e-05
1.26085e-05
-1.01792e-05
1.19047e-05
-1.03243e-05
1.11802e-05
-1.04781e-05
1.04319e-05
-1.06415e-05
9.65572e-06
-1.08149e-05
8.84689e-06
-1.0999e-05
7.99925e-06
-1.11938e-05
7.10505e-06
-1.13992e-05
6.15475e-06
-1.16129e-05
5.13589e-06
-1.18349e-05
4.03358e-06
-1.20502e-05
2.8294e-06
-1.22752e-05
1.49202e-06
-1.24223e-05
-1.26889e-05
2.20514e-05
-8.05521e-06
2.15101e-05
-8.1175e-06
2.09615e-05
-8.18262e-06
2.04061e-05
-8.25485e-06
1.98437e-05
-8.33131e-06
1.92742e-05
-8.4096e-06
1.8697e-05
-8.48986e-06
1.81118e-05
-8.57288e-06
1.75182e-05
-8.65906e-06
1.69159e-05
-8.74852e-06
1.63041e-05
-8.84146e-06
1.56823e-05
-8.93821e-06
1.50496e-05
-9.0391e-06
1.44051e-05
-9.14448e-06
1.37476e-05
-9.25472e-06
1.30758e-05
-9.37019e-06
1.23879e-05
-9.49126e-06
1.16819e-05
-9.61829e-06
1.09553e-05
-9.75158e-06
1.02052e-05
-9.89132e-06
9.4278e-06
-1.00375e-05
8.61873e-06
-1.01899e-05
7.77245e-06
-1.03475e-05
6.88218e-06
-1.05089e-05
5.93973e-06
-1.06704e-05
4.93466e-06
-1.08298e-05
3.85518e-06
-1.09707e-05
2.68558e-06
-1.11056e-05
1.4029e-06
-1.11396e-05
-1.1286e-05
2.18227e-05
-7.51579e-06
2.12772e-05
-7.57195e-06
2.07249e-05
-7.63033e-06
2.0166e-05
-7.69598e-06
1.96005e-05
-7.76577e-06
1.90279e-05
-7.83703e-06
1.84479e-05
-7.90985e-06
1.78601e-05
-7.98507e-06
1.72641e-05
-8.06304e-06
1.66594e-05
-8.14381e-06
1.60454e-05
-8.22748e-06
1.54214e-05
-8.31424e-06
1.47867e-05
-8.40433e-06
1.41401e-05
-8.49793e-06
1.34806e-05
-8.59524e-06
1.28069e-05
-8.69641e-06
1.21172e-05
-8.80158e-06
1.14097e-05
-8.91078e-06
1.0682e-05
-9.02395e-06
9.93154e-06
-9.14082e-06
9.15485e-06
-9.26083e-06
8.34799e-06
-9.38303e-06
7.5062e-06
-9.50569e-06
6.62371e-06
-9.62643e-06
5.69379e-06
-9.74053e-06
4.70798e-06
-9.84399e-06
3.65748e-06
-9.92019e-06
2.52966e-06
-9.97778e-06
1.31067e-06
-9.92063e-06
-9.97533e-06
2.15421e-05
-6.97166e-06
2.09924e-05
-7.02219e-06
2.04364e-05
-7.07432e-06
1.98741e-05
-7.13366e-06
1.93053e-05
-7.19698e-06
1.87296e-05
-7.26141e-06
1.81468e-05
-7.32699e-06
1.75563e-05
-7.39458e-06
1.69577e-05
-7.4645e-06
1.63506e-05
-7.5367e-06
1.57343e-05
-7.61119e-06
1.51082e-05
-7.68809e-06
1.44714e-05
-7.76751e-06
1.3823e-05
-7.84952e-06
1.31618e-05
-7.93414e-06
1.24868e-05
-8.02135e-06
1.17962e-05
-8.11105e-06
1.10885e-05
-8.20302e-06
1.03614e-05
-8.29688e-06
9.61258e-06
-8.39198e-06
8.83908e-06
-8.48734e-06
8.03752e-06
-8.58146e-06
7.20391e-06
-8.67208e-06
6.33356e-06
-8.75608e-06
5.4212e-06
-8.82817e-06
4.46034e-06
-8.88312e-06
3.44495e-06
-8.9048e-06
2.36551e-06
-8.89834e-06
1.21622e-06
-8.77134e-06
-8.75912e-06
2.12051e-05
-6.423e-06
2.06513e-05
-6.46831e-06
2.00916e-05
-6.51464e-06
1.95258e-05
-6.56792e-06
1.89538e-05
-6.62494e-06
1.83751e-05
-6.68274e-06
1.77895e-05
-6.7413e-06
1.71964e-05
-6.80148e-06
1.65954e-05
-6.86355e-06
1.59861e-05
-6.9274e-06
1.53679e-05
-6.99296e-06
1.47401e-05
-7.06027e-06
1.41019e-05
-7.12935e-06
1.34525e-05
-7.20013e-06
1.27909e-05
-7.27253e-06
1.21159e-05
-7.34634e-06
1.14261e-05
-7.42129e-06
1.07201e-05
-7.49695e-06
9.99586e-06
-7.57266e-06
9.2514e-06
-7.64752e-06
8.48428e-06
-7.72021e-06
7.69169e-06
-7.78888e-06
6.87049e-06
-7.85088e-06
6.01705e-06
-7.90264e-06
5.12752e-06
-7.93863e-06
4.19728e-06
-7.95288e-06
3.22279e-06
-7.93032e-06
2.19747e-06
-7.87302e-06
1.12233e-06
-7.69621e-06
-7.63678e-06
2.08083e-05
-5.87007e-06
2.02506e-05
-5.91063e-06
1.96876e-05
-5.95164e-06
1.91188e-05
-5.99914e-06
1.85439e-05
-6.05005e-06
1.79626e-05
-6.10146e-06
1.73746e-05
-6.15329e-06
1.67795e-05
-6.20635e-06
1.61768e-05
-6.26088e-06
1.55661e-05
-6.31672e-06
1.49469e-05
-6.37373e-06
1.43185e-05
-6.43188e-06
1.36803e-05
-6.49109e-06
1.30314e-05
-6.55124e-06
1.23709e-05
-6.61208e-06
1.16979e-05
-6.67331e-06
1.10111e-05
-6.73451e-06
1.03092e-05
-6.79507e-06
9.59074e-06
-6.85417e-06
8.85391e-06