/*--------------------------------*- C++ -*----------------------------------*\
  =========                 |
  \\      /  F ield         | OpenFOAM: The Open Source CFD Toolbox
   \\    /   O peration     | Website:  https://openfoam.org
    \\  /    A nd           | Version:  11
     \\/     M anipulation  |
\*---------------------------------------------------------------------------*/
FoamFile
{
    format      ascii;
    class       volVectorField;
    location    "1";
    object      U;
}
// * * * * * * * * * * * * * * * * * * * * * * * * * * * * * * * * * * * * * //

dimensions      [0 1 -1 0 0 0 0];

internalField   nonuniform List<vector> 
12600
(
(0.412288 4.74759e-05 0)
(0.412221 9.46169e-05 0)
(0.412139 8.28371e-05 0)
(0.412073 6.91748e-05 0)
(0.412059 5.16903e-05 0)
(0.412114 2.752e-05 0)
(0.41224 5.14609e-07 0)
(0.41244 -2.82408e-05 0)
(0.412721 -5.72248e-05 0)
(0.413091 -9.07763e-05 0)
(0.413564 -0.000129698 0)
(0.414151 -0.000174842 0)
(0.41487 -0.000227252 0)
(0.415739 -0.000288213 0)
(0.416782 -0.000359247 0)
(0.418026 -0.000442521 0)
(0.419502 -0.000541552 0)
(0.42125 -0.000660795 0)
(0.423311 -0.000803119 0)
(0.425735 -0.000966827 0)
(0.428574 -0.00114625 0)
(0.431889 -0.0013362 0)
(0.435743 -0.00153978 0)
(0.440214 -0.00176612 0)
(0.445392 -0.00202779 0)
(0.451373 -0.00233161 0)
(0.458269 -0.00269896 0)
(0.466162 -0.00305344 0)
(0.475198 -0.00372991 0)
(0.486609 -0.00313624 0)
(0.412482 8.61478e-05 0)
(0.412601 7.66684e-05 0)
(0.412763 3.32579e-05 0)
(0.412959 -2.6806e-05 0)
(0.413203 -9.46154e-05 0)
(0.413512 -0.00016807 0)
(0.413889 -0.000247725 0)
(0.414339 -0.00033472 0)
(0.414868 -0.000431062 0)
(0.415486 -0.000538582 0)
(0.416202 -0.000659286 0)
(0.417026 -0.000795836 0)
(0.417971 -0.000951487 0)
(0.419054 -0.00112987 0)
(0.420294 -0.00133522 0)
(0.421715 -0.00157232 0)
(0.423342 -0.00184569 0)
(0.425203 -0.00215954 0)
(0.427328 -0.00251965 0)
(0.429758 -0.00293547 0)
(0.432549 -0.00341963 0)
(0.435776 -0.00398458 0)
(0.439528 -0.00464042 0)
(0.443901 -0.00539471 0)
(0.448993 -0.00625398 0)
(0.454895 -0.00721994 0)
(0.461707 -0.00831255 0)
(0.4695 -0.00943365 0)
(0.47842 -0.0109963 0)
(0.488424 -0.0108633 0)
(0.41248 -1.48049e-06 0)
(0.412558 -4.87986e-05 0)
(0.4127 -0.000136054 0)
(0.41289 -0.000239648 0)
(0.41313 -0.000350086 0)
(0.41343 -0.00046909 0)
(0.413796 -0.000599477 0)
(0.414233 -0.000743006 0)
(0.414747 -0.000901444 0)
(0.415346 -0.00107705 0)
(0.416037 -0.00127257 0)
(0.416834 -0.00149209 0)
(0.417748 -0.00174087 0)
(0.418795 -0.00202513 0)
(0.419996 -0.00235221 0)
(0.421372 -0.00272938 0)
(0.422953 -0.00316259 0)
(0.42477 -0.0036583 0)
(0.426865 -0.00422747 0)
(0.429278 -0.00488741 0)
(0.432058 -0.00566008 0)
(0.43526 -0.00656848 0)
(0.438947 -0.00763324 0)
(0.443199 -0.00886991 0)
(0.44811 -0.0102889 0)
(0.453797 -0.0118918 0)
(0.460361 -0.0136974 0)
(0.468002 -0.0156057 0)
(0.476602 -0.0180228 0)
(0.487255 -0.0189092 0)
(0.412474 -3.26788e-05 0)
(0.412535 -0.000115417 0)
(0.41266 -0.00023182 0)
(0.41284 -0.000369706 0)
(0.413071 -0.000521374 0)
(0.413359 -0.000686285 0)
(0.413712 -0.000866114 0)
(0.414134 -0.00106262 0)
(0.414631 -0.00127826 0)
(0.415209 -0.00151681 0)
(0.415876 -0.00178326 0)
(0.416643 -0.0020836 0)
(0.417524 -0.00242472 0)
(0.418532 -0.00281442 0)
(0.419688 -0.00326191 0)
(0.421011 -0.00377812 0)
(0.422527 -0.00437562 0)
(0.424268 -0.00506829 0)
(0.426274 -0.00587105 0)
(0.428591 -0.00680046 0)
(0.431272 -0.00787587 0)
(0.434375 -0.00912039 0)
(0.437963 -0.0105609 0)
(0.442112 -0.0122269 0)
(0.44691 -0.0141488 0)
(0.452467 -0.0163477 0)
(0.458882 -0.0188605 0)
(0.466384 -0.0215875 0)
(0.474828 -0.0249399 0)
(0.485484 -0.0269286 0)
(0.412471 -5.76017e-05 0)
(0.41252 -0.000186246 0)
(0.412631 -0.000343281 0)
(0.412798 -0.000523249 0)
(0.413017 -0.000720208 0)
(0.413291 -0.000932687 0)
(0.413626 -0.00116253 0)
(0.414028 -0.00141274 0)
(0.4145 -0.00168699 0)
(0.41505 -0.00199002 0)
(0.415684 -0.00232767 0)
(0.416414 -0.00270713 0)
(0.417251 -0.00313708 0)
(0.418209 -0.0036277 0)
(0.419307 -0.00419079 0)
(0.420565 -0.0048395 0)
(0.422008 -0.00558809 0)
(0.423666 -0.0064527 0)
(0.425572 -0.00745346 0)
(0.427768 -0.00861588 0)
(0.430301 -0.00997051 0)
(0.43323 -0.0115511 0)
(0.436623 -0.0133926 0)
(0.440562 -0.0155297 0)
(0.445137 -0.0179968 0)
(0.450469 -0.0208205 0)
(0.45665 -0.0240445 0)
(0.463942 -0.0275898 0)
(0.47215 -0.0318476 0)
(0.482791 -0.0349983 0)
(0.412469 -7.85479e-05 0)
(0.412512 -0.000247743 0)
(0.412611 -0.000441981 0)
(0.412765 -0.000659091 0)
(0.41297 -0.000895616 0)
(0.413227 -0.00115042 0)
(0.413541 -0.0014253 0)
(0.413918 -0.00172372 0)
(0.414362 -0.00205018 0)
(0.414878 -0.00241042 0)
(0.415473 -0.00281167 0)
(0.416157 -0.00326275 0)
(0.416941 -0.00377402 0)
(0.417839 -0.00435753 0)
(0.418865 -0.00502729 0)
(0.42004 -0.00579947 0)
(0.421385 -0.00669255 0)
(0.422928 -0.00772773 0)
(0.424703 -0.00892956 0)
(0.42675 -0.0103263 0)
(0.429116 -0.0119506 0)
(0.431855 -0.01384 0)
(0.435029 -0.0160371 0)
(0.438717 -0.0185891 0)
(0.443005 -0.0215469 0)
(0.448019 -0.0249567 0)
(0.453855 -0.0288801 0)
(0.460813 -0.0332669 0)
(0.468662 -0.038484 0)
(0.479167 -0.0428909 0)
(0.412468 -9.64103e-05 0)
(0.412506 -0.000301846 0)
(0.412594 -0.000531997 0)
(0.412734 -0.000785639 0)
(0.412923 -0.00106077 0)
(0.41316 -0.00135664 0)
(0.413451 -0.0016751 0)
(0.413799 -0.00202013 0)
(0.414208 -0.00239711 0)
(0.414684 -0.00281278 0)
(0.415234 -0.00327545 0)
(0.415864 -0.00379515 0)
(0.416586 -0.00438374 0)
(0.417412 -0.00505509 0)
(0.418355 -0.00582516 0)
(0.419434 -0.00671222 0)
(0.420669 -0.00773711 0)
(0.422085 -0.00892403 0)
(0.423712 -0.0103017 0)
(0.425584 -0.0119043 0)
(0.427744 -0.0137724 0)
(0.43024 -0.0159525 0)
(0.433135 -0.0184966 0)
(0.436504 -0.0214617 0)
(0.440437 -0.0249101 0)
(0.445061 -0.028903 0)
(0.450472 -0.0335185 0)
(0.456998 -0.0387432 0)
(0.464377 -0.044923 0)
(0.474608 -0.05066 0)
(0.412467 -0.000112065 0)
(0.4125 -0.00034995 0)
(0.412579 -0.000613449 0)
(0.412705 -0.000901113 0)
(0.412875 -0.00121167 0)
(0.413091 -0.0015449 0)
(0.413354 -0.00190291 0)
(0.41367 -0.00229005 0)
(0.414042 -0.00271234 0)
(0.414473 -0.00317738 0)
(0.414971 -0.00369452 0)
(0.415541 -0.00427498 0)
(0.416193 -0.00493196 0)
(0.416938 -0.00568085 0)
(0.417788 -0.00653954 0)
(0.418758 -0.00752874 0)
(0.419866 -0.00867238 0)
(0.421135 -0.00999821 0)
(0.422589 -0.0115386 0)
(0.424262 -0.0133315 0)
(0.426189 -0.0154215 0)
(0.428417 -0.0178607 0)
(0.431 -0.0207097 0)
(0.434008 -0.024038 0)
(0.437525 -0.0279248 0)
(0.441676 -0.0324535 0)
(0.446555 -0.037726 0)
(0.452516 -0.0437755 0)
(0.459269 -0.0509313 0)
(0.469025 -0.0580862 0)
(0.412466 -0.000125814 0)
(0.412495 -0.000392376 0)
(0.412565 -0.000685874 0)
(0.412676 -0.00100439 0)
(0.412827 -0.001347 0)
(0.413018 -0.00171391 0)
(0.413252 -0.00210751 0)
(0.413533 -0.00253248 0)
(0.413862 -0.00299545 0)
(0.414245 -0.00350481 0)
(0.414685 -0.0040708 0)
(0.415189 -0.00470566 0)
(0.415764 -0.0054238 0)
(0.41642 -0.00624202 0)
(0.417166 -0.00717979 0)
(0.418016 -0.00825953 0)
(0.418986 -0.00950712 0)
(0.420093 -0.0109527 0)
(0.421359 -0.0126318 0)
(0.422811 -0.0145866 0)
(0.424478 -0.0168674 0)
(0.426402 -0.0195337 0)
(0.428628 -0.0226555 0)
(0.431222 -0.0263141 0)
(0.434257 -0.0306034 0)
(0.437856 -0.0356277 0)
(0.442103 -0.0415142 0)
(0.447364 -0.0483495 0)
(0.453325 -0.0564529 0)
(0.462352 -0.0650691 0)
(0.412466 -0.000137734 0)
(0.41249 -0.00042921 0)
(0.41255 -0.000749028 0)
(0.412646 -0.00109482 0)
(0.412776 -0.00146571 0)
(0.412942 -0.00186221 0)
(0.413144 -0.00228696 0)
(0.413387 -0.00274494 0)
(0.413671 -0.00324326 0)
(0.414001 -0.00379093 0)
(0.414379 -0.00439892 0)
(0.414812 -0.00508031 0)
(0.415304 -0.00585044 0)
(0.415863 -0.00672718 0)
(0.416499 -0.00773128 0)
(0.41722 -0.00888676 0)
(0.418039 -0.0102215 0)
(0.418971 -0.0117679 0)
(0.420033 -0.0135641 0)
(0.421245 -0.0156555 0)
(0.422632 -0.0180963 0)
(0.424225 -0.0209515 0)
(0.426064 -0.0242987 0)
(0.428201 -0.0282304 0)
(0.430699 -0.0328565 0)
(0.433665 -0.0383043 0)
(0.437173 -0.0447299 0)
(0.441581 -0.0522796 0)
(0.446561 -0.0612692 0)
(0.454541 -0.071342 0)
(0.412465 -0.000147832 0)
(0.412485 -0.000460429 0)
(0.412535 -0.000802673 0)
(0.412615 -0.00117178 0)
(0.412724 -0.00156684 0)
(0.412863 -0.00198848 0)
(0.413032 -0.00243956 0)
(0.413234 -0.00292534 0)
(0.41347 -0.00345327 0)
(0.413744 -0.00403286 0)
(0.414057 -0.00467566 0)
(0.414413 -0.00539539 0)
(0.414818 -0.00620816 0)
(0.415276 -0.00713272 0)
(0.415793 -0.00819081 0)
(0.416378 -0.00940759 0)
(0.417038 -0.0108121 0)
(0.417785 -0.0124383 0)
(0.41863 -0.0143261 0)
(0.419588 -0.0165232 0)
(0.420677 -0.0190874 0)
(0.421917 -0.0220886 0)
(0.423338 -0.0256115 0)
(0.424979 -0.0297585 0)
(0.426886 -0.0346531 0)
(0.429148 -0.0404434 0)
(0.431818 -0.0473134 0)
(0.435222 -0.0554692 0)
(0.439032 -0.0652294 0)
(0.4456 -0.0766662 0)
(0.412464 -0.000156091 0)
(0.41248 -0.000485964 0)
(0.41252 -0.000846574 0)
(0.412584 -0.00123479 0)
(0.412671 -0.00164959 0)
(0.412781 -0.00209165 0)
(0.412915 -0.00256399 0)
(0.413075 -0.00307205 0)
(0.413262 -0.00362356 0)
(0.413477 -0.00422836 0)
(0.413722 -0.00489843 0)
(0.413999 -0.00564795 0)
(0.414312 -0.00649354 0)
(0.414664 -0.00745449 0)
(0.415058 -0.00855315 0)
(0.415501 -0.00981534 0)
(0.415996 -0.011271 0)
(0.41655 -0.0129548 0)
(0.41717 -0.0149081 0)
(0.417864 -0.0171799 0)
(0.418641 -0.0198301 0)
(0.419513 -0.0229318 0)
(0.420496 -0.0265742 0)
(0.421612 -0.0308668 0)
(0.422889 -0.0359441 0)
(0.424386 -0.0419718 0)
(0.426132 -0.049159 0)
(0.428391 -0.057768 0)
(0.430849 -0.0681231 0)
(0.435615 -0.0807231 0)
(0.412463 -0.000162492 0)
(0.412475 -0.000505739 0)
(0.412505 -0.000880538 0)
(0.412552 -0.00128347 0)
(0.412616 -0.00171337 0)
(0.412698 -0.00217093 0)
(0.412796 -0.00265923 0)
(0.412913 -0.00318384 0)
(0.413048 -0.00375265 0)
(0.413202 -0.00437573 0)
(0.413377 -0.00506528 0)
(0.413573 -0.00583574 0)
(0.413792 -0.00670399 0)
(0.414035 -0.0076896 0)
(0.414304 -0.00881519 0)
(0.4146 -0.0101069 0)
(0.414927 -0.0115947 0)
(0.415284 -0.0133138 0)
(0.415674 -0.0153054 0)
(0.416099 -0.017619 0)
(0.416557 -0.0203152 0)
(0.417052 -0.0234682 0)
(0.417584 -0.0271699 0)
(0.418157 -0.0315335 0)
(0.418777 -0.0367003 0)
(0.419468 -0.0428474 0)
(0.420226 -0.0502018 0)
(0.421227 -0.0590698 0)
(0.422182 -0.0697808 0)
(0.424779 -0.0832148 0)
(0.412462 -0.000167021 0)
(0.41247 -0.000519709 0)
(0.412489 -0.000904447 0)
(0.41252 -0.00131758 0)
(0.412561 -0.0017578 0)
(0.412613 -0.00222578 0)
(0.412675 -0.0027246 0)
(0.412748 -0.00325988 0)
(0.412831 -0.00383959 0)
(0.412924 -0.00447385 0)
(0.413027 -0.00517495 0)
(0.41314 -0.00595739 0)
(0.413264 -0.00683807 0)
(0.413397 -0.00783654 0)
(0.413538 -0.00897531 0)
(0.413688 -0.0102803 0)
(0.413844 -0.0117812 0)
(0.414004 -0.0135127 0)
(0.414164 -0.0155153 0)
(0.414317 -0.0178378 0)
(0.414457 -0.0205398 0)
(0.414573 -0.0236948 0)
(0.414653 -0.0273937 0)
(0.41468 -0.0317496 0)
(0.414635 -0.0369046 0)
(0.414502 -0.0430393 0)
(0.414241 -0.0503882 0)
(0.413914 -0.0592837 0)
(0.413268 -0.0700523 0)
(0.413405 -0.0838627 0)
(0.412461 -0.000169677 0)
(0.412465 -0.000527862 0)
(0.412474 -0.000918266 0)
(0.412488 -0.00133703 0)
(0.412507 -0.00178273 0)
(0.412529 -0.00225595 0)
(0.412554 -0.00275977 0)
(0.412583 -0.00329978 0)
(0.412613 -0.0038839 0)
(0.412644 -0.00452222 0)
(0.412676 -0.00522692 0)
(0.412706 -0.00601238 0)
(0.412734 -0.00689528 0)
(0.412757 -0.00789486 0)
(0.412772 -0.00903317 0)
(0.412776 -0.0103355 0)
(0.412763 -0.0118307 0)
(0.412727 -0.0135523 0)
(0.412659 -0.0155391 0)
(0.412546 -0.0178381 0)
(0.412373 -0.0205062 0)
(0.412118 -0.0236136 0)
(0.411755 -0.0272476 0)
(0.411247 -0.0315165 0)
(0.41055 -0.0365567 0)
(0.409605 -0.042543 0)
(0.408333 -0.0497032 0)
(0.40667 -0.0583718 0)
(0.404399 -0.0688581 0)
(0.401927 -0.0824829 0)
(0.41246 -0.000170486 0)
(0.41246 -0.000530257 0)
(0.412459 -0.000922058 0)
(0.412456 -0.00134188 0)
(0.412452 -0.00178818 0)
(0.412445 -0.00226148 0)
(0.412434 -0.00276477 0)
(0.412419 -0.00330356 0)
(0.412396 -0.00388564 0)
(0.412367 -0.00452092 0)
(0.412327 -0.00522136 0)
(0.412275 -0.006001 0)
(0.412209 -0.00687612 0)
(0.412123 -0.00786533 0)
(0.412014 -0.00898995 0)
(0.411874 -0.0102742 0)
(0.411696 -0.0117456 0)
(0.41147 -0.0134357 0)
(0.411181 -0.0153812 0)
(0.410811 -0.0176256 0)
(0.410336 -0.0202219 0)
(0.409727 -0.0232351 0)
(0.408941 -0.0267451 0)
(0.407925 -0.030851 0)
(0.40661 -0.0356767 0)
(0.404896 -0.041381 0)
(0.402666 -0.04817 0)
(0.399731 -0.0563526 0)
(0.395902 -0.0662016 0)
(0.390872 -0.0790254 0)
(0.412459 -0.000169483 0)
(0.412455 -0.000527004 0)
(0.412444 -0.000916 0)
(0.412426 -0.00133235 0)
(0.412399 -0.00177442 0)
(0.412363 -0.00224264 0)
(0.412317 -0.00273993 0)
(0.412258 -0.00327162 0)
(0.412184 -0.00384532 0)
(0.412094 -0.00447062 0)
(0.411985 -0.00515912 0)
(0.411853 -0.00592437 0)
(0.411694 -0.00678201 0)
(0.411503 -0.00774984 0)
(0.411272 -0.00884808 0)
(0.410994 -0.0100996 0)
(0.410657 -0.0115301 0)
(0.410248 -0.0131688 0)
(0.409748 -0.0150491 0)
(0.409135 -0.0172105 0)
(0.408377 -0.0197003 0)
(0.407436 -0.0225763 0)
(0.406259 -0.0259086 0)
(0.404777 -0.0297825 0)
(0.402898 -0.0343035 0)
(0.400491 -0.0396045 0)
(0.3974 -0.0458555 0)
(0.39333 -0.0533126 0)
(0.388111 -0.0621909 0)
(0.380794 -0.0736179 0)
(0.412458 -0.000166721 0)
(0.41245 -0.000518276 0)
(0.41243 -0.000900386 0)
(0.412396 -0.00130885 0)
(0.412348 -0.00174194 0)
(0.412284 -0.00220004 0)
(0.412203 -0.00268594 0)
(0.412102 -0.00320481 0)
(0.411978 -0.00376393 0)
(0.41183 -0.00437252 0)
(0.411653 -0.00504167 0)
(0.411444 -0.00578432 0)
(0.411196 -0.00661525 0)
(0.410903 -0.00755126 0)
(0.410556 -0.00861127 0)
(0.410146 -0.00981645 0)
(0.409658 -0.0111904 0)
(0.409077 -0.0127593 0)
(0.40838 -0.0145529 0)
(0.40754 -0.0166058 0)
(0.406522 -0.0189588 0)
(0.405279 -0.0216606 0)
(0.403752 -0.0247692 0)
(0.401857 -0.0283532 0)
(0.399488 -0.0324941 0)
(0.396488 -0.0372916 0)
(0.392674 -0.0428676 0)
(0.387675 -0.0494026 0)
(0.381324 -0.0570363 0)
(0.372202 -0.0665715 0)
(0.412457 -0.00016229 0)
(0.412445 -0.000504334 0)
(0.412416 -0.000875631 0)
(0.412368 -0.00127191 0)
(0.412299 -0.00169142 0)
(0.412209 -0.00213449 0)
(0.412094 -0.00260381 0)
(0.411953 -0.00310431 0)
(0.411781 -0.00364291 0)
(0.411577 -0.00422835 0)
(0.411336 -0.00487112 0)
(0.411052 -0.00558338 0)
(0.410719 -0.00637897 0)
(0.41033 -0.00727346 0)
(0.409874 -0.00828427 0)
(0.409339 -0.00943068 0)
(0.40871 -0.0107338 0)
(0.407968 -0.0122169 0)
(0.40709 -0.0139054 0)
(0.406044 -0.0158283 0)
(0.404793 -0.0180192 0)
(0.403284 -0.0205167 0)
(0.401452 -0.0233653 0)
(0.399208 -0.0266148 0)
(0.396436 -0.0303198 0)
(0.392964 -0.0345415 0)
(0.388595 -0.0393467 0)
(0.382918 -0.0448261 0)
(0.375767 -0.0510333 0)
(0.365475 -0.0583531 0)
(0.412457 -0.000156302 0)
(0.412441 -0.000485513 0)
(0.412404 -0.000842279 0)
(0.412342 -0.00122228 0)
(0.412254 -0.00162376 0)
(0.412138 -0.00204709 0)
(0.411992 -0.00249484 0)
(0.411812 -0.00297168 0)
(0.411595 -0.00348409 0)
(0.411338 -0.00404029 0)
(0.411036 -0.00465006 0)
(0.410682 -0.0053247 0)
(0.410269 -0.00607696 0)
(0.409789 -0.00692109 0)
(0.409231 -0.00787283 0)
(0.40858 -0.00894943 0)
(0.407822 -0.0101695 0)
(0.406934 -0.0115527 0)
(0.405892 -0.0131206 0)
(0.404663 -0.0148962 0)
(0.403207 -0.0169056 0)
(0.40147 -0.019177 0)
(0.399386 -0.0217407 0)
(0.396861 -0.0246267 0)
(0.393779 -0.0278621 0)
(0.389967 -0.0314682 0)
(0.385224 -0.0354551 0)
(0.379145 -0.0398195 0)
(0.371561 -0.0445301 0)
(0.360799 -0.0495241 0)
(0.412456 -0.0001489 0)
(0.412438 -0.000462248 0)
(0.412393 -0.000801024 0)
(0.412318 -0.00116086 0)
(0.412212 -0.00154007 0)
(0.412073 -0.00193914 0)
(0.411897 -0.0023606 0)
(0.411682 -0.00280879 0)
(0.411423 -0.00328971 0)
(0.411116 -0.00381097 0)
(0.410756 -0.0043816 0)
(0.410337 -0.00501194 0)
(0.409851 -0.00571359 0)
(0.409287 -0.00649938 0)
(0.408634 -0.00738335 0)
(0.407879 -0.00838062 0)
(0.407002 -0.0095071 0)
(0.405983 -0.0107793 0)
(0.404795 -0.012214 0)
(0.403407 -0.0138291 0)
(0.401776 -0.0156428 0)
(0.399852 -0.0176738 0)
(0.397566 -0.0199385 0)
(0.394831 -0.0224482 0)
(0.391534 -0.0252036 0)
(0.387513 -0.0281883 0)
(0.382579 -0.0313596 0)
(0.376368 -0.0346268 0)
(0.368714 -0.0378845 0)
(0.35815 -0.0406595 0)
(0.412455 -0.00014027 0)
(0.412434 -0.000435096 0)
(0.412383 -0.000752727 0)
(0.412297 -0.00108872 0)
(0.412176 -0.00144161 0)
(0.412015 -0.00181218 0)
(0.411812 -0.00220291 0)
(0.411564 -0.0026178 0)
(0.411265 -0.00306233 0)
(0.410913 -0.00354343 0)
(0.410501 -0.00406933 0)
(0.410022 -0.00464938 0)
(0.409468 -0.00529392 0)
(0.408828 -0.00601425 0)
(0.40809 -0.00682265 0)
(0.407239 -0.00773216 0)
(0.406257 -0.00875626 0)
(0.405122 -0.00990844 0)
(0.403809 -0.0112017 0)
(0.402284 -0.0126483 0)
(0.40051 -0.0142594 0)
(0.398436 -0.016044 0)
(0.396 -0.0180064 0)
(0.393121 -0.0201411 0)
(0.389697 -0.0224261 0)
(0.385589 -0.0248129 0)
(0.380629 -0.0272153 0)
(0.374525 -0.0294711 0)
(0.367122 -0.0314191 0)
(0.357303 -0.0322643 0)
(0.412455 -0.000130655 0)
(0.412432 -0.000404776 0)
(0.412375 -0.000698436 0)
(0.412281 -0.00100713 0)
(0.412145 -0.00132988 0)
(0.411965 -0.00166795 0)
(0.411738 -0.00202381 0)
(0.411459 -0.00240105 0)
(0.411126 -0.00280463 0)
(0.410732 -0.00324083 0)
(0.410272 -0.00371701 0)
(0.409739 -0.00424146 0)
(0.409124 -0.00482332 0)
(0.408416 -0.00547242 0)
(0.407602 -0.00619924 0)
(0.406667 -0.00701464 0)
(0.405592 -0.00792954 0)
(0.404357 -0.00895444 0)
(0.402935 -0.0100988 0)
(0.401298 -0.0113706 0)
(0.399408 -0.0127756 0)
(0.397222 -0.0143152 0)
(0.394682 -0.0159834 0)
(0.39172 -0.0177611 0)
(0.388249 -0.0196072 0)
(0.384156 -0.0214484 0)
(0.379308 -0.0231663 0)
(0.373498 -0.0245495 0)
(0.366594 -0.025404 0)
(0.357906 -0.0247292 0)
(0.412455 -0.000120401 0)
(0.412431 -0.000372264 0)
(0.412371 -0.000639399 0)
(0.412269 -0.000917426 0)
(0.412121 -0.00120648 0)
(0.411924 -0.0015085 0)
(0.411675 -0.00182581 0)
(0.41137 -0.00216146 0)
(0.411005 -0.00251985 0)
(0.410575 -0.00290662 0)
(0.410073 -0.00332829 0)
(0.409492 -0.00379208 0)
(0.408823 -0.00430576 0)
(0.408054 -0.00487766 0)
(0.407173 -0.00551665 0)
(0.406165 -0.00623199 0)
(0.405012 -0.00703286 0)
(0.403693 -0.00792744 0)
(0.402184 -0.00892188 0)
(0.400455 -0.0100196 0)
(0.398475 -0.0112206 0)
(0.396205 -0.0125199 0)
(0.393598 -0.0139039 0)
(0.390599 -0.0153442 0)
(0.387142 -0.0167888 0)
(0.383144 -0.0181492 0)
(0.37851 -0.0192897 0)
(0.373124 -0.0199735 0)
(0.366884 -0.0199958 0)
(0.35953 -0.0182765 0)
(0.412455 -0.000110043 0)
(0.412431 -0.000339021 0)
(0.41237 -0.000577196 0)
(0.412264 -0.000820965 0)
(0.412106 -0.0010727 0)
(0.411895 -0.00133541 0)
(0.411627 -0.00161112 0)
(0.4113 -0.00190229 0)
(0.410908 -0.00221269 0)
(0.410445 -0.00254723 0)
(0.409907 -0.00291146 0)
(0.409284 -0.00331145 0)
(0.408569 -0.0037538 0)
(0.407749 -0.00424547 0)
(0.406811 -0.00479357 0)
(0.405741 -0.00540516 0)
(0.404519 -0.00608706 0)
(0.403126 -0.0068453 0)
(0.401541 -0.00768442 0)
(0.39974 -0.00860644 0)
(0.397695 -0.00960932 0)
(0.395373 -0.0106845 0)
(0.392739 -0.0118127 0)
(0.389747 -0.0129582 0)
(0.38635 -0.0140605 0)
(0.382498 -0.0150237 0)
(0.378133 -0.0157075 0)
(0.37323 -0.0158746 0)
(0.367721 -0.0153304 0)
(0.361726 -0.013032 0)
(0.412455 -0.000100426 0)
(0.412434 -0.000307071 0)
(0.412376 -0.000514191 0)
(0.412268 -0.000720252 0)
(0.412103 -0.000930784 0)
(0.411879 -0.00114977 0)
(0.411596 -0.00137897 0)
(0.411249 -0.00162054 0)
(0.410833 -0.0018779 0)
(0.410344 -0.00215521 0)
(0.409775 -0.00245705 0)
(0.409117 -0.00278838 0)
(0.408363 -0.00315442 0)
(0.407499 -0.00356071 0)
(0.406514 -0.00401304 0)
(0.405393 -0.00451745 0)
(0.40412 -0.00507971 0)
(0.402675 -0.00570428 0)
(0.401034 -0.00639314 0)
(0.399175 -0.00714513 0)
(0.397075 -0.00795484 0)
(0.39471 -0.0088107 0)
(0.392056 -0.00969157 0)
(0.389085 -0.0105612 0)
(0.385769 -0.0113609 0)
(0.382086 -0.0119988 0)
(0.378014 -0.0123439 0)
(0.373602 -0.0121782 0)
(0.368823 -0.0113338 0)
(0.364075 -0.00888701 0)
(0.412458 -9.34313e-05 0)
(0.412442 -0.000277946 0)
(0.412392 -0.000451137 0)
(0.412286 -0.00061866 0)
(0.412116 -0.000789424 0)
(0.411884 -0.000966552 0)
(0.411588 -0.00115052 0)
(0.411226 -0.00134311 0)
(0.410792 -0.00154754 0)
(0.410281 -0.00176735 0)
(0.409686 -0.00200612 0)
(0.409001 -0.00226759 0)
(0.408215 -0.00255588 0)
(0.407318 -0.00287537 0)
(0.406295 -0.00323041 0)
(0.405132 -0.00362502 0)
(0.403812 -0.004063 0)
(0.402318 -0.00454732 0)
(0.400631 -0.00507976 0)
(0.398735 -0.00566102 0)
(0.39661 -0.00628859 0)
(0.394233 -0.00695227 0)
(0.391583 -0.00762915 0)
(0.388639 -0.00827965 0)
(0.38539 -0.00884491 0)
(0.381848 -0.00924085 0)
(0.378031 -0.00935595 0)
(0.374051 -0.00900899 0)
(0.369923 -0.0080794 0)
(0.366231 -0.00583922 0)
(0.412462 -9.63641e-05 0)
(0.412461 -0.000253681 0)
(0.412423 -0.000377944 0)
(0.412319 -0.000493069 0)
(0.412145 -0.000612913 0)
(0.411905 -0.000739215 0)
(0.411602 -0.000871273 0)
(0.411229 -0.00101001 0)
(0.410782 -0.00115753 0)
(0.410256 -0.00131624 0)
(0.409645 -0.00148867 0)
(0.40894 -0.00167749 0)
(0.408133 -0.00188556 0)
(0.407212 -0.00211588 0)
(0.406165 -0.00237145 0)
(0.404978 -0.00265507 0)
(0.403636 -0.0029706 0)
(0.402123 -0.00332141 0)
(0.400419 -0.00370841 0)
(0.398503 -0.00412954 0)
(0.396352 -0.00457737 0)
(0.393945 -0.00503844 0)
(0.39127 -0.00549344 0)
(0.388332 -0.00591508 0)
(0.385148 -0.00626353 0)
(0.381757 -0.00647573 0)
(0.378207 -0.00646576 0)
(0.374627 -0.00607994 0)
(0.371065 -0.00525213 0)
(0.368109 -0.00342055 0)
(0.412476 -0.000127668 0)
(0.412523 -0.0002827 0)
(0.412483 -0.000369786 0)
(0.412367 -0.000440951 0)
(0.412179 -0.000514369 0)
(0.411926 -0.000590598 0)
(0.411607 -0.000669373 0)
(0.411217 -0.000752273 0)
(0.41075 -0.000841071 0)
(0.410202 -0.00093717 0)
(0.409567 -0.00104188 0)
(0.408838 -0.00115668 0)
(0.408006 -0.00128329 0)
(0.40706 -0.00142355 0)
(0.405987 -0.00157938 0)
(0.404774 -0.00175274 0)
(0.403408 -0.00194533 0)
(0.401852 -0.00215761 0)
(0.40009 -0.00238838 0)
(0.398109 -0.00263553 0)
(0.395896 -0.00289689 0)
(0.393445 -0.00316951 0)
(0.39076 -0.00344601 0)
(0.387851 -0.00370866 0)
(0.38474 -0.00392479 0)
(0.381464 -0.00404185 0)
(0.378098 -0.00399072 0)
(0.374738 -0.00366151 0)
(0.371645 -0.003003 0)
(0.368511 -0.00150875 0)
(0.412264 -7.69745e-05 0)
(0.41209 -0.000160945 0)
(0.411772 -0.000201568 0)
(0.411338 -0.000231978 0)
(0.410832 -0.000261409 0)
(0.410266 -0.000290344 0)
(0.409634 -0.000319366 0)
(0.408929 -0.000349364 0)
(0.408146 -0.000380985 0)
(0.407279 -0.000414859 0)
(0.406321 -0.000451693 0)
(0.405264 -0.000492194 0)
(0.404097 -0.000537072 0)
(0.402808 -0.000586979 0)
(0.401385 -0.000642119 0)
(0.399813 -0.000701854 0)
(0.398077 -0.000764169 0)
(0.396164 -0.000828226 0)
(0.39406 -0.000896905 0)
(0.391748 -0.000975545 0)
(0.389208 -0.00106907 0)
(0.386422 -0.00117772 0)
(0.383377 -0.0012945 0)
(0.380076 -0.00140522 0)
(0.37655 -0.00148967 0)
(0.372873 -0.00152154 0)
(0.369181 -0.00147691 0)
(0.365694 -0.00128808 0)
(0.362721 -0.00105541 0)
(0.359993 0.000135096 0)
(0.490931 -0.00674535 -5.50104e-20)
(0.495511 -0.0102234 -5.38469e-20)
(0.499435 -0.0144139 -7.70551e-19)
(0.502495 -0.0189767 -2.19419e-19)
(0.505145 -0.0238125 2.22464e-19)
(0.507584 -0.0288874 0)
(0.509853 -0.0342147 0)
(0.512001 -0.0398299 2.20526e-19)
(0.514099 -0.0457689 -2.24098e-19)
(0.516202 -0.0520628 -4.41255e-19)
(0.518333 -0.0587451 4.48729e-19)
(0.520499 -0.0658579 0)
(0.522702 -0.073456 -4.38459e-19)
(0.524946 -0.0816063 4.46367e-19)
(0.527246 -0.0903973 0)
(0.529612 -0.0999339 8.59874e-19)
(0.532059 -0.110345 4.21474e-19)
(0.534602 -0.121786 4.01371e-19)
(0.537251 -0.134452 4.01052e-19)
(0.540015 -0.148588 3.70988e-19)
(0.542896 -0.164504 -3.65427e-19)
(0.545892 -0.182596 1.06501e-18)
(0.548972 -0.203383 0)
(0.552121 -0.227529 -5.40055e-19)
(0.555152 -0.255974 1.95357e-19)
(0.558056 -0.289894 -3.5793e-19)
(0.560277 -0.330588 -1.76843e-19)
(0.5602 -0.384038 0)
(0.563376 -0.433385 0)
(0.539861 -0.558661 3.23406e-19)
(0.495338 -0.0153904 -9.08197e-19)
(0.498152 -0.0191748 0)
(0.500434 -0.0236327 0)
(0.50227 -0.0283618 -9.15634e-19)
(0.503986 -0.0332824 9.19666e-19)
(0.505723 -0.0384263 9.23293e-19)
(0.507476 -0.0438421 -2.287e-19)
(0.509242 -0.0495634 2.32484e-19)
(0.511031 -0.0556133 7.04206e-19)
(0.512845 -0.0620175 1.17124e-18)
(0.514668 -0.0688137 -4.61485e-19)
(0.516487 -0.0760532 9.5026e-19)
(0.518298 -0.0837991 4.70276e-19)
(0.520104 -0.0921265 4.83138e-19)
(0.521911 -0.101126 4.69384e-19)
(0.523723 -0.110904 9.3897e-19)
(0.525538 -0.121588 0)
(0.527348 -0.133335 -4.44075e-19)
(0.529141 -0.14634 -4.5751e-19)
(0.530891 -0.160843 0)
(0.532563 -0.177148 4.05418e-19)
(0.534104 -0.195639 4.17914e-19)
(0.535414 -0.216812 -7.8607e-19)
(0.536388 -0.241288 0)
(0.536705 -0.269944 2.58651e-19)
(0.536265 -0.303775 2.62019e-19)
(0.534009 -0.34429 -3.7127e-19)
(0.529168 -0.394928 -5.09175e-20)
(0.524683 -0.446212 5.27076e-20)
(0.494605 -0.559176 -2.43748e-19)
(0.493506 -0.023689 9.24721e-19)
(0.495445 -0.0273792 0)
(0.497123 -0.0317494 -1.16162e-19)
(0.498745 -0.036445 1.99946e-18)
(0.500399 -0.0413807 -7.05132e-19)
(0.502079 -0.0465697 -1.41857e-18)
(0.503738 -0.0520387 1.20298e-18)
(0.505353 -0.057808 -2.38381e-19)
(0.506921 -0.0639027 -7.14004e-19)
(0.508443 -0.0703609 -2.20687e-19)
(0.509914 -0.0772322 2.45054e-19)
(0.511338 -0.0845738 -1.45176e-18)
(0.512716 -0.0924495 9.80254e-19)
(0.51405 -0.100933 -1.46573e-18)
(0.515336 -0.11011 0)
(0.516559 -0.120087 -9.67183e-19)
(0.5177 -0.130989 0)
(0.518732 -0.142973 0)
(0.519618 -0.156229 9.41877e-19)
(0.520306 -0.170992 0)
(0.520722 -0.187555 0)
(0.520765 -0.20628 -8.65526e-19)
(0.520273 -0.227636 8.19326e-19)
(0.519058 -0.252195 0)
(0.516693 -0.280759 0)
(0.512965 -0.314186 -5.55587e-19)
(0.506485 -0.353978 4.2595e-21)
(0.497108 -0.402045 -1.58583e-19)
(0.484708 -0.454348 -3.61957e-20)
(0.449304 -0.555025 0)
(0.491609 -0.0322617 -2.96002e-20)
(0.493183 -0.0360551 -2.95818e-20)
(0.494529 -0.0404735 9.13641e-19)
(0.495929 -0.045196 -1.94606e-18)
(0.497349 -0.0501509 1.23063e-19)
(0.498711 -0.0553555 2.45535e-19)
(0.499993 -0.0608439 -2.30401e-19)
(0.501204 -0.0666467 0)
(0.502356 -0.0727977 1.27275e-18)
(0.503451 -0.0793379 -2.29158e-18)
(0.504487 -0.0863139 1.03893e-18)
(0.505457 -0.0937773 5.12212e-19)
(0.50635 -0.101788 -1.57805e-18)
(0.507151 -0.110418 0)
(0.507838 -0.119753 0)
(0.508383 -0.129899 1.07612e-18)
(0.508752 -0.14098 1.08086e-18)
(0.5089 -0.153147 5.20881e-19)
(0.508768 -0.166585 -1.50176e-20)
(0.508276 -0.181516 -5.31381e-19)
(0.507313 -0.198214 0)
(0.505734 -0.217017 0)
(0.503319 -0.238351 -5.65847e-19)
(0.499808 -0.262729 -1.50941e-18)
(0.494684 -0.290861 0)
(0.487646 -0.323457 -5.35501e-19)
(0.477045 -0.361901 5.31591e-19)
(0.46329 -0.407193 -1.12474e-18)
(0.443239 -0.458365 1.13345e-19)
(0.40422 -0.546568 0)
(0.488688 -0.0407687 0)
(0.489868 -0.0445802 9.99748e-19)
(0.490803 -0.0489821 -8.6958e-19)
(0.491864 -0.0536969 8.76273e-19)
(0.49296 -0.0586687 1.27025e-19)
(0.493977 -0.0639142 -1.29278e-19)
(0.494901 -0.0694622 -1.02958e-18)
(0.495753 -0.0753394 0)
(0.496537 -0.0815751 2.78603e-20)
(0.49724 -0.0882059 1.05838e-18)
(0.497847 -0.0952761 -1.33743e-18)
(0.498339 -0.102838 1.38836e-18)
(0.498698 -0.110952 1.36178e-18)
(0.498901 -0.119692 -2.80587e-19)
(0.498916 -0.129143 1.71042e-18)
(0.498707 -0.139406 -1.08419e-18)
(0.498226 -0.150602 -1.15027e-18)
(0.497411 -0.162873 -5.81542e-19)
(0.496179 -0.176391 0)
(0.494425 -0.191363 0)
(0.492004 -0.208039 0)
(0.488731 -0.226724 5.69024e-19)
(0.484338 -0.247796 1.72348e-18)
(0.478504 -0.271701 5.19189e-19)
(0.470648 -0.299046 1.10164e-18)
(0.460389 -0.330395 -7.48363e-19)
(0.445917 -0.366982 1.1157e-18)
(0.428015 -0.409139 -2.97274e-19)
(0.401049 -0.457772 7.7544e-19)
(0.359828 -0.533895 8.0398e-19)
(0.484823 -0.0491725 -1.02822e-18)
(0.485647 -0.0530453 -1.02185e-18)
(0.486205 -0.0574846 -1.05659e-18)
(0.486941 -0.062239 0)
(0.487724 -0.0672572 0)
(0.488399 -0.0725521 -1.09547e-18)
(0.488951 -0.0781495 0)
(0.489405 -0.0840761 8.49073e-19)
(0.489761 -0.0903626 -1.96549e-18)
(0.489996 -0.0970473 1.1568e-18)
(0.490091 -0.104176 8.86825e-19)
(0.490023 -0.1118 -2.33647e-18)
(0.48977 -0.11998 2.59501e-21)
(0.489299 -0.128786 -9.26724e-19)
(0.488572 -0.138297 5.63721e-20)
(0.487537 -0.14861 -1.20576e-18)
(0.486133 -0.159834 -6.8301e-20)
(0.484279 -0.172104 1.3095e-18)
(0.481872 -0.185574 -6.93348e-19)
(0.478784 -0.200433 -6.56375e-19)
(0.474841 -0.216903 1.37489e-18)
(0.469823 -0.235251 0)
(0.463426 -0.255798 -1.27828e-18)
(0.45528 -0.278918 0)
(0.444759 -0.305109 -1.45329e-18)
(0.43142 -0.334796 1.24142e-18)
(0.413375 -0.369023 2.70006e-19)
(0.391649 -0.407623 1.12604e-18)
(0.358742 -0.452529 -1.25993e-18)
(0.316536 -0.517095 8.63652e-19)
(0.479952 -0.057456 1.01845e-18)
(0.480409 -0.0613783 -3.35463e-20)
(0.480566 -0.0658405 1.28717e-18)
(0.480942 -0.0706141 4.23706e-19)
(0.481366 -0.0756529 0)
(0.481651 -0.0809698 1.12472e-18)
(0.481779 -0.0865911 8.76761e-19)
(0.481782 -0.0925438 -1.45157e-18)
(0.481658 -0.0988588 5.6637e-19)
(0.48138 -0.105573 -5.73683e-19)
(0.480918 -0.11273 -1.21087e-18)
(0.480247 -0.120378 1.23036e-18)
(0.479335 -0.128573 -3.35537e-19)
(0.478141 -0.13738 9.45761e-19)
(0.476616 -0.146874 -2.82946e-19)
(0.474698 -0.157142 -3.3887e-19)
(0.472311 -0.168286 2.05147e-18)
(0.469361 -0.180425 -2.09265e-18)
(0.465729 -0.193699 1.39047e-18)
(0.461264 -0.20827 3.98886e-19)
(0.455771 -0.224329 -1.06583e-18)
(0.449003 -0.242099 8.06174e-19)
(0.440627 -0.261844 0)
(0.430239 -0.283861 -3.98914e-19)
(0.417193 -0.308537 1.96497e-18)
(0.400996 -0.336166 0)
(0.379763 -0.367579 -2.94379e-18)
(0.35466 -0.402245 4.50284e-19)
(0.316953 -0.442555 0)
(0.274789 -0.496325 -1.43986e-18)
(0.473952 -0.0654332 -5.64316e-19)
(0.47402 -0.0694058 -7.07474e-20)
(0.473755 -0.0738844 -4.41664e-19)
(0.473742 -0.0786649 -6.5109e-19)
(0.473778 -0.0837077 1.48471e-19)
(0.473642 -0.0890266 -1.51481e-19)
(0.473314 -0.0946467 -6.05576e-19)
(0.472831 -0.100594 -6.39452e-19)
(0.472189 -0.106899 6.2713e-19)
(0.471355 -0.113595 -3.13646e-19)
(0.470292 -0.120722 -3.32725e-19)
(0.468968 -0.128326 0)
(0.467346 -0.136459 1.02397e-18)
(0.465378 -0.14518 -3.5525e-19)
(0.463005 -0.154557 -7.07806e-19)
(0.460157 -0.164668 -3.71847e-19)