/*--------------------------------*- C++ -*----------------------------------*\
  =========                 |
  \\      /  F ield         | OpenFOAM: The Open Source CFD Toolbox
   \\    /   O peration     | Website:  https://openfoam.org
    \\  /    A nd           | Version:  11
     \\/     M anipulation  |
\*---------------------------------------------------------------------------*/
FoamFile
{
    format      ascii;
    class       volVectorField;
    location    "1";
    object      U;
}
// * * * * * * * * * * * * * * * * * * * * * * * * * * * * * * * * * * * * * //

dimensions      [0 1 -1 0 0 0 0];

internalField   nonuniform List<vector> 
12600
(
(0.399654 0.000102709 0)
(0.399396 0.000172352 0)
(0.399009 0.000178935 0)
(0.39858 0.000177602 0)
(0.398175 0.000176855 0)
(0.397804 0.000173291 0)
(0.397464 0.000167529 0)
(0.397158 0.00015938 0)
(0.396894 0.000147744 0)
(0.396684 0.000132676 0)
(0.396541 0.000116151 0)
(0.396481 9.28645e-05 0)
(0.396522 6.09564e-05 0)
(0.39669 1.07191e-05 0)
(0.397018 -5.22956e-05 0)
(0.397535 -0.000113029 0)
(0.398282 -0.000188955 0)
(0.399305 -0.000279504 0)
(0.400629 -0.000354324 0)
(0.402276 -0.000412819 0)
(0.404335 -0.000495826 0)
(0.406947 -0.000630794 0)
(0.410265 -0.000833568 0)
(0.414473 -0.0011184 0)
(0.419801 -0.00149939 0)
(0.426508 -0.00197147 0)
(0.434881 -0.00253428 0)
(0.445264 -0.00309264 0)
(0.457952 -0.00409782 0)
(0.476011 -0.00353618 0)
(0.400036 0.000150107 0)
(0.400178 0.000262179 0)
(0.400345 0.00023665 0)
(0.40044 0.000216565 0)
(0.400543 0.000200352 0)
(0.400676 0.00018067 0)
(0.400839 0.000154303 0)
(0.401032 0.000123664 0)
(0.40126 8.90437e-05 0)
(0.401535 4.45279e-05 0)
(0.401865 -1.09876e-05 0)
(0.402261 -7.95546e-05 0)
(0.402733 -0.00016117 0)
(0.403293 -0.00025825 0)
(0.403954 -0.000375049 0)
(0.404744 -0.000518362 0)
(0.405695 -0.000686863 0)
(0.40672 -0.000885072 0)
(0.407931 -0.00113952 0)
(0.409729 -0.00147052 0)
(0.412069 -0.00187528 0)
(0.415005 -0.00235818 0)
(0.418601 -0.00294243 0)
(0.422931 -0.00366038 0)
(0.428123 -0.00454379 0)
(0.434388 -0.00562451 0)
(0.441994 -0.00696363 0)
(0.451349 -0.00851879 0)
(0.462716 -0.0107755 0)
(0.477143 -0.011444 0)
(0.400022 7.94329e-05 0)
(0.400105 0.000134106 0)
(0.400213 0.000116153 0)
(0.40031 9.31004e-05 0)
(0.400409 7.41723e-05 0)
(0.400529 4.77363e-05 0)
(0.400677 1.11081e-05 0)
(0.400856 -3.72424e-05 0)
(0.40107 -9.60398e-05 0)
(0.401328 -0.000165501 0)
(0.401638 -0.000249003 0)
(0.402013 -0.000349299 0)
(0.402468 -0.000470288 0)
(0.403021 -0.000616432 0)
(0.403694 -0.000794457 0)
(0.404508 -0.00100644 0)
(0.405497 -0.00123878 0)
(0.406711 -0.00150944 0)
(0.408176 -0.00191018 0)
(0.409902 -0.00248195 0)
(0.411965 -0.00318281 0)
(0.414515 -0.00399628 0)
(0.417712 -0.00494605 0)
(0.421718 -0.00607947 0)
(0.426698 -0.00746206 0)
(0.432859 -0.00916577 0)
(0.44039 -0.0112816 0)
(0.44976 -0.0137958 0)
(0.460831 -0.0171859 0)
(0.47594 -0.0195716 0)
(0.400014 4.71146e-05 0)
(0.400071 0.000101335 0)
(0.400163 0.000102895 0)
(0.400257 8.28952e-05 0)
(0.400353 5.49709e-05 0)
(0.400466 1.80402e-05 0)
(0.400608 -3.1217e-05 0)
(0.40078 -9.43234e-05 0)
(0.400988 -0.000170481 0)
(0.401238 -0.000263214 0)
(0.401539 -0.000375689 0)
(0.401902 -0.000512426 0)
(0.40234 -0.000680253 0)
(0.402871 -0.000886635 0)
(0.403515 -0.00113845 0)
(0.404297 -0.00143961 0)
(0.405252 -0.00179145 0)
(0.406436 -0.00221252 0)
(0.407894 -0.00274899 0)
(0.409654 -0.00342966 0)
(0.411763 -0.00426944 0)
(0.414315 -0.00531013 0)
(0.417437 -0.00660566 0)
(0.42128 -0.00820696 0)
(0.426018 -0.0101704 0)
(0.431881 -0.012563 0)
(0.439067 -0.0154963 0)
(0.448086 -0.0189836 0)
(0.458729 -0.0235734 0)
(0.473551 -0.0275327 0)
(0.40001 2.89467e-05 0)
(0.40005 6.51422e-05 0)
(0.400124 5.99871e-05 0)
(0.400209 2.80891e-05 0)
(0.400302 -1.58403e-05 0)
(0.400412 -6.85934e-05 0)
(0.400547 -0.00013379 0)
(0.400713 -0.000213775 0)
(0.400912 -0.00031076 0)
(0.401152 -0.000428376 0)
(0.40144 -0.000570787 0)
(0.401787 -0.000743742 0)
(0.402208 -0.000954212 0)
(0.40272 -0.00120921 0)
(0.403341 -0.00151638 0)
(0.404092 -0.00188497 0)
(0.405005 -0.00232706 0)
(0.406126 -0.00286856 0)
(0.407503 -0.00355735 0)
(0.409177 -0.00443545 0)
(0.411206 -0.00552555 0)
(0.413677 -0.00685602 0)
(0.416696 -0.00847465 0)
(0.420392 -0.0104491 0)
(0.424917 -0.0128691 0)
(0.430496 -0.0158404 0)
(0.437315 -0.0195093 0)
(0.445909 -0.0239341 0)
(0.456005 -0.0296557 0)
(0.470362 -0.0352262 0)
(0.400007 1.63504e-05 0)
(0.400038 3.4827e-05 0)
(0.400099 2.35633e-05 0)
(0.400177 -1.2155e-05 0)
(0.400265 -6.10745e-05 0)
(0.40037 -0.000122072 0)
(0.400499 -0.000198396 0)
(0.400655 -0.000292524 0)
(0.400844 -0.00040709 0)
(0.401072 -0.000545723 0)
(0.401345 -0.0007135 0)
(0.401674 -0.000917515 0)
(0.402071 -0.00116682 0)
(0.402552 -0.00147164 0)
(0.403134 -0.00184292 0)
(0.403843 -0.0022924 0)
(0.404712 -0.00283432 0)
(0.405781 -0.00349342 0)
(0.40709 -0.00431057 0)
(0.408677 -0.00532909 0)
(0.410589 -0.00658831 0)
(0.412905 -0.00813941 0)
(0.415726 -0.0100523 0)
(0.419179 -0.0124112 0)
(0.423413 -0.015317 0)
(0.428643 -0.0188883 0)
(0.435033 -0.0232908 0)
(0.443123 -0.0286298 0)
(0.452574 -0.0354397 0)
(0.466307 -0.0425818 0)
(0.400006 6.91274e-06 0)
(0.40003 1.04217e-05 0)
(0.400082 -8.39209e-06 0)
(0.400152 -5.04515e-05 0)
(0.400235 -0.000108921 0)
(0.400333 -0.000182109 0)
(0.400453 -0.000272209 0)
(0.4006 -0.000382096 0)
(0.400777 -0.000515036 0)
(0.400989 -0.000675423 0)
(0.401245 -0.000869478 0)
(0.401552 -0.00110547 0)
(0.401922 -0.00139346 0)
(0.40237 -0.00174456 0)
(0.402913 -0.00217091 0)
(0.403572 -0.00268696 0)
(0.404377 -0.00331241 0)
(0.405361 -0.00407756 0)
(0.406564 -0.00502584 0)
(0.408025 -0.00620496 0)
(0.409794 -0.00766169 0)
(0.411941 -0.00945189 0)
(0.414557 -0.01165 0)
(0.417754 -0.0143511 0)
(0.421663 -0.0176758 0)
(0.426484 -0.0217696 0)
(0.432363 -0.0268286 0)
(0.439838 -0.0330104 0)
(0.448518 -0.0408381 0)
(0.461438 -0.049497 0)
(0.400005 -1.77258e-07 0)
(0.400025 -9.72106e-06 0)
(0.400069 -3.75666e-05 0)
(0.400131 -8.64336e-05 0)
(0.400208 -0.000153238 0)
(0.400299 -0.000236441 0)
(0.400411 -0.000337866 0)
(0.400547 -0.000460804 0)
(0.40071 -0.000609232 0)
(0.400906 -0.000788322 0)
(0.401141 -0.00100507 0)
(0.401423 -0.00126855 0)
(0.401764 -0.00158982 0)
(0.402174 -0.00198176 0)
(0.40267 -0.00245931 0)
(0.403272 -0.00304041 0)
(0.404004 -0.0037478 0)
(0.404898 -0.00461231 0)
(0.405991 -0.00567527 0)
(0.407318 -0.00698585 0)
(0.408924 -0.00859961 0)
(0.410872 -0.0105853 0)
(0.413238 -0.0130313 0)
(0.416126 -0.0160469 0)
(0.419653 -0.0197675 0)
(0.424002 -0.0243568 0)
(0.429299 -0.0300331 0)
(0.436062 -0.0370028 0)
(0.44386 -0.0457782 0)
(0.455772 -0.0558851 0)
(0.400004 -6.65497e-06 0)
(0.400021 -2.60872e-05 0)
(0.400059 -6.26918e-05 0)
(0.400114 -0.000118996 0)
(0.400184 -0.000193811 0)
(0.400268 -0.00028634 0)
(0.40037 -0.000398492 0)
(0.400493 -0.000533867 0)
(0.400642 -0.000696987 0)
(0.40082 -0.000893629 0)
(0.401032 -0.00113152 0)
(0.401287 -0.00142071 0)
(0.401593 -0.00177349 0)
(0.401961 -0.002204 0)
(0.402406 -0.00272842 0)
(0.402945 -0.0033662 0)
(0.4036 -0.00414244 0)
(0.404397 -0.00509111 0)
(0.405366 -0.00625691 0)
(0.40654 -0.00769352 0)
(0.40796 -0.00946251 0)
(0.409681 -0.0116381 0)
(0.411772 -0.0143143 0)
(0.414321 -0.0176096 0)
(0.417429 -0.0216733 0)
(0.421256 -0.0266903 0)
(0.425902 -0.0329037 0)
(0.431858 -0.0405699 0)
(0.438661 -0.0501926 0)
(0.449354 -0.0616434 0)
(0.400003 -1.14295e-05 0)
(0.400018 -4.04884e-05 0)
(0.40005 -8.53675e-05 0)
(0.400099 -0.000148641 0)
(0.400162 -0.000230657 0)
(0.400238 -0.000331568 0)
(0.40033 -0.000453374 0)
(0.400441 -0.000599792 0)
(0.400573 -0.000775767 0)
(0.400731 -0.0009877 0)
(0.400919 -0.00124403 0)
(0.401144 -0.0015555 0)
(0.401413 -0.00193512 0)
(0.401736 -0.0023981 0)
(0.402125 -0.0029624 0)
(0.402595 -0.00364989 0)
(0.403163 -0.00448819 0)
(0.403853 -0.00551281 0)
(0.404689 -0.00676889 0)
(0.405701 -0.00831156 0)
(0.406924 -0.010207 0)
(0.408403 -0.0125368 0)
(0.410196 -0.0154041 0)
(0.412375 -0.0189374 0)
(0.415023 -0.0232986 0)
(0.418277 -0.028688 0)
(0.42221 -0.0353686 0)
(0.427268 -0.0436413 0)
(0.432972 -0.0540017 0)
(0.442237 -0.0666624 0)
(0.400003 -1.56245e-05 0)
(0.400015 -5.2885e-05 0)
(0.400043 -0.000105098 0)
(0.400087 -0.00017496 0)
(0.400142 -0.000263648 0)
(0.40021 -0.000371989 0)
(0.400291 -0.000502184 0)
(0.400388 -0.000658128 0)
(0.400504 -0.000845148 0)
(0.40064 -0.00107015 0)
(0.400803 -0.00134211 0)
(0.400995 -0.00167249 0)
(0.401225 -0.00207519 0)
(0.401499 -0.00256654 0)
(0.401828 -0.0031656 0)
(0.402224 -0.00389529 0)
(0.402702 -0.00478443 0)
(0.403279 -0.00587015 0)
(0.403976 -0.00719987 0)
(0.404815 -0.00883203 0)
(0.405826 -0.0108372 0)
(0.407046 -0.0133014 0)
(0.408519 -0.0163321 0)
(0.410304 -0.020064 0)
(0.412462 -0.0246678 0)
(0.415103 -0.0303577 0)
(0.418273 -0.037415 0)
(0.422354 -0.0461804 0)
(0.426869 -0.0571425 0)
(0.434501 -0.0708362 0)
(0.400002 -1.91966e-05 0)
(0.400013 -6.35322e-05 0)
(0.400038 -0.000122338 0)
(0.400075 -0.000198207 0)
(0.400124 -0.000292753 0)
(0.400182 -0.00040738 0)
(0.400252 -0.000544585 0)
(0.400335 -0.000708437 0)
(0.400433 -0.000904539 0)
(0.400548 -0.00114022 0)
(0.400683 -0.001425 0)
(0.400842 -0.00177086 0)
(0.401029 -0.00219231 0)
(0.401253 -0.0027063 0)
(0.401519 -0.00333281 0)
(0.401837 -0.00409602 0)
(0.402219 -0.00502624 0)
(0.402677 -0.00616193 0)
(0.403228 -0.00755159 0)
(0.403888 -0.00925505 0)
(0.404679 -0.0113453 0)
(0.405629 -0.0139119 0)
(0.40677 -0.0170667 0)
(0.408141 -0.0209497 0)
(0.409785 -0.0257385 0)
(0.41178 -0.0316573 0)
(0.414143 -0.0389996 0)
(0.417184 -0.0481375 0)
(0.420434 -0.0595504 0)
(0.42625 -0.0740618 0)
(0.400002 -2.22572e-05 0)
(0.400011 -7.27179e-05 0)
(0.400032 -0.000137281 0)
(0.400065 -0.000218367 0)
(0.400106 -0.000317857 0)
(0.400156 -0.0004376 0)
(0.400215 -0.000580378 0)
(0.400283 -0.000750425 0)
(0.400362 -0.000953567 0)
(0.400454 -0.00119745 0)
(0.400561 -0.00149196 0)
(0.400684 -0.00184949 0)
(0.400829 -0.00228503 0)
(0.400999 -0.0028162 0)
(0.4012 -0.00346369 0)
(0.401438 -0.00425233 0)
(0.40172 -0.00521302 0)
(0.402057 -0.00638498 0)
(0.402457 -0.00781773 0)
(0.402932 -0.00957268 0)
(0.403497 -0.0117249 0)
(0.404167 -0.014366 0)
(0.404964 -0.0176098 0)
(0.405908 -0.0215985 0)
(0.407022 -0.026513 0)
(0.408349 -0.0325826 0)
(0.40988 -0.0401086 0)
(0.411832 -0.0494851 0)
(0.413766 -0.0611783 0)
(0.417616 -0.0762524 0)
(0.400002 -2.48879e-05 0)
(0.40001 -8.06111e-05 0)
(0.400028 -0.000150083 0)
(0.400055 -0.000235528 0)
(0.40009 -0.000338972 0)
(0.400131 -0.000462594 0)
(0.400178 -0.000609435 0)
(0.400231 -0.00078388 0)
(0.400292 -0.000991904 0)
(0.40036 -0.00124138 0)
(0.400437 -0.00154245 0)
(0.400525 -0.00190784 0)
(0.400625 -0.00235285 0)
(0.400741 -0.00289545 0)
(0.400874 -0.00355667 0)
(0.40103 -0.00436178 0)
(0.401211 -0.00534216 0)
(0.401422 -0.00653751 0)
(0.401669 -0.00799786 0)
(0.401956 -0.00978516 0)
(0.40229 -0.011975 0)
(0.402678 -0.0146599 0)
(0.403125 -0.0179537 0)
(0.403636 -0.0219989 0)
(0.40421 -0.0269769 0)
(0.404859 -0.033118 0)
(0.405542 -0.0407239 0)
(0.406382 -0.0501994 0)
(0.406971 -0.0619911 0)
(0.408753 -0.0773411 0)
(0.400002 -2.71493e-05 0)
(0.400008 -8.73577e-05 0)
(0.400024 -0.000160908 0)
(0.400046 -0.000249803 0)
(0.400075 -0.000356135 0)
(0.400107 -0.000482339 0)
(0.400142 -0.000631682 0)
(0.40018 -0.000808665 0)
(0.400222 -0.00101936 0)
(0.400266 -0.00127176 0)
(0.400314 -0.00157618 0)
(0.400365 -0.00194549 0)
(0.400421 -0.00239515 0)
(0.400481 -0.00294328 0)
(0.400546 -0.00361106 0)
(0.400617 -0.00442389 0)
(0.400696 -0.0054132 0)
(0.400781 -0.0066187 0)
(0.400874 -0.00809037 0)
(0.400972 -0.00989006 0)
(0.401075 -0.0120931 0)
(0.401178 -0.0147913 0)
(0.401274 -0.0180972 0)
(0.40135 -0.022151 0)
(0.401385 -0.027131 0)
(0.401355 -0.0332633 0)
(0.401192 -0.0408436 0)
(0.400919 -0.0502748 0)
(0.400165 -0.0619754 0)
(0.39984 -0.0772921 0)
(0.400001 -2.90929e-05 0)
(0.400007 -9.3096e-05 0)
(0.40002 -0.000169923 0)
(0.400038 -0.000261328 0)
(0.40006 -0.000369429 0)
(0.400084 -0.000496873 0)
(0.400107 -0.000647119 0)
(0.400131 -0.00082475 0)
(0.400153 -0.00103586 0)
(0.400174 -0.00128848 0)
(0.400192 -0.00159298 0)
(0.400207 -0.00196223 0)
(0.400217 -0.00241168 0)
(0.400221 -0.00295942 0)
(0.400218 -0.00362656 0)
(0.400206 -0.00443831 0)
(0.400181 -0.00542582 0)
(0.400141 -0.0066284 0)
(0.40008 -0.00809541 0)
(0.39999 -0.00988786 0)
(0.399863 -0.0120799 0)
(0.399684 -0.0147611 0)
(0.399432 -0.0180411 0)
(0.399079 -0.0220556 0)
(0.398582 -0.0269764 0)
(0.397886 -0.0330214 0)
(0.396894 -0.0404725 0)
(0.395531 -0.0497179 0)
(0.393469 -0.0611383 0)
(0.391065 -0.0761055 0)
(0.400001 -3.07697e-05 0)
(0.400006 -9.79679e-05 0)
(0.400017 -0.00017731 0)
(0.400031 -0.000270269 0)
(0.400047 -0.000378977 0)
(0.400062 -0.000506288 0)
(0.400075 -0.000655826 0)
(0.400083 -0.000832196 0)
(0.400087 -0.00104145 0)
(0.400084 -0.00129159 0)
(0.400073 -0.00159289 0)
(0.400051 -0.00195812 0)
(0.400016 -0.00240254 0)
(0.399965 -0.00294396 0)
(0.399894 -0.00360321 0)
(0.399799 -0.0044051 0)
(0.399672 -0.00538024 0)
(0.399508 -0.00656709 0)
(0.399296 -0.00801387 0)
(0.399022 -0.00977991 0)
(0.398669 -0.011937 0)
(0.398213 -0.0145716 0)
(0.397622 -0.0177887 0)
(0.39685 -0.0217177 0)
(0.395837 -0.026521 0)
(0.394497 -0.0324036 0)
(0.392708 -0.0396267 0)
(0.390305 -0.0485519 0)
(0.386999 -0.0595116 0)
(0.382622 -0.0738225 0)
(0.400001 -3.22357e-05 0)
(0.400005 -0.000102132 0)
(0.400014 -0.000183277 0)
(0.400026 -0.000276821 0)
(0.400036 -0.000384945 0)
(0.400043 -0.000510735 0)
(0.400044 -0.000657951 0)
(0.400039 -0.00083116 0)
(0.400024 -0.0010363 0)
(0.399998 -0.00128125 0)
(0.399958 -0.00157613 0)
(0.3999 -0.0019334 0)
(0.399821 -0.00236799 0)
(0.399716 -0.0028973 0)
(0.399578 -0.00354163 0)
(0.399401 -0.00432515 0)
(0.399175 -0.00527758 0)
(0.398889 -0.00643619 0)
(0.39853 -0.00784748 0)
(0.398077 -0.00956844 0)
(0.397505 -0.0116677 0)
(0.396782 -0.0142273 0)
(0.395862 -0.0173463 0)
(0.394689 -0.0211459 0)
(0.393182 -0.0257768 0)
(0.391231 -0.031427 0)
(0.388691 -0.0383317 0)
(0.385321 -0.046814 0)
(0.380865 -0.0571499 0)
(0.374692 -0.0705262 0)
(0.400001 -3.35583e-05 0)
(0.400005 -0.00010578 0)
(0.400012 -0.000188068 0)
(0.400021 -0.000281218 0)
(0.400027 -0.000387537 0)
(0.400026 -0.000510414 0)
(0.400017 -0.000653711 0)
(0.399997 -0.000821877 0)
(0.399964 -0.00102069 0)
(0.399916 -0.00125783 0)
(0.399848 -0.00154311 0)
(0.399755 -0.00188857 0)
(0.399634 -0.00230858 0)
(0.399476 -0.00282001 0)
(0.399273 -0.00344256 0)
(0.399017 -0.00419962 0)
(0.398695 -0.00511968 0)
(0.398292 -0.00623823 0)
(0.39779 -0.00759941 0)
(0.397164 -0.00925718 0)
(0.396383 -0.0112763 0)
(0.395404 -0.0137337 0)
(0.394173 -0.0167215 0)
(0.392618 -0.0203512 0)
(0.390647 -0.0247594 0)
(0.388126 -0.0301146 0)
(0.384894 -0.0366209 0)
(0.380648 -0.0445548 0)
(0.375164 -0.0541291 0)
(0.367435 -0.0663382 0)
(0.400001 -3.48235e-05 0)
(0.400005 -0.000109149 0)
(0.400012 -0.000191973 0)
(0.400018 -0.000283725 0)
(0.400019 -0.000387 0)
(0.400011 -0.00050559 0)
(0.399992 -0.000643406 0)
(0.399959 -0.000804689 0)
(0.39991 -0.000994979 0)
(0.39984 -0.00122172 0)
(0.399745 -0.00149436 0)
(0.399619 -0.00182439 0)
(0.399456 -0.00222546 0)
(0.399248 -0.00271354 0)
(0.398983 -0.00330741 0)
(0.39865 -0.00402954 0)
(0.398236 -0.00490739 0)
(0.397722 -0.00597467 0)
(0.397086 -0.00727268 0)
(0.396297 -0.00885137 0)
(0.395317 -0.0107704 0)
(0.394097 -0.0131005 0)
(0.392572 -0.0159261 0)
(0.390661 -0.0193481 0)
(0.388259 -0.0234885 0)
(0.385216 -0.0284938 0)
(0.381359 -0.0345348 0)
(0.376342 -0.0418348 0)
(0.369972 -0.0505418 0)
(0.360972 -0.0614115 0)
(0.400001 -3.61481e-05 0)
(0.400005 -0.000112553 0)
(0.400012 -0.000195348 0)
(0.400017 -0.000284633 0)
(0.400015 -0.000383603 0)
(0.4 -0.000496566 0)
(0.399971 -0.000627379 0)
(0.399926 -0.000779997 0)
(0.399861 -0.000959719 0)
(0.39977 -0.00117365 0)
(0.39965 -0.00143063 0)
(0.399493 -0.00174141 0)
(0.399291 -0.00211895 0)
(0.399034 -0.00257861 0)
(0.398711 -0.00313835 0)
(0.398307 -0.00381923 0)
(0.397805 -0.00464654 0)
(0.397185 -0.00565128 0)
(0.396422 -0.00687167 0)
(0.39548 -0.00835399 0)
(0.394315 -0.0101531 0)
(0.392871 -0.0123332 0)
(0.391075 -0.0149698 0)
(0.388837 -0.0181521 0)
(0.386041 -0.021986 0)
(0.382529 -0.0265959 0)
(0.37812 -0.0321186 0)
(0.372447 -0.038722 0)
(0.365344 -0.0464916 0)
(0.355383 -0.0559194 0)
(0.400001 -3.77013e-05 0)
(0.400006 -0.000116424 0)
(0.400014 -0.000198621 0)
(0.400019 -0.000284214 0)
(0.400013 -0.000377587 0)
(0.399993 -0.000483726 0)
(0.399956 -0.00060615 0)
(0.399899 -0.00074836 0)
(0.399819 -0.000915435 0)
(0.399709 -0.0011142 0)
(0.399565 -0.00135295 0)
(0.399379 -0.0016415 0)
(0.39914 -0.00199149 0)
(0.398839 -0.00241696 0)
(0.398459 -0.00293503 0)
(0.397988 -0.00356638 0)
(0.397405 -0.00433531 0)
(0.396689 -0.00527013 0)
(0.395809 -0.00640425 0)
(0.394726 -0.00777786 0)
(0.393391 -0.00943933 0)
(0.39174 -0.0114463 0)
(0.389696 -0.0138663 0)
(0.387159 -0.0167781 0)
(0.38401 -0.0202724 0)
(0.380084 -0.0244511 0)
(0.375198 -0.0294179 0)
(0.368987 -0.0352862 0)
(0.361307 -0.0420859 0)
(0.350695 -0.0500424 0)
(0.400002 -3.97431e-05 0)
(0.400008 -0.000121367 0)
(0.400019 -0.000202284 0)
(0.400025 -0.000282863 0)
(0.400016 -0.000369386 0)
(0.39999 -0.00046742 0)
(0.399945 -0.000579953 0)
(0.399878 -0.000710123 0)
(0.399784 -0.00086283 0)
(0.399658 -0.00104436 0)
(0.399491 -0.00126212 0)
(0.399278 -0.00152514 0)
(0.399007 -0.00184437 0)
(0.398665 -0.00223284 0)
(0.398236 -0.00270599 0)
(0.397703 -0.00328211 0)
(0.397044 -0.00398308 0)
(0.396236 -0.00483495 0)
(0.395247 -0.0058686 0)
(0.394036 -0.00712014 0)
(0.392547 -0.00863147 0)
(0.390711 -0.0104513 0)
(0.388444 -0.0126368 0)
(0.385641 -0.0152547 0)
(0.382179 -0.0183816 0)
(0.377893 -0.0220999 0)
(0.372608 -0.0264844 0)
(0.365969 -0.0315984 0)
(0.357861 -0.037429 0)
(0.346884 -0.0439528 0)
(0.400002 -4.26198e-05 0)
(0.400012 -0.000128161 0)
(0.400027 -0.000206825 0)
(0.400035 -0.000280942 0)
(0.400025 -0.000359589 0)
(0.399994 -0.00044843 0)
(0.399942 -0.00054961 0)
(0.399866 -0.000665901 0)
(0.399759 -0.000802097 0)
(0.399617 -0.000964079 0)
(0.399431 -0.00115838 0)
(0.399193 -0.00139265 0)
(0.398891 -0.00167617 0)
(0.398511 -0.00202084 0)
(0.398036 -0.00244194 0)
(0.397447 -0.00295771 0)
(0.396722 -0.00358815 0)
(0.395834 -0.00435465 0)
(0.394748 -0.00528108 0)
(0.39342 -0.00639619 0)
(0.391792 -0.00773574 0)
(0.389789 -0.00934328 0)
(0.387323 -0.0112697 0)
(0.384285 -0.0135726 0)
(0.380552 -0.0163152 0)
(0.375961 -0.0195603 0)
(0.370346 -0.0233552 0)
(0.363381 -0.0277197 0)
(0.354977 -0.0326132 0)
(0.343876 -0.0378023 0)
(0.400004 -4.74075e-05 0)
(0.400019 -0.000138097 0)
(0.400041 -0.000212571 0)
(0.400051 -0.000278038 0)
(0.400039 -0.000347787 0)
(0.400005 -0.000426999 0)
(0.399947 -0.000516571 0)
(0.399863 -0.000618832 0)
(0.399746 -0.000738226 0)
(0.39959 -0.000879802 0)
(0.399387 -0.00104938 0)
(0.399128 -0.00125392 0)
(0.3988 -0.00150129 0)
(0.398388 -0.00180104 0)
(0.397874 -0.00216578 0)
(0.397237 -0.00261192 0)
(0.396452 -0.00315909 0)
(0.395492 -0.00382851 0)
(0.394319 -0.00464166 0)
(0.392888 -0.0056207 0)
(0.391135 -0.00679091 0)
(0.388983 -0.00818392 0)
(0.38634 -0.00983968 0)
(0.383095 -0.0118062 0)
(0.379124 -0.0141387 0)
(0.374274 -0.0168879 0)
(0.368394 -0.0200825 0)
(0.361194 -0.0237084 0)
(0.352609 -0.027717 0)
(0.341582 -0.0317135 0)
(0.400006 -5.51406e-05 0)
(0.40003 -0.000153106 0)
(0.400063 -0.000221154 0)
(0.400077 -0.000275253 0)
(0.400063 -0.000333038 0)
(0.400025 -0.000398783 0)
(0.399963 -0.000472707 0)
(0.399872 -0.000557115 0)
(0.399746 -0.000656406 0)
(0.399578 -0.000774304 0)
(0.39936 -0.00091532 0)
(0.399081 -0.00108542 0)
(0.398731 -0.00129153 0)
(0.398294 -0.00154287 0)
(0.397747 -0.00185135 0)
(0.397065 -0.00223073 0)
(0.396218 -0.00269547 0)
(0.395178 -0.00326017 0)
(0.393914 -0.00394014 0)
(0.392385 -0.00475341 0)
(0.390529 -0.00572247 0)
(0.388259 -0.00687548 0)
(0.385473 -0.00824609 0)
(0.382055 -0.00987288 0)
(0.377884 -0.0118013 0)
(0.372831 -0.0140673 0)
(0.366762 -0.0166818 0)
(0.359429 -0.0196031 0)
(0.350785 -0.0228039 0)
(0.340007 -0.0257816 0)
(0.40001 -6.77774e-05 0)
(0.400049 -0.000173272 0)
(0.400098 -0.000234727 0)
(0.400117 -0.000282568 0)
(0.400102 -0.000333748 0)
(0.400061 -0.000389594 0)
(0.399995 -0.000450751 0)
(0.399899 -0.000519526 0)
(0.399765 -0.000600154 0)
(0.399588 -0.000695175 0)
(0.399358 -0.000808163 0)
(0.399065 -0.000944474 0)
(0.398696 -0.00110853 0)
(0.398234 -0.00130516 0)
(0.397658 -0.0015427 0)
(0.396942 -0.0018356 0)
(0.396058 -0.00220361 0)
(0.394971 -0.00266614 0)
(0.393638 -0.00323544 0)
(0.392004 -0.00391507 0)
(0.390006 -0.0047067 0)
(0.387573 -0.00562149 0)
(0.384628 -0.00668614 0)
(0.381075 -0.00794155 0)
(0.376807 -0.00944287 0)
(0.371694 -0.0112192 0)
(0.365606 -0.0132621 0)
(0.358298 -0.0154998 0)
(0.349749 -0.0179595 0)
(0.33932 -0.020064 0)
(0.400017 -9.43644e-05 0)
(0.400081 -0.000185333 0)
(0.400146 -0.000217968 0)
(0.400168 -0.000248902 0)
(0.400153 -0.000286875 0)
(0.400111 -0.000327422 0)
(0.400043 -0.00037092 0)
(0.399943 -0.000420923 0)
(0.399804 -0.000479635 0)
(0.39962 -0.000549902 0)
(0.399381 -0.000634553 0)
(0.399077 -0.000736114 0)
(0.398696 -0.000858567 0)
(0.39822 -0.00100672 0)
(0.39763 -0.00118636 0)
(0.396897 -0.00140558 0)
(0.395981 -0.00167458 0)
(0.394831 -0.00200336 0)
(0.393394 -0.00240051 0)
(0.391628 -0.00287526 0)
(0.389504 -0.0034404 0)
(0.386989 -0.00411382 0)
(0.384025 -0.00491307 0)
(0.380514 -0.00585459 0)
(0.376329 -0.00698194 0)
(0.371306 -0.00831575 0)
(0.3653 -0.00982978 0)
(0.358028 -0.0114282 0)
(0.349594 -0.0132075 0)
(0.339082 -0.0144029 0)
(0.400026 -0.000159243 0)
(0.400186 -0.000309837 0)
(0.400262 -0.000303194 0)
(0.400252 -0.000313867 0)
(0.400215 -0.00033602 0)
(0.400157 -0.000360558 0)
(0.40007 -0.000388106 0)
(0.399947 -0.000416989 0)
(0.39978 -0.000456663 0)
(0.399564 -0.000496462 0)
(0.399288 -0.000544282 0)
(0.398941 -0.000605429 0)
(0.398505 -0.000678745 0)
(0.397963 -0.000767795 0)
(0.397291 -0.000877192 0)
(0.396466 -0.00101122 0)
(0.395461 -0.00117499 0)
(0.394246 -0.00137764 0)
(0.392791 -0.0016335 0)
(0.391053 -0.00195811 0)
(0.388972 -0.00236166 0)
(0.386471 -0.00284606 0)
(0.383452 -0.00340739 0)
(0.379812 -0.00404193 0)
(0.375439 -0.00475407 0)
(0.369964 -0.00555249 0)
(0.363381 -0.00644266 0)
(0.355458 -0.00736298 0)
(0.346629 -0.00847286 0)
(0.334298 -0.00840389 0)
(0.399647 -0.000109503 0)
(0.399354 -0.000183255 0)
(0.398903 -0.000198856 0)
(0.398374 -0.000208739 0)
(0.397822 -0.000220563 0)
(0.397249 -0.000231748 0)
(0.396644 -0.000242439 0)
(0.396001 -0.000254683 0)
(0.395313 -0.000267929 0)
(0.394571 -0.000283889 0)
(0.393769 -0.00030355 0)
(0.392896 -0.000325687 0)
(0.391934 -0.00034959 0)
(0.390869 -0.000374567 0)
(0.38968 -0.000402079 0)
(0.388337 -0.000439228 0)
(0.386799 -0.000498037 0)
(0.385006 -0.000589126 0)
(0.382882 -0.000714948 0)
(0.380336 -0.000868805 0)
(0.377271 -0.00104025 0)
(0.373591 -0.0012215 0)
(0.369204 -0.00141369 0)
(0.36402 -0.00162666 0)
(0.357959 -0.00185596 0)
(0.350949 -0.00210084 0)
(0.342879 -0.00238495 0)
(0.333601 -0.00267279 0)
(0.323245 -0.00313264 0)
(0.307616 -0.00254153 0)
(0.481892 -0.007759 6.95307e-21)
(0.488121 -0.0118616 -1.09787e-17)
(0.493895 -0.0166567 1.10296e-17)
(0.49871 -0.0220124 5.54325e-18)
(0.502991 -0.0278274 4.18557e-18)
(0.506988 -0.0340633 8.43626e-18)
(0.510763 -0.0407448 4.23907e-18)
(0.514363 -0.0479269 1.14083e-17)
(0.517849 -0.0556598 5.75569e-18)
(0.521264 -0.0639791 2.88968e-18)
(0.52462 -0.0729162 -2.9226e-18)
(0.527907 -0.0825078 5.87316e-18)
(0.531109 -0.0927999 2.98382e-18)
(0.534216 -0.103851 2.99955e-18)
(0.537226 -0.115735 6.04442e-18)
(0.540142 -0.128541 3.06592e-18)
(0.542972 -0.14238 9.21241e-18)
(0.545728 -0.157385 0)
(0.548422 -0.173721 0)
(0.551073 -0.191595 3.10732e-18)
(0.553704 -0.211261 -2.59104e-20)
(0.556342 -0.233043 3.16472e-18)
(0.559035 -0.257342 0)
(0.561772 -0.28473 6.23537e-18)
(0.564804 -0.315714 3.07548e-18)
(0.567402 -0.35187 -3.11933e-18)
(0.572488 -0.391614 3.01098e-18)
(0.569957 -0.448045 2.96619e-18)
(0.589799 -0.481857 8.29513e-18)
(0.550458 -0.616232 -2.5801e-18)
(0.487531 -0.0168991 -5.52195e-18)
(0.491747 -0.0212725 6.24711e-18)
(0.495368 -0.0265293 -6.29253e-18)
(0.498438 -0.0322213 0)
(0.501334 -0.0382496 -5.69658e-18)
(0.504229 -0.0446601 -5.7306e-18)
(0.507124 -0.0515265 -1.4449e-18)
(0.509997 -0.0588967 -1.02118e-17)
(0.512842 -0.0667932 -5.87752e-18)
(0.515641 -0.0752351 -5.95154e-18)
(0.518358 -0.0842523 2.99239e-18)
(0.520961 -0.0938882 -3.02988e-18)
(0.523432 -0.104197 -6.09034e-18)
(0.525762 -0.115245 -6.14656e-18)
(0.527946 -0.127109 -6.20347e-18)
(0.529982 -0.13988 -6.26059e-18)
(0.531866 -0.153671 -1.26794e-17)
(0.533592 -0.168614 3.18869e-18)
(0.535152 -0.184874 -3.23693e-18)
(0.536537 -0.202654 -9.77423e-18)
(0.537736 -0.222204 3.08001e-20)
(0.538734 -0.24384 -4.26513e-20)
(0.539513 -0.267952 -4.52571e-20)
(0.540012 -0.295071 -1.00144e-17)
(0.540293 -0.325716 -6.67213e-18)
(0.539769 -0.361232 -3.23162e-18)
(0.540283 -0.400675 1.22176e-19)
(0.533964 -0.453741 -1.0697e-19)
(0.546041 -0.491145 -9.16295e-18)
(0.501523 -0.61473 0)
(0.485079 -0.0254998 0)
(0.488063 -0.0298298 0)
(0.490771 -0.0350499 0)
(0.493382 -0.0407525 -7.19982e-19)
(0.496011 -0.0468333 6.54098e-18)
(0.498651 -0.0533161 -1.46612e-18)
(0.501245 -0.0602383 1.48317e-18)
(0.503745 -0.067621 5.97387e-18)
(0.50613 -0.0754855 -1.50819e-18)
(0.508384 -0.0838667 7.61712e-18)
(0.510491 -0.0928111 3.07697e-18)
(0.512439 -0.102371 -3.11797e-18)
(0.514222 -0.112604 3.14122e-18)
(0.515834 -0.123573 -3.18554e-18)
(0.51726 -0.135354 -6.45057e-18)
(0.518486 -0.148037 6.5229e-18)
(0.51949 -0.161731 6.54845e-18)
(0.520248 -0.176569 0)
(0.520732 -0.192712 0)
(0.520908 -0.210359 6.74941e-18)
(0.520729 -0.22975 0)
(0.520138 -0.25119 1.03799e-17)
(0.519058 -0.275051 3.49665e-18)
(0.517365 -0.301824 6.94128e-18)
(0.514985 -0.33203 1.04252e-17)
(0.511361 -0.366784 3.54898e-18)
(0.507605 -0.405661 0)
(0.49757 -0.455689 1.37304e-17)
(0.501162 -0.495971 0)
(0.453437 -0.607985 6.41671e-18)
(0.482284 -0.0342917 0)
(0.484742 -0.0388007 0)
(0.486966 -0.0441168 0)
(0.489212 -0.0498723 -5.89989e-18)
(0.491447 -0.0559785 0)
(0.493587 -0.0624596 0)
(0.495595 -0.069357 0)
(0.497467 -0.076702 6.14893e-18)
(0.499203 -0.0845263 0)
(0.500797 -0.0928677 0)
(0.502234 -0.101768 0)
(0.5035 -0.111273 -6.4358e-18)
(0.504576 -0.121435 -6.5138e-18)
(0.505441 -0.132315 -3.28165e-18)
(0.506068 -0.143989 -3.33782e-20)
(0.506429 -0.156545 -6.70215e-18)
(0.50649 -0.170093 1.35816e-20)
(0.506213 -0.18476 1.04015e-17)
(0.505549 -0.200703 3.48868e-18)
(0.50444 -0.21811 -3.55172e-18)
(0.502808 -0.23721 -3.57191e-18)
(0.500555 -0.258287 -3.56873e-18)
(0.497552 -0.281687 -3.64736e-18)
(0.49362 -0.307854 1.11939e-17)
(0.488565 -0.337286 0)
(0.481861 -0.370882 -1.13111e-17)
(0.474015 -0.408567 -3.80703e-18)
(0.460318 -0.455468 2.50621e-19)
(0.455844 -0.496472 -1.12201e-17)
(0.405729 -0.596772 5.71947e-19)
(0.478528 -0.0426795 0)
(0.480434 -0.0472473 5.90766e-18)
(0.482082 -0.0525467 -7.44913e-19)
(0.483817 -0.0582718 1.28113e-17)
(0.485542 -0.0643589 0)
(0.487139 -0.0708297 0)
(0.488586 -0.0777162 6.24431e-18)
(0.489895 -0.0850429 -6.29249e-18)
(0.491061 -0.0928348 0)
(0.492064 -0.101124 0)
(0.49288 -0.109951 0)
(0.493485 -0.11936 6.60737e-18)
(0.493854 -0.129407 6.6934e-18)
(0.493962 -0.140153 -3.39746e-18)
(0.493774 -0.151673 1.0328e-17)
(0.493255 -0.164054 0)
(0.49236 -0.177398 7.12678e-18)
(0.491033 -0.191829 -1.08095e-17)
(0.489209 -0.207491 -3.66046e-18)
(0.486804 -0.224561 0)
(0.483711 -0.243251 0)
(0.479797 -0.263819 0)
(0.474886 -0.286581 0)
(0.468752 -0.311928 -3.88795e-18)
(0.461102 -0.340314 -4.00647e-18)
(0.451428 -0.372456 3.97957e-18)
(0.439757 -0.408506 4.11324e-18)
(0.422566 -0.452091 -8.07857e-18)
(0.410581 -0.492524 8.12147e-18)
(0.359139 -0.58139 -7.83503e-18)
(0.473848 -0.0506755 -5.97169e-18)
(0.475244 -0.0553017 -5.64671e-18)
(0.476363 -0.0606141 -1.14405e-18)
(0.477618 -0.0663409 -4.62114e-18)
(0.47887 -0.0724239 -1.10453e-21)
(0.479962 -0.0788763 -2.37079e-18)
(0.480877 -0.0857236 2.96867e-20)
(0.481629 -0.0929887 -6.49842e-18)
(0.482212 -0.100699 -4.94367e-18)
(0.482599 -0.108888 6.67776e-18)
(0.482763 -0.117596 0)
(0.482678 -0.126871 8.58028e-18)
(0.482318 -0.136762 -8.7106e-18)
(0.481648 -0.147332 -7.07856e-18)
(0.480629 -0.158648 1.07667e-17)
(0.479213 -0.170792 -1.09476e-17)
(0.477342 -0.183862 -3.67053e-18)
(0.474947 -0.197969 -3.8352e-18)
(0.471944 -0.213248 -3.8159e-18)
(0.468228 -0.22986 1.17208e-17)
(0.463667 -0.247996 0)
(0.458097 -0.267886 4.01954e-18)
(0.451302 -0.289807 -8.20912e-18)
(0.443015 -0.314095 8.47195e-18)
(0.43287 -0.341147 4.28031e-18)
(0.420365 -0.371521 8.78414e-18)
(0.405161 -0.405482 0)
(0.384697 -0.445502 9.14242e-18)
(0.365978 -0.484184 0)
(0.314034 -0.561931 -9.37313e-18)
(0.468272 -0.0581884 6.0894e-18)
(0.469175 -0.0628535 3.09236e-18)
(0.469777 -0.0681541 -3.13284e-18)
(0.470549 -0.0738467 2.3818e-18)
(0.471314 -0.0798807 9.22925e-22)
(0.47189 -0.0862688 8.89858e-22)
(0.472258 -0.0930358 -5.74876e-18)
(0.472442 -0.100205 1.64609e-18)
(0.472435 -0.107803 1.01459e-17)
(0.472204 -0.115864 -8.57658e-18)
(0.471718 -0.124423 1.74386e-18)
(0.470947 -0.133526 -8.84023e-18)
(0.469859 -0.143218 7.17903e-18)
(0.468412 -0.153557 7.29633e-18)
(0.466559 -0.164608 -3.67987e-18)
(0.464241 -0.176446 7.54776e-18)
(0.461391 -0.189158 0)
(0.457927 -0.202849 3.89761e-18)
(0.453749 -0.217638 4.01198e-18)
(0.448733 -0.233668 -8.12947e-18)
(0.442727 -0.251105 0)
(0.435539 -0.270147 -4.25428e-18)
(0.426923 -0.29103 2.02674e-20)
(0.41658 -0.314031 -8.81904e-18)
(0.404088 -0.33948 9.13327e-18)
(0.388949 -0.367801 -1.39679e-17)
(0.370559 -0.399277 0)
(0.347123 -0.43551 -9.61656e-18)
(0.322568 -0.471503 1.21711e-19)
(0.270844 -0.53861 1.01929e-17)
(0.461815 -0.0651201 3.12726e-18)
(0.462236 -0.0697985 -2.76253e-18)
(0.462335 -0.0750606 2.80054e-18)
(0.462628 -0.0806919 -6.50377e-18)
(0.46291 -0.0866498 -3.30428e-18)
(0.462974 -0.0929468 -8.35566e-19)
(0.462803 -0.0996051 3.40263e-18)
(0.462427 -0.106647 7.75095e-18)
(0.461836 -0.114097 3.50849e-18)