/*--------------------------------*- C++ -*----------------------------------*\
  =========                 |
  \\      /  F ield         | OpenFOAM: The Open Source CFD Toolbox
   \\    /   O peration     | Website:  https://openfoam.org
    \\  /    A nd           | Version:  11
     \\/     M anipulation  |
\*---------------------------------------------------------------------------*/
FoamFile
{
    format      ascii;
    class       volVectorField;
    location    "1";
    object      U;
}
// * * * * * * * * * * * * * * * * * * * * * * * * * * * * * * * * * * * * * //

dimensions      [0 1 -1 0 0 0 0];

internalField   nonuniform List<vector> 
12600
(
(0.412112 0.000106441 0)
(0.411842 0.000179664 0)
(0.411429 0.000189808 0)
(0.410959 0.000192974 0)
(0.410492 0.000197391 0)
(0.410036 0.000200464 0)
(0.409582 0.000202078 0)
(0.40913 0.000202811 0)
(0.408681 0.000202697 0)
(0.408239 0.000201425 0)
(0.407808 0.000198505 0)
(0.40739 0.000193231 0)
(0.406992 0.000184709 0)
(0.406618 0.000172353 0)
(0.406275 0.000156586 0)
(0.40597 0.000140005 0)
(0.405707 0.000128022 0)
(0.405486 0.000126423 0)
(0.4053 0.000137884 0)
(0.405142 0.000155933 0)
(0.405007 0.000164007 0)
(0.404902 0.000158439 0)
(0.404845 0.000143193 0)
(0.404875 0.000101546 0)
(0.405054 2.74735e-05 0)
(0.405457 -8.58617e-05 0)
(0.406173 -0.000215521 0)
(0.407281 -0.000362532 0)
(0.408971 -0.000542417 0)
(0.410325 -0.00105245 0)
(0.412492 0.000153782 0)
(0.412639 0.000280771 0)
(0.412777 0.000262394 0)
(0.41283 0.000254579 0)
(0.412876 0.000257329 0)
(0.412929 0.000257579 0)
(0.412985 0.000255285 0)
(0.413043 0.000251594 0)
(0.413103 0.000246498 0)
(0.413168 0.000239745 0)
(0.413239 0.000231122 0)
(0.413316 0.000220391 0)
(0.4134 0.000207449 0)
(0.413492 0.000191889 0)
(0.413592 0.000171956 0)
(0.413704 0.000145557 0)
(0.413838 0.000112507 0)
(0.414005 7.30251e-05 0)
(0.414221 2.97088e-05 0)
(0.414505 -1.26586e-05 0)
(0.414872 -4.70386e-05 0)
(0.415329 -7.6325e-05 0)
(0.415885 -0.000120001 0)
(0.416547 -0.000193611 0)
(0.417332 -0.000304813 0)
(0.418242 -0.000464783 0)
(0.419371 -0.000689617 0)
(0.420549 -0.00100481 0)
(0.422389 -0.00139183 0)
(0.423002 -0.00223943 0)
(0.41248 8.41516e-05 0)
(0.412555 0.00015102 0)
(0.412647 0.000155123 0)
(0.412715 0.000156589 0)
(0.412768 0.000162398 0)
(0.412822 0.000164741 0)
(0.412879 0.000163073 0)
(0.412939 0.000159366 0)
(0.413 0.000153588 0)
(0.413065 0.000145376 0)
(0.413136 0.000134621 0)
(0.413216 0.000121081 0)
(0.413308 0.000102983 0)
(0.413415 8.10872e-05 0)
(0.413541 5.80668e-05 0)
(0.413688 2.72806e-05 0)
(0.413854 -1.01191e-05 0)
(0.414034 -5.28996e-05 0)
(0.414222 -0.00010063 0)
(0.414422 -0.000159645 0)
(0.41465 -0.000240114 0)
(0.414931 -0.000349435 0)
(0.415309 -0.000487072 0)
(0.415836 -0.000655806 0)
(0.416557 -0.000865325 0)
(0.417492 -0.00113191 0)
(0.418653 -0.00145502 0)
(0.420022 -0.00187076 0)
(0.421583 -0.00237527 0)
(0.42338 -0.00280619 0)
(0.412473 5.47038e-05 0)
(0.412523 0.000128983 0)
(0.412597 0.000154885 0)
(0.412662 0.000163428 0)
(0.412713 0.00017066 0)
(0.412764 0.000175673 0)
(0.412819 0.000174357 0)
(0.412877 0.000170311 0)
(0.412936 0.00016342 0)
(0.413 0.00015313 0)
(0.41307 0.000138836 0)
(0.413148 0.00011935 0)
(0.413237 9.42086e-05 0)
(0.413339 6.29807e-05 0)
(0.413456 2.33154e-05 0)
(0.413592 -2.44841e-05 0)
(0.413752 -7.682e-05 0)
(0.413939 -0.000129412 0)
(0.414161 -0.000185222 0)
(0.414424 -0.000249891 0)
(0.414736 -0.000327598 0)
(0.415106 -0.000425937 0)
(0.415546 -0.000583082 0)
(0.416078 -0.000819301 0)
(0.416732 -0.00113723 0)
(0.417542 -0.00153043 0)
(0.41854 -0.0019923 0)
(0.419763 -0.00253128 0)
(0.421216 -0.00317264 0)
(0.423079 -0.00365528 0)
(0.412468 3.86801e-05 0)
(0.412503 9.82995e-05 0)
(0.412561 0.000122531 0)
(0.412618 0.000127135 0)
(0.412668 0.000128555 0)
(0.412717 0.000128736 0)
(0.41277 0.000125543 0)
(0.412825 0.000118675 0)
(0.412884 0.000107909 0)
(0.412946 9.3309e-05 0)
(0.413014 7.42278e-05 0)
(0.41309 4.9846e-05 0)
(0.413176 1.86053e-05 0)
(0.413276 -2.01833e-05 0)
(0.413393 -6.52681e-05 0)
(0.413527 -0.000117231 0)
(0.41368 -0.000176767 0)
(0.413854 -0.000246012 0)
(0.414059 -0.000329299 0)
(0.414309 -0.000433059 0)
(0.414619 -0.000567147 0)
(0.415006 -0.000742953 0)
(0.415485 -0.00096932 0)
(0.416059 -0.00125547 0)
(0.416733 -0.00161222 0)
(0.417525 -0.00205171 0)
(0.418462 -0.00258603 0)
(0.419602 -0.00322132 0)
(0.420955 -0.00399511 0)
(0.422773 -0.0046993 0)
(0.412466 2.78449e-05 0)
(0.41249 7.38759e-05 0)
(0.412537 9.70821e-05 0)
(0.412588 0.000103997 0)
(0.412636 0.000106602 0)
(0.412684 0.000108053 0)
(0.412735 0.00010628 0)
(0.412788 0.000100135 0)
(0.412845 8.94777e-05 0)
(0.412905 7.38374e-05 0)
(0.412971 5.23072e-05 0)
(0.413045 2.39107e-05 0)
(0.413128 -1.12715e-05 0)
(0.413223 -5.57594e-05 0)
(0.413332 -0.000110477 0)
(0.413458 -0.000176012 0)
(0.413606 -0.000251046 0)
(0.413784 -0.000335279 0)
(0.414 -0.000432993 0)
(0.41426 -0.000551964 0)
(0.414571 -0.000700676 0)
(0.414942 -0.000889986 0)
(0.415384 -0.00113925 0)
(0.415906 -0.00146845 0)
(0.416523 -0.00189145 0)
(0.41726 -0.00241749 0)
(0.418144 -0.00305654 0)
(0.419231 -0.00381344 0)
(0.420518 -0.00473731 0)
(0.422282 -0.00565805 0)
(0.412464 2.0264e-05 0)
(0.412483 5.51406e-05 0)
(0.412521 7.52598e-05 0)
(0.412567 8.20613e-05 0)
(0.412612 8.32933e-05 0)
(0.412657 8.23931e-05 0)
(0.412705 7.82379e-05 0)
(0.412757 6.9583e-05 0)
(0.412811 5.59208e-05 0)
(0.412869 3.66712e-05 0)
(0.412932 1.09564e-05 0)
(0.413003 -2.29024e-05 0)
(0.413083 -6.49704e-05 0)
(0.413173 -0.000116722 0)
(0.413277 -0.000179163 0)
(0.413397 -0.000252742 0)
(0.413537 -0.00033828 0)
(0.413703 -0.00043869 0)
(0.413902 -0.000559888 0)
(0.414141 -0.000709997 0)
(0.41443 -0.000898553 0)
(0.414778 -0.00113696 0)
(0.415195 -0.00143919 0)
(0.415691 -0.00181891 0)
(0.416275 -0.00229029 0)
(0.416969 -0.00286981 0)
(0.417795 -0.003578 0)
(0.418808 -0.00442977 0)
(0.420007 -0.00547932 0)
(0.421674 -0.00660068 0)
(0.412463 1.46095e-05 0)
(0.412478 4.01769e-05 0)
(0.41251 5.58948e-05 0)
(0.41255 6.12362e-05 0)
(0.412593 6.10147e-05 0)
(0.412636 5.84394e-05 0)
(0.412681 5.31435e-05 0)
(0.41273 4.36943e-05 0)
(0.412783 2.89878e-05 0)
(0.412838 8.03178e-06 0)
(0.412899 -2.01332e-05 0)
(0.412966 -5.67055e-05 0)
(0.413042 -0.000103187 0)
(0.413127 -0.000160125 0)
(0.413225 -0.000229079 0)
(0.413337 -0.000311747 0)
(0.413467 -0.000409836 0)
(0.413622 -0.000525863 0)
(0.413808 -0.000664369 0)
(0.414032 -0.000832321 0)
(0.414301 -0.00103905 0)
(0.414624 -0.00129701 0)
(0.415006 -0.0016229 0)
(0.415456 -0.0020359 0)
(0.415986 -0.00255565 0)
(0.416616 -0.00320149 0)
(0.417366 -0.00399524 0)
(0.418291 -0.00495554 0)
(0.419386 -0.00613698 0)
(0.420932 -0.0074579 0)
(0.412463 1.01459e-05 0)
(0.412475 2.78516e-05 0)
(0.412502 3.88199e-05 0)
(0.412538 4.20157e-05 0)
(0.412577 4.03044e-05 0)
(0.412618 3.61936e-05 0)
(0.412661 2.9508e-05 0)
(0.412708 1.86592e-05 0)
(0.412758 2.14748e-06 0)
(0.412811 -2.1237e-05 0)
(0.412868 -5.26333e-05 0)
(0.412931 -9.30661e-05 0)
(0.413002 -0.000144169 0)
(0.413082 -0.000207076 0)
(0.413172 -0.000283249 0)
(0.413276 -0.000374189 0)
(0.413397 -0.000481883 0)
(0.413538 -0.000609954 0)
(0.413706 -0.000764594 0)
(0.413907 -0.000954422 0)
(0.414147 -0.00118979 0)
(0.414434 -0.00148285 0)
(0.414775 -0.00184837 0)
(0.415179 -0.00230347 0)
(0.415656 -0.00286766 0)
(0.416222 -0.00356354 0)
(0.416896 -0.00441919 0)
(0.417725 -0.00546321 0)
(0.418702 -0.00675302 0)
(0.420099 -0.00825333 0)
(0.412462 6.47142e-06 0)
(0.412473 1.74578e-05 0)
(0.412496 2.37409e-05 0)
(0.412528 2.43457e-05 0)
(0.412564 2.09099e-05 0)
(0.412603 1.51666e-05 0)
(0.412644 6.94261e-06 0)
(0.412688 -5.3227e-06 0)
(0.412735 -2.33503e-05 0)
(0.412786 -4.85962e-05 0)
(0.41284 -8.24427e-05 0)
(0.412899 -0.000126111 0)
(0.412965 -0.000181011 0)
(0.413038 -0.000248357 0)
(0.413121 -0.000329737 0)
(0.413216 -0.000427352 0)
(0.413325 -0.000544219 0)
(0.413451 -0.000684569 0)
(0.413601 -0.000854235 0)
(0.41378 -0.00106082 0)
(0.413992 -0.00131392 0)
(0.414245 -0.00162602 0)
(0.414543 -0.00201341 0)
(0.414895 -0.00249597 0)
(0.415308 -0.00309663 0)
(0.415798 -0.00384124 0)
(0.41638 -0.0047606 0)
(0.417097 -0.0058886 0)
(0.417939 -0.00728222 0)
(0.419162 -0.00894974 0)
(0.412462 3.34393e-06 0)
(0.412471 8.49547e-06 0)
(0.412492 1.03075e-05 0)
(0.41252 8.06838e-06 0)
(0.412554 2.72405e-06 0)
(0.412591 -4.64258e-06 0)
(0.412629 -1.4332e-05 0)
(0.412671 -2.79253e-05 0)
(0.412715 -4.73561e-05 0)
(0.412763 -7.43536e-05 0)
(0.412813 -0.000110407 0)
(0.412868 -0.000156821 0)
(0.412928 -0.000215009 0)
(0.412995 -0.000286473 0)
(0.41307 -0.000373035 0)
(0.413155 -0.000476998 0)
(0.413251 -0.00060144 0)
(0.413362 -0.000750835 0)
(0.413492 -0.000931631 0)
(0.413644 -0.00115238 0)
(0.413825 -0.00142368 0)
(0.414039 -0.00175844 0)
(0.414291 -0.00217253 0)
(0.414589 -0.00268521 0)
(0.414937 -0.00331957 0)
(0.415349 -0.00410325 0)
(0.415835 -0.0050706 0)
(0.416431 -0.00626268 0)
(0.417124 -0.00773796 0)
(0.418147 -0.00954748 0)
(0.412462 6.0091e-07 0)
(0.41247 5.57283e-07 0)
(0.412488 -1.81364e-06 0)
(0.412515 -6.93532e-06 0)
(0.412546 -1.42737e-05 0)
(0.41258 -2.32498e-05 0)
(0.412617 -3.43527e-05 0)
(0.412656 -4.92237e-05 0)
(0.412697 -6.99373e-05 0)
(0.412741 -9.84142e-05 0)
(0.412788 -0.000136287 0)
(0.412839 -0.000184992 0)
(0.412893 -0.000245977 0)
(0.412953 -0.000320789 0)
(0.41302 -0.000411286 0)
(0.413093 -0.000519956 0)
(0.413177 -0.000650344 0)
(0.413272 -0.000807491 0)
(0.413382 -0.000998173 0)
(0.41351 -0.00123088 0)
(0.413659 -0.00151591 0)
(0.413834 -0.00186598 0)
(0.414038 -0.00229719 0)
(0.414277 -0.00282972 0)
(0.414554 -0.00348828 0)
(0.41488 -0.00430265 0)
(0.41526 -0.00530956 0)
(0.415725 -0.00655486 0)
(0.416256 -0.00809676 0)
(0.417056 -0.010024 0)
(0.412462 -1.81794e-06 0)
(0.412469 -6.53511e-06 0)
(0.412486 -1.28515e-05 0)
(0.41251 -2.08566e-05 0)
(0.412539 -3.02031e-05 0)
(0.412571 -4.07225e-05 0)
(0.412606 -5.31478e-05 0)
(0.412642 -6.91936e-05 0)
(0.412681 -9.10277e-05 0)
(0.412722 -0.000120726 0)
(0.412765 -0.000160057 0)
(0.412811 -0.000210527 0)
(0.41286 -0.000273591 0)
(0.412912 -0.000350867 0)
(0.41297 -0.00044439 0)
(0.413032 -0.000556909 0)
(0.413102 -0.000692191 0)
(0.413179 -0.000855355 0)
(0.413268 -0.00105316 0)
(0.413369 -0.00129419 0)
(0.413486 -0.00158909 0)
(0.413622 -0.00195104 0)
(0.413778 -0.00239647 0)
(0.413958 -0.00294565 0)
(0.414164 -0.00362339 0)
(0.414401 -0.00446011 0)
(0.414672 -0.00549394 0)
(0.414996 -0.00677469 0)
(0.415356 -0.00836057 0)
(0.415912 -0.0103732 0)
(0.412462 -4.06673e-06 0)
(0.412468 -1.29864e-05 0)
(0.412484 -2.30004e-05 0)
(0.412506 -3.38048e-05 0)
(0.412533 -4.51464e-05 0)
(0.412564 -5.71549e-05 0)
(0.412596 -7.07899e-05 0)
(0.41263 -8.78621e-05 0)
(0.412667 -0.000110615 0)
(0.412704 -0.000141236 0)
(0.412743 -0.000181594 0)
(0.412784 -0.000233277 0)
(0.412827 -0.000297799 0)
(0.412872 -0.000376839 0)
(0.41292 -0.000472477 0)
(0.412972 -0.000587483 0)
(0.413027 -0.000725719 0)
(0.413088 -0.000892551 0)
(0.413155 -0.00109507 0)
(0.41323 -0.00134211 0)
(0.413315 -0.00164428 0)
(0.41341 -0.00201449 0)
(0.413516 -0.00246881 0)
(0.413635 -0.00302728 0)
(0.413767 -0.00371495 0)
(0.413913 -0.00456293 0)
(0.414071 -0.00561034 0)
(0.414251 -0.00690951 0)
(0.414433 -0.00851759 0)
(0.41473 -0.010581 0)
(0.412461 -6.11697e-06 0)
(0.412468 -1.90438e-05 0)
(0.412482 -3.25123e-05 0)
(0.412503 -4.59687e-05 0)
(0.412529 -5.92039e-05 0)
(0.412558 -7.25958e-05 0)
(0.412588 -8.73141e-05 0)
(0.41262 -0.000105253 0)
(0.412654 -0.000128702 0)
(0.412688 -0.000159928 0)
(0.412723 -0.000200902 0)
(0.412759 -0.000253276 0)
(0.412796 -0.000318573 0)
(0.412834 -0.000398472 0)
(0.412872 -0.000495104 0)
(0.412912 -0.000611395 0)
(0.412953 -0.000751398 0)
(0.412996 -0.000920552 0)
(0.413042 -0.00112581 0)
(0.413091 -0.00137575 0)
(0.413143 -0.00168086 0)
(0.413198 -0.00205414 0)
(0.413256 -0.00251171 0)
(0.413315 -0.00307351 0)
(0.413373 -0.00376416 0)
(0.413426 -0.0046143 0)
(0.41347 -0.00566265 0)
(0.413502 -0.00696224 0)
(0.413502 -0.00856848 0)
(0.413533 -0.0106438 0)
(0.412461 -8.07738e-06 0)
(0.412468 -2.47925e-05 0)
(0.412481 -4.1525e-05 0)
(0.412502 -5.74913e-05 0)
(0.412526 -7.25055e-05 0)
(0.412553 -8.71569e-05 0)
(0.412582 -0.0001028 0)
(0.412612 -0.000121404 0)
(0.412642 -0.000145294 0)
(0.412674 -0.000176803 0)
(0.412705 -0.000217969 0)
(0.412736 -0.000270472 0)
(0.412767 -0.000335841 0)
(0.412797 -0.000415773 0)
(0.412826 -0.000512431 0)
(0.412854 -0.000628751 0)
(0.412881 -0.000768787 0)
(0.412906 -0.000938007 0)
(0.41293 -0.00114343 0)
(0.412953 -0.00139367 0)
(0.412973 -0.00169906 0)
(0.412989 -0.00207216 0)
(0.412998 -0.00252844 0)
(0.412998 -0.00308708 0)
(0.412983 -0.0037719 0)
(0.412945 -0.00461284 0)
(0.412875 -0.00564787 0)
(0.412761 -0.00692928 0)
(0.412581 -0.00850978 0)
(0.412345 -0.0105574 0)
(0.412461 -9.98677e-06 0)
(0.412467 -3.03779e-05 0)
(0.412481 -5.0235e-05 0)
(0.412501 -6.85419e-05 0)
(0.412524 -8.51521e-05 0)
(0.41255 -0.000100886 0)
(0.412577 -0.000117285 0)
(0.412605 -0.000136365 0)
(0.412633 -0.000160454 0)
(0.412661 -0.000191915 0)
(0.412689 -0.00023284 0)
(0.412715 -0.000284932 0)
(0.41274 -0.000349678 0)
(0.412762 -0.00042871 0)
(0.412782 -0.000524214 0)
(0.412798 -0.000639277 0)
(0.412811 -0.000778105 0)
(0.412819 -0.000946097 0)
(0.412822 -0.0011499 0)
(0.412819 -0.0013976 0)
(0.412807 -0.00169922 0)
(0.412785 -0.00206714 0)
(0.412747 -0.00251654 0)
(0.412689 -0.00306585 0)
(0.412602 -0.00373758 0)
(0.412476 -0.00455995 0)
(0.412295 -0.00556893 0)
(0.412038 -0.00681436 0)
(0.411682 -0.00834544 0)
(0.411188 -0.0103256 0)
(0.412461 -1.19016e-05 0)
(0.412467 -3.59492e-05 0)
(0.412481 -5.88307e-05 0)
(0.412501 -7.92941e-05 0)
(0.412524 -9.72893e-05 0)
(0.412548 -0.000113914 0)
(0.412574 -0.000130879 0)
(0.4126 -0.000150216 0)
(0.412626 -0.00017423 0)
(0.412651 -0.000205299 0)
(0.412675 -0.000245533 0)
(0.412697 -0.000296628 0)
(0.412715 -0.000360049 0)
(0.412731 -0.000437409 0)
(0.412741 -0.000530855 0)
(0.412746 -0.000643411 0)
(0.412744 -0.000779238 0)
(0.412735 -0.000943729 0)
(0.412717 -0.00114351 0)
(0.41269 -0.00138649 0)
(0.412648 -0.00168218 0)
(0.41259 -0.00204208 0)
(0.412507 -0.00248022 0)
(0.412394 -0.00301366 0)
(0.412238 -0.00366346 0)
(0.412024 -0.0044562 0)
(0.411735 -0.00542569 0)
(0.411341 -0.00661816 0)
(0.41082 -0.00807832 0)
(0.410085 -0.00995478 0)
(0.412461 -1.38905e-05 0)
(0.412468 -4.16753e-05 0)
(0.412482 -6.75263e-05 0)
(0.412502 -8.99306e-05 0)
(0.412525 -0.000109045 0)
(0.412548 -0.000126334 0)
(0.412572 -0.000143666 0)
(0.412597 -0.000163032 0)
(0.412621 -0.000186688 0)
(0.412643 -0.000217021 0)
(0.412663 -0.000256155 0)
(0.412681 -0.000305731 0)
(0.412694 -0.00036709 0)
(0.412702 -0.00044176 0)
(0.412703 -0.000531981 0)
(0.412697 -0.000641001 0)
(0.412682 -0.000773035 0)
(0.412656 -0.000933109 0)
(0.412619 -0.00112713 0)
(0.412568 -0.00136233 0)
(0.412497 -0.00164784 0)
(0.412404 -0.00199493 0)
(0.412278 -0.00241694 0)
(0.412112 -0.00292937 0)
(0.41189 -0.00355102 0)
(0.411594 -0.00430581 0)
(0.411204 -0.00522458 0)
(0.410683 -0.00634888 0)
(0.410008 -0.00771863 0)
(0.409057 -0.00945925 0)
(0.412462 -1.60335e-05 0)
(0.412469 -4.77724e-05 0)
(0.412484 -7.65663e-05 0)
(0.412504 -0.000100642 0)
(0.412527 -0.000120561 0)
(0.41255 -0.000138273 0)
(0.412573 -0.00015576 0)
(0.412596 -0.000174913 0)
(0.412618 -0.000197922 0)
(0.412638 -0.000227157 0)
(0.412655 -0.000264716 0)
(0.412668 -0.000312211 0)
(0.412675 -0.000370946 0)
(0.412676 -0.000442343 0)
(0.412669 -0.000528446 0)
(0.412652 -0.00063235 0)
(0.412623 -0.000758348 0)
(0.412581 -0.000911751 0)
(0.412525 -0.00109854 0)
(0.412451 -0.00132532 0)
(0.412355 -0.00159974 0)
(0.41223 -0.00193121 0)
(0.412066 -0.00233143 0)
(0.41185 -0.00281473 0)
(0.411567 -0.00339874 0)
(0.411194 -0.00410565 0)
(0.410709 -0.00496327 0)
(0.410071 -0.00600739 0)
(0.409258 -0.00727216 0)
(0.408121 -0.00885301 0)
(0.412462 -1.8441e-05 0)
(0.41247 -5.45214e-05 0)
(0.412487 -8.62413e-05 0)
(0.412509 -0.000111627 0)
(0.412532 -0.000131975 0)
(0.412555 -0.00014986 0)
(0.412577 -0.00016728 0)
(0.412599 -0.000185948 0)
(0.412619 -0.000208002 0)
(0.412636 -0.000235816 0)
(0.41265 -0.000271406 0)
(0.412659 -0.00031624 0)
(0.412661 -0.000371516 0)
(0.412655 -0.000438687 0)
(0.41264 -0.000519931 0)
(0.412613 -0.000618359 0)
(0.412572 -0.000737973 0)
(0.412516 -0.000883501 0)
(0.412442 -0.00106037 0)
(0.412347 -0.00127495 0)
(0.412227 -0.00153479 0)
(0.412072 -0.0018486 0)
(0.411872 -0.0022262 0)
(0.411609 -0.00267896 0)
(0.411268 -0.0032214 0)
(0.410823 -0.00387303 0)
(0.410251 -0.00465901 0)
(0.409508 -0.0056102 0)
(0.408575 -0.00675619 0)
(0.407287 -0.00815939 0)
(0.412462 -2.1274e-05 0)
(0.412471 -6.23051e-05 0)
(0.412491 -9.68997e-05 0)
(0.412515 -0.000123082 0)
(0.41254 -0.000143412 0)
(0.412562 -0.000161212 0)
(0.412584 -0.000178353 0)
(0.412604 -0.000196296 0)
(0.412623 -0.000217108 0)
(0.412638 -0.000243127 0)
(0.412649 -0.000276308 0)
(0.412654 -0.000318038 0)
(0.412651 -0.000369339 0)
(0.41264 -0.000431356 0)
(0.412616 -0.000506058 0)
(0.412579 -0.000596771 0)
(0.412526 -0.000708174 0)
(0.412456 -0.000845562 0)
(0.412366 -0.00101375 0)
(0.412252 -0.0012168 0)
(0.412109 -0.00145913 0)
(0.411926 -0.00174727 0)
(0.41169 -0.00209059 0)
(0.411385 -0.00250091 0)
(0.410992 -0.00299258 0)
(0.410486 -0.00358322 0)
(0.409839 -0.00429416 0)
(0.409007 -0.00514934 0)
(0.407971 -0.00617294 0)
(0.406566 -0.00739329 0)
(0.412463 -2.47796e-05 0)
(0.412474 -7.16566e-05 0)
(0.412498 -0.000108944 0)
(0.412525 -0.000135221 0)
(0.412551 -0.000155043 0)
(0.412573 -0.000172447 0)
(0.412594 -0.000188962 0)
(0.412614 -0.000205848 0)
(0.412631 -0.00022522 0)
(0.412644 -0.000249344 0)
(0.412652 -0.000279943 0)
(0.412654 -0.000318212 0)
(0.412647 -0.000365193 0)
(0.41263 -0.00042217 0)
(0.4126 -0.000491006 0)
(0.412554 -0.000574454 0)
(0.412489 -0.000676393 0)
(0.412405 -0.000801785 0)
(0.412299 -0.000956166 0)
(0.412169 -0.00114484 0)
(0.412009 -0.00137241 0)
(0.411805 -0.00164305 0)
(0.411541 -0.00196155 0)
(0.411198 -0.00233463 0)
(0.410754 -0.002773 0)
(0.410185 -0.0032927 0)
(0.409466 -0.00391434 0)
(0.408555 -0.00465905 0)
(0.407433 -0.00554958 0)
(0.405945 -0.00658353 0)
(0.412463 -2.93704e-05 0)
(0.412479 -8.33276e-05 0)
(0.412508 -0.00012274 0)
(0.412539 -0.000148187 0)
(0.412566 -0.000167201 0)
(0.412589 -0.000184073 0)
(0.412609 -0.000199549 0)
(0.412628 -0.000214701 0)
(0.412644 -0.000231753 0)
(0.412656 -0.000252956 0)
(0.412661 -0.000279906 0)
(0.41266 -0.000313607 0)
(0.412649 -0.000354782 0)
(0.412626 -0.000404357 0)
(0.412589 -0.000464252 0)
(0.412535 -0.000538166 0)
(0.412461 -0.000631317 0)
(0.412365 -0.000748726 0)
(0.412244 -0.000893158 0)
(0.412095 -0.00106491 0)
(0.41191 -0.00126447 0)
(0.411679 -0.00149567 0)
(0.411387 -0.00176625 0)
(0.411013 -0.0020859 0)
(0.410532 -0.0024658 0)
(0.409918 -0.00291912 0)
(0.409144 -0.00346104 0)
(0.408171 -0.00410546 0)
(0.40698 -0.00487274 0)
(0.405436 -0.0057346 0)
(0.412465 -3.57886e-05 0)
(0.412486 -9.84931e-05 0)
(0.412522 -0.000138531 0)
(0.412559 -0.000161563 0)
(0.412587 -0.000179462 0)
(0.41261 -0.000196227 0)
(0.412631 -0.000211473 0)
(0.412649 -0.000226053 0)
(0.412665 -0.000242163 0)
(0.412675 -0.000261815 0)
(0.412678 -0.000286303 0)
(0.412674 -0.000316502 0)
(0.41266 -0.00035315 0)
(0.412633 -0.000397038 0)
(0.41259 -0.000449355 0)
(0.412528 -0.000512617 0)
(0.412444 -0.000591567 0)
(0.412336 -0.00069288 0)
(0.412203 -0.000822833 0)
(0.412041 -0.000984409 0)
(0.411843 -0.00117654 0)
(0.411594 -0.00139635 0)
(0.411274 -0.00164241 0)
(0.410862 -0.00191675 0)
(0.410335 -0.00222845 0)
(0.40967 -0.00259397 0)
(0.408843 -0.00303205 0)
(0.407816 -0.0035563 0)
(0.406574 -0.00418981 0)
(0.404995 -0.00488429 0)
(0.412467 -4.53492e-05 0)
(0.412497 -0.000119101 0)
(0.412546 -0.000157593 0)
(0.412587 -0.000175749 0)
(0.412616 -0.000189836 0)
(0.412638 -0.000202971 0)
(0.412659 -0.000214319 0)
(0.412678 -0.00022504 0)
(0.412692 -0.00023724 0)
(0.412701 -0.000252612 0)
(0.412703 -0.000272115 0)
(0.412696 -0.000296307 0)
(0.412679 -0.00032568 0)
(0.412648 -0.000361265 0)
(0.412603 -0.000405076 0)
(0.412538 -0.000460213 0)
(0.412445 -0.000530568 0)
(0.412317 -0.000620647 0)
(0.412152 -0.000733242 0)
(0.411954 -0.000866476 0)
(0.411723 -0.00101638 0)
(0.411449 -0.00118253 0)
(0.411115 -0.00137084 0)
(0.410693 -0.00158978 0)
(0.410152 -0.00184686 0)
(0.409461 -0.00215103 0)
(0.408595 -0.00251171 0)
(0.407524 -0.00293476 0)
(0.406238 -0.00345137 0)
(0.404626 -0.00400208 0)
(0.412471 -5.99583e-05 0)
(0.412517 -0.000145775 0)
(0.412581 -0.000182966 0)
(0.412629 -0.000201902 0)
(0.412659 -0.00021877 0)
(0.412681 -0.000233286 0)
(0.412703 -0.000244714 0)
(0.412721 -0.000255069 0)
(0.412735 -0.000266461 0)
(0.412743 -0.000279984 0)
(0.412743 -0.000296266 0)
(0.412735 -0.000315946 0)
(0.412715 -0.000339593 0)
(0.412681 -0.000367605 0)
(0.412629 -0.000399854 0)
(0.412556 -0.000437433 0)
(0.412457 -0.00048534 0)
(0.412325 -0.000553702 0)
(0.412153 -0.000652851 0)
(0.411934 -0.000785073 0)
(0.411666 -0.00094184 0)
(0.411339 -0.00110981 0)
(0.410939 -0.0012775 0)
(0.410448 -0.00144088 0)
(0.409846 -0.00160964 0)
(0.409117 -0.0018059 0)
(0.408243 -0.00205282 0)
(0.407178 -0.00235347 0)
(0.405907 -0.00274161 0)
(0.40429 -0.00315389 0)
(0.412479 -8.79038e-05 0)
(0.412549 -0.000163061 0)
(0.412631 -0.000177132 0)
(0.412682 -0.000186164 0)
(0.412712 -0.000197787 0)
(0.412736 -0.000207818 0)
(0.412759 -0.000215588 0)
(0.412778 -0.000222913 0)
(0.412791 -0.000230909 0)
(0.412798 -0.000241247 0)
(0.412798 -0.000253675 0)
(0.412789 -0.000268455 0)
(0.412769 -0.000286397 0)
(0.412734 -0.00030838 0)
(0.412682 -0.000334748 0)
(0.412607 -0.000365197 0)
(0.412505 -0.000401933 0)
(0.412363 -0.000451039 0)
(0.41216 -0.000517167 0)
(0.411874 -0.00059934 0)
(0.411496 -0.000693084 0)
(0.41104 -0.000794568 0)
(0.410538 -0.000903223 0)
(0.41001 -0.00102301 0)
(0.409446 -0.00116436 0)
(0.408805 -0.00133356 0)
(0.408036 -0.0015218 0)
(0.407055 -0.00172103 0)
(0.405836 -0.00197385 0)
(0.4041 -0.00214259 0)
(0.41249 -0.000156249 0)
(0.41264 -0.000290719 0)
(0.412756 -0.000275485 0)
(0.412788 -0.000272227 0)
(0.412809 -0.000278307 0)
(0.412832 -0.000283651 0)
(0.412852 -0.000287162 0)
(0.412866 -0.000290616 0)
(0.412871 -0.000294756 0)
(0.412869 -0.000299648 0)
(0.412856 -0.000305999 0)
(0.412829 -0.000313806 0)
(0.412785 -0.000321759 0)
(0.412719 -0.000330513 0)
(0.412627 -0.000341539 0)
(0.412505 -0.000357863 0)
(0.412351 -0.000376098 0)
(0.412165 -0.000394623 0)
(0.411951 -0.000419168 0)
(0.411711 -0.000460558 0)
(0.411434 -0.000531435 0)
(0.411102 -0.00063182 0)
(0.410693 -0.000755871 0)
(0.410184 -0.000885459 0)
(0.40955 -0.000988156 0)
(0.408765 -0.00108276 0)
(0.407804 -0.00117587 0)
(0.406633 -0.00124464 0)
(0.405241 -0.00134276 0)
(0.402773 -0.000933399 0)
(0.41211 -0.000107944 0)
(0.411832 -0.000181767 0)
(0.411406 -0.000193641 0)
(0.410917 -0.000198484 0)
(0.410426 -0.000204666 0)
(0.409938 -0.000209437 0)
(0.409446 -0.000212999 0)
(0.408947 -0.000216152 0)
(0.408442 -0.000219027 0)
(0.407931 -0.000221557 0)
(0.407413 -0.000223438 0)
(0.406887 -0.000224357 0)
(0.406354 -0.000224392 0)
(0.405814 -0.000223275 0)
(0.405267 -0.000219778 0)
(0.40471 -0.000212625 0)
(0.404139 -0.000210072 0)
(0.403543 -0.000229515 0)
(0.402897 -0.000273384 0)
(0.402174 -0.000323391 0)
(0.401348 -0.00037021 0)
(0.400394 -0.000410867 0)
(0.399298 -0.000440115 0)
(0.39806 -0.000451839 0)
(0.3967 -0.000451847 0)
(0.395246 -0.000442587 0)
(0.393709 -0.000431188 0)
(0.392107 -0.000405198 0)
(0.390491 -0.000465133 0)
(0.387428 7.78565e-05 0)
(0.415863 -0.00201346 -1.14476e-18)
(0.42095 -0.0026947 -8.76897e-21)
(0.424654 -0.00323035 1.1746e-18)
(0.426653 -0.00392019 2.35442e-18)
(0.427798 -0.00480488 1.19864e-18)
(0.428596 -0.00585125 -1.18884e-18)
(0.429239 -0.00703678 1.20748e-18)
(0.429811 -0.00836286 0)
(0.430367 -0.0098327 1.21902e-18)
(0.430926 -0.0114461 -7.72655e-21)
(0.431486 -0.0132077 8.54897e-20)
(0.432038 -0.0151322 0)
(0.432578 -0.0172434 -1.42823e-18)
(0.433108 -0.019572 0)
(0.433634 -0.0221563 0)
(0.43416 -0.0250457 -1.56078e-18)
(0.434693 -0.0283041 -1.48855e-18)
(0.435238 -0.032016 -6.14225e-22)
(0.435803 -0.0362941 1.46846e-18)
(0.436394 -0.0412919 2.1729e-19)
(0.43702 -0.0472197 -1.99883e-18)
(0.437692 -0.0543879 2.29578e-19)
(0.438431 -0.0631808 -1.18484e-19)
(0.439219 -0.0744873 1.77556e-18)
(0.440203 -0.0884338 2.41655e-19)
(0.441084 -0.10972 -1.22354e-19)
(0.442986 -0.132179 0)
(0.443415 -0.185995 -1.38575e-18)
(0.450121 -0.220264 -1.44878e-18)
(0.449501 -0.40663 0)
(0.424788 -0.00273398 1.14854e-18)
(0.426476 -0.00317445 -2.70391e-20)
(0.4275 -0.003909 2.3716e-20)
(0.427678 -0.00485375 -1.19214e-18)
(0.427828 -0.00593379 -3.80754e-20)
(0.428145 -0.00711877 1.28268e-18)
(0.428587 -0.00841203 1.19671e-18)
(0.429081 -0.00982266 1.62644e-19)
(0.429594 -0.0113547 -8.33689e-20)
(0.430105 -0.0130146 1.35817e-18)
(0.430599 -0.0148178 1.48898e-18)
(0.431069 -0.0167873 1.34858e-18)
(0.431517 -0.0189501 1.56869e-18)
(0.431949 -0.0213381 1.42353e-18)
(0.432367 -0.0239907 1.56188e-18)
(0.432772 -0.0269586 3.29778e-18)
(0.433164 -0.0303084 1.55453e-18)
(0.433543 -0.0341272 -1.81583e-18)
(0.433906 -0.0385311 1.87491e-18)
(0.434249 -0.0436769 -1.12609e-19)
(0.434564 -0.0497804 1.16914e-19)
(0.434841 -0.0571503 1.94552e-18)
(0.435047 -0.0662038 0)
(0.435153 -0.0777281 -1.25986e-19)
(0.435105 -0.0921925 2.24659e-18)
(0.434653 -0.113348 0)
(0.434244 -0.137231 2.15297e-18)
(0.431378 -0.189172 -1.78306e-18)
(0.431642 -0.226323 -3.86923e-20)
(0.421395 -0.405301 -3.20079e-19)
(0.424467 -0.00321796 -8.95685e-21)
(0.425186 -0.00385376 -9.04557e-21)
(0.425769 -0.00487455 -1.16995e-18)
(0.4262 -0.00602095 -3.79277e-20)
(0.426661 -0.00719213 3.88811e-20)
(0.427219 -0.00840623 -3.95826e-20)
(0.427781 -0.00970107 -1.25365e-18)
(0.428289 -0.0110996 0)
(0.428746 -0.012617 0)
(0.429166 -0.0142695 0)
(0.429557 -0.0160761 -1.42426e-18)
(0.429924 -0.0180579 -7.85379e-20)
(0.430269 -0.0202392 -1.31353e-18)
(0.43059 -0.022651 -1.5452e-18)
(0.430886 -0.0253333 -1.69046e-18)
(0.431153 -0.0283387 -1.63876e-18)
(0.431384 -0.0317349 1.29195e-19)
(0.431573 -0.0356106 1.63486e-18)
(0.431709 -0.0400831 -1.68936e-18)
(0.431776 -0.0453109 -1.17697e-19)
(0.431749 -0.0515119 0)
(0.431591 -0.0589923 -4.15904e-18)
(0.431238 -0.0681907 1.3072e-19)
(0.430596 -0.0798054 -2.19067e-18)
(0.429532 -0.0946207 8.46026e-20)
(0.427609 -0.115388 0)
(0.425048 -0.140692 -4.64999e-18)
(0.41869 -0.18979 4.13241e-18)
(0.412869 -0.231279 -2.24047e-18)
(0.392092 -0.400289 3.22316e-19)
(0.424346 -0.00454829 0)
(0.424935 -0.00535863 -1.20808e-18)
(0.425461 -0.00637406 6.26731e-23)
(0.425897 -0.0074327 1.9371e-20)
(0.426307 -0.00851364 0)
(0.426717 -0.00967284 0)
(0.427105 -0.0109492 -1.32858e-18)
(0.427458 -0.0123527 0)
(0.427789 -0.0138874 8.6776e-20)
(0.428106 -0.0155628 -1.78358e-19)
(0.428404 -0.017394 2.54064e-22)
(0.428678 -0.0194006 -1.40538e-18)
(0.428921 -0.0216082 9.68051e-20)
(0.429127 -0.0240498 1.50744e-18)
(0.429292 -0.0267678 1.02901e-19)
(0.429408 -0.0298159 1.60763e-18)
(0.429466 -0.0332627 -1.7475e-18)
(0.42945 -0.0371978 -1.83733e-18)
(0.429341 -0.0417397 0)
(0.429111 -0.0470476 1.85769e-18)
(0.428715 -0.0533402 1.27349e-19)
(0.428091 -0.0609231 2.22389e-18)
(0.427135 -0.0702367 -1.37777e-19)
(0.425705 -0.0819463 2.25274e-18)
(0.423534 -0.0969549 -2.3307e-18)
(0.420138 -0.117468 0)
(0.415175 -0.14359 2.51692e-18)
(0.405524 -0.190158 -2.32021e-18)
(0.393196 -0.234631 2.29718e-18)
(0.362686 -0.39237 4.55131e-20)
(0.42399 -0.00573819 0)
(0.424412 -0.0065256 1.20431e-18)
(0.424771 -0.00746799 0)
(0.42511 -0.00849453 0)
(0.425445 -0.00959804 0)
(0.425778 -0.0108023 0)
(0.426096 -0.0121203 1.34777e-18)
(0.426391 -0.0135532 4.32823e-20)
(0.426662 -0.0151065 -4.45307e-20)
(0.426904 -0.0167943 0)
(0.427114 -0.0186365 0)
(0.427284 -0.0206562 9.66635e-20)
(0.427411 -0.0228808 -1.62476e-22)
(0.427489 -0.0253443 -1.73954e-18)
(0.427509 -0.0280891 0)
(0.427461 -0.0311691 -1.74766e-18)
(0.427328 -0.0346533 0)
(0.427089 -0.0386315 1.99464e-18)
(0.426713 -0.0432225 -2.45819e-19)
(0.426159 -0.0485851 -1.89834e-18)
(0.425364 -0.0549368 1.08021e-18)
(0.424239 -0.0625803 0)
(0.42264 -0.0719518 0)
(0.42037 -0.0836915 0)
(0.417043 -0.0987502 1.30467e-18)
(0.412112 -0.118964 -1.36765e-18)
(0.404671 -0.145455 0)
(0.391797 -0.189476 -1.43621e-18)
(0.372834 -0.236084 -1.51041e-18)
(0.332866 -0.381595 8.42696e-19)
(0.423431 -0.00681387 5.92866e-19)
(0.42375 -0.00762651 6.25216e-19)
(0.42401 -0.0085812 6.49579e-19)
(0.424289 -0.009627 6.04625e-19)
(0.424573 -0.0107522 7.21942e-19)
(0.424836 -0.0119675 6.34572e-19)
(0.425072 -0.013285 6.94266e-19)
(0.425278 -0.0147143 -7.12899e-19)
(0.425452 -0.0162669 4.55352e-20)
(0.425592 -0.0179592 6.60173e-19)
(0.425693 -0.0198103 7.76646e-19)
(0.425749 -0.0218423 7.51205e-19)
(0.425752 -0.0240818 1.02754e-19)
(0.425693 -0.0265626 -8.55153e-19)
(0.425559 -0.029327 1.09877e-19)
(0.425334 -0.0324292 -2.27807e-19)
(0.424997 -0.0359385 -8.36145e-19)
(0.424517 -0.0399444 -9.93456e-19)
(0.423855 -0.0445648 0)
(0.422954 -0.0499571 -1.34095e-19)
(0.421733 -0.0563356 2.72552e-20)
(0.420076 -0.0639974 1.4664e-19)
(0.417799 -0.0733693 1.1015e-18)
(0.414648 -0.0850685 2.44101e-19)
(0.410125 -0.100043 -2.69276e-20)
(0.403609 -0.119885 1.50806e-18)
(0.393649 -0.146305 -9.54487e-20)
(0.377629 -0.18777 1.50299e-18)
(0.351993 -0.235553 1.67619e-18)
(0.303533 -0.367852 -9.87956e-19)
(0.422733 -0.00784233 -6.09583e-19)
(0.422965 -0.00866916 -6.1358e-19)
(0.423136 -0.00962499 -6.48134e-19)
(0.423342 -0.01067 2.52111e-20)
(0.423553 -0.0117969 -1.32296e-18)
(0.423736 -0.0130151 -6.864e-19)
(0.423884 -0.0143368 -1.50355e-18)
(0.424001 -0.0157722 8.39384e-20)
(0.424083 -0.0173326 -4.67644e-20)
(0.424126 -0.0190325 -1.54056e-18)
(0.424122 -0.0208905 9.25152e-21)
(0.424061 -0.0229287 -7.63522e-19)
(0.423935 -0.0251745 8.0021e-19)
(0.42373 -0.0276622 -1.25494e-20)
(0.423432 -0.0304344 1.13763e-19)
(0.423017 -0.033545 -1.18005e-19)
(0.422461 -0.0370626 9.74558e-19)
(0.421724 -0.0410758 1.01547e-18)
(0.420756 -0.0457004 1.34234e-19)
(0.419488 -0.0510907 8.55372e-19)
(0.417817 -0.057456 -9.4362e-19)