/*--------------------------------*- C++ -*----------------------------------*\
  =========                 |
  \\      /  F ield         | OpenFOAM: The Open Source CFD Toolbox
   \\    /   O peration     | Website:  https://openfoam.org
    \\  /    A nd           | Version:  11
     \\/     M anipulation  |
\*---------------------------------------------------------------------------*/
FoamFile
{
    format      ascii;
    class       surfaceScalarField;
    location    "6.1";
    object      phi;
}
// * * * * * * * * * * * * * * * * * * * * * * * * * * * * * * * * * * * * * //

dimensions      [0 3 -1 0 0 0 0];

internalField   nonuniform List<scalar> 
24840
(
1.53199e-05
1.34727e-08
1.5302e-05
1.78208e-08
1.52858e-05
1.62734e-08
1.52703e-05
1.54958e-08
1.52553e-05
1.49583e-08
1.52412e-05
1.41542e-08
1.52282e-05
1.29586e-08
1.52167e-05
1.14885e-08
1.52069e-05
9.7939e-09
1.51993e-05
7.59072e-09
1.51943e-05
5.015e-09
1.51924e-05
1.95978e-09
1.51942e-05
-1.79794e-09
1.52006e-05
-6.40697e-09
1.52126e-05
-1.2049e-08
1.52317e-05
-1.90478e-08
1.5259e-05
-2.73659e-08
1.5297e-05
-3.79488e-08
1.53482e-05
-5.12495e-08
1.54144e-05
-6.62025e-08
1.5499e-05
-8.4576e-08
1.56074e-05
-1.0841e-07
1.57452e-05
-1.37799e-07
1.5919e-05
-1.73758e-07
1.61367e-05
-2.1775e-07
1.64077e-05
-2.71034e-07
1.67444e-05
-3.36617e-07
1.71552e-05
-4.10847e-07
1.76786e-05
-5.23368e-07
-5.28706e-07
1.82073e-05
1.53394e-05
7.39748e-09
1.53435e-05
1.37654e-08
1.53472e-05
1.2549e-08
1.53511e-05
1.16151e-08
1.53554e-05
1.05881e-08
1.53606e-05
9.0236e-09
1.53668e-05
6.73742e-09
1.53743e-05
3.95692e-09
1.53834e-05
7.22658e-10
1.53944e-05
-3.45392e-09
1.54077e-05
-8.2775e-09
1.54238e-05
-1.40593e-08
1.5443e-05
-2.10317e-08
1.5466e-05
-2.94515e-08
1.54937e-05
-3.96742e-08
1.55265e-05
-5.18775e-08
1.55661e-05
-6.70313e-08
1.56135e-05
-8.52636e-08
1.56693e-05
-1.0707e-07
1.57393e-05
-1.36173e-07
1.58281e-05
-1.73376e-07
1.59376e-05
-2.17913e-07
1.60716e-05
-2.7189e-07
1.6236e-05
-3.38112e-07
1.64378e-05
-4.19525e-07
1.66859e-05
-5.19199e-07
1.69913e-05
-6.41999e-07
1.73668e-05
-7.86285e-07
1.78289e-05
-9.85546e-07
-1.09754e-06
1.83978e-05
1.53362e-05
4.53895e-09
1.53399e-05
1.00327e-08
1.53428e-05
9.66431e-09
1.53462e-05
8.2017e-09
1.53502e-05
6.59371e-09
1.53549e-05
4.3451e-09
1.53606e-05
1.05213e-09
1.53674e-05
-2.90476e-09
1.53759e-05
-7.77911e-09
1.53862e-05
-1.37356e-08
1.53988e-05
-2.08015e-08
1.54139e-05
-2.92479e-08
1.54323e-05
-3.93933e-08
1.54545e-05
-5.16246e-08
1.54812e-05
-6.64484e-08
1.55137e-05
-8.43756e-08
1.55531e-05
-1.06357e-07
1.56011e-05
-1.3325e-07
1.566e-05
-1.66031e-07
1.57313e-05
-2.07492e-07
1.58176e-05
-2.59646e-07
1.59231e-05
-3.23362e-07
1.60524e-05
-4.01186e-07
1.62112e-05
-4.96916e-07
1.64065e-05
-6.149e-07
1.66472e-05
-7.59837e-07
1.69441e-05
-9.38973e-07
1.73101e-05
-1.1522e-06
1.77622e-05
-1.4377e-06
-1.66357e-06
1.83282e-05
1.5335e-05
2.85721e-09
1.53382e-05
6.82993e-09
1.5341e-05
6.83962e-09
1.53441e-05
5.09662e-09
1.53479e-05
2.8245e-09
1.53525e-05
-1.95051e-10
1.53579e-05
-4.38374e-09
1.53646e-05
-9.58953e-09
1.53728e-05
-1.59762e-08
1.53827e-05
-2.36945e-08
1.53948e-05
-3.29156e-08
1.54095e-05
-4.39304e-08
1.54273e-05
-5.71441e-08
1.54487e-05
-7.30672e-08
1.54746e-05
-9.23526e-08
1.5506e-05
-1.15766e-07
1.55441e-05
-1.44399e-07
1.55903e-05
-1.79502e-07
1.56468e-05
-2.22543e-07
1.57155e-05
-2.76148e-07
1.57988e-05
-3.42946e-07
1.59005e-05
-4.25051e-07
1.60251e-05
-5.25795e-07
1.61781e-05
-6.49931e-07
1.63664e-05
-8.03174e-07
1.65984e-05
-9.91908e-07
1.6885e-05
-1.22552e-06
1.72395e-05
-1.50673e-06
1.76767e-05
-1.87487e-06
-2.21693e-06
1.823e-05
1.53344e-05
1.77737e-09
1.53369e-05
4.34667e-09
1.53395e-05
4.25685e-09
1.53424e-05
2.21897e-09
1.53459e-05
-7.31876e-10
1.53503e-05
-4.55769e-09
1.53555e-05
-9.6368e-09
1.5362e-05
-1.60206e-08
1.53698e-05
-2.38312e-08
1.53794e-05
-3.32541e-08
1.5391e-05
-4.45255e-08
1.5405e-05
-5.79884e-08
1.5422e-05
-7.41279e-08
1.54425e-05
-9.35691e-08
1.54673e-05
-1.17108e-07
1.54972e-05
-1.45723e-07
1.55335e-05
-1.80689e-07
1.55776e-05
-2.23567e-07
1.56313e-05
-2.76244e-07
1.56966e-05
-3.41431e-07
1.57759e-05
-4.22219e-07
1.58726e-05
-5.21755e-07
1.5991e-05
-6.44245e-07
1.61364e-05
-7.95362e-07
1.63154e-05
-9.82118e-07
1.65361e-05
-1.2126e-06
1.68087e-05
-1.49818e-06
1.7147e-05
-1.84504e-06
1.75644e-05
-2.29221e-06
-2.74822e-06
1.80957e-05
1.53341e-05
1.02832e-09
1.5336e-05
2.39642e-09
1.53384e-05
1.86422e-09
1.53412e-05
-5.15812e-10
1.53445e-05
-4.0766e-09
1.53486e-05
-8.68198e-09
1.53536e-05
-1.46424e-08
1.53597e-05
-2.21275e-08
1.53672e-05
-3.12807e-08
1.53763e-05
-4.2313e-08
1.53872e-05
-5.55093e-08
1.54005e-05
-7.12721e-08
1.54166e-05
-9.01611e-08
1.54359e-05
-1.12906e-07
1.54592e-05
-1.4044e-07
1.54874e-05
-1.73924e-07
1.55216e-05
-2.14827e-07
1.5563e-05
-2.64972e-07
1.56133e-05
-3.26588e-07
1.56745e-05
-4.02603e-07
1.57488e-05
-4.96541e-07
1.58394e-05
-6.12382e-07
1.59504e-05
-7.55167e-07
1.60865e-05
-9.31478e-07
1.62539e-05
-1.14955e-06
1.64604e-05
-1.41914e-06
1.67158e-05
-1.75353e-06
1.70333e-05
-2.16257e-06
1.74256e-05
-2.68453e-06
-3.25113e-06
1.79285e-05
1.53339e-05
4.61867e-10
1.53355e-05
8.18002e-10
1.53376e-05
-2.81251e-10
1.53402e-05
-3.06723e-09
1.53433e-05
-7.18983e-09
1.53471e-05
-1.25292e-08
1.53518e-05
-1.93383e-08
1.53576e-05
-2.7851e-08
1.53645e-05
-3.82546e-08
1.5373e-05
-5.07851e-08
1.53833e-05
-6.57674e-08
1.53956e-05
-8.3659e-08
1.54106e-05
-1.0509e-07
1.54286e-05
-1.30888e-07
1.54502e-05
-1.6211e-07
1.54764e-05
-2.0008e-07
1.5508e-05
-2.46451e-07
1.55463e-05
-3.03273e-07
1.55928e-05
-3.73067e-07
1.56492e-05
-4.59031e-07
1.57178e-05
-5.6509e-07
1.58013e-05
-6.95897e-07
1.59034e-05
-8.57269e-07
1.60286e-05
-1.05665e-06
1.61824e-05
-1.30343e-06
1.63722e-05
-1.60892e-06
1.66069e-05
-1.98825e-06
1.68993e-05
-2.45495e-06
1.72613e-05
-3.0465e-06
-3.71897e-06
1.77291e-05
1.53338e-05
1.23505e-13
1.53351e-05
-4.8619e-10
1.5337e-05
-2.1803e-09
1.53393e-05
-5.41505e-09
1.53422e-05
-1.00685e-08
1.53458e-05
-1.60888e-08
1.53501e-05
-2.36955e-08
1.53554e-05
-3.3156e-08
1.53619e-05
-4.47023e-08
1.53697e-05
-5.85991e-08
1.53791e-05
-7.52066e-08
1.53905e-05
-9.50315e-08
1.54042e-05
-1.18769e-07
1.54206e-05
-1.47333e-07
1.54404e-05
-1.81895e-07
1.54643e-05
-2.2392e-07
1.5493e-05
-2.75226e-07
1.55278e-05
-3.38065e-07
1.557e-05
-4.15208e-07
1.56211e-05
-5.10123e-07
1.56831e-05
-6.27097e-07
1.57585e-05
-7.71343e-07
1.58506e-05
-9.49362e-07
1.59634e-05
-1.16939e-06
1.61018e-05
-1.44185e-06
1.62723e-05
-1.77948e-06
1.64833e-05
-2.19916e-06
1.67463e-05
-2.718e-06
1.70726e-05
-3.37275e-06
-4.14447e-06
1.74981e-05
1.53337e-05
-3.93527e-10
1.53348e-05
-1.57493e-09
1.53365e-05
-3.85076e-09
1.53386e-05
-7.55126e-09
1.53413e-05
-1.27074e-08
1.53445e-05
-1.93474e-08
1.53485e-05
-2.76831e-08
1.53534e-05
-3.79996e-08
1.53592e-05
-5.0567e-08
1.53663e-05
-6.56808e-08
1.53748e-05
-8.3734e-08
1.53851e-05
-1.05276e-07
1.53974e-05
-1.3106e-07
1.54121e-05
-1.62077e-07
1.54298e-05
-1.99595e-07
1.54511e-05
-2.452e-07
1.54767e-05
-3.00858e-07
1.55076e-05
-3.68991e-07
1.5545e-05
-4.52583e-07
1.55902e-05
-5.55348e-07
1.5645e-05
-6.81889e-07
1.57116e-05
-8.37877e-07
1.57926e-05
-1.03039e-06
1.58916e-05
-1.26836e-06
1.60128e-05
-1.56311e-06
1.6162e-05
-1.92862e-06
1.63462e-05
-2.38335e-06
1.65759e-05
-2.94776e-06
1.68611e-05
-3.65798e-06
-4.51997e-06
1.72366e-05
1.53337e-05
-7.23479e-10
1.53346e-05
-2.50162e-09
1.53361e-05
-5.32033e-09
1.5338e-05
-9.47976e-09
1.53404e-05
-1.51031e-08
1.53433e-05
-2.22925e-08
1.53469e-05
-3.12727e-08
1.53513e-05
-4.23425e-08
1.53565e-05
-5.58006e-08
1.53628e-05
-7.19709e-08
1.53703e-05
-9.12753e-08
1.53794e-05
-1.143e-07
1.53901e-05
-1.41848e-07
1.5403e-05
-1.74976e-07
1.54185e-05
-2.15033e-07
1.5437e-05
-2.63709e-07
1.54592e-05
-3.23089e-07
1.5486e-05
-3.95737e-07
1.55182e-05
-4.84816e-07
1.55571e-05
-5.94242e-07
1.56041e-05
-7.28883e-07
1.5661e-05
-8.94772e-07
1.573e-05
-1.09946e-06
1.58141e-05
-1.35242e-06
1.59167e-05
-1.66572e-06
1.60425e-05
-2.05439e-06
1.61973e-05
-2.5382e-06
1.63901e-05
-3.14059e-06
1.66293e-05
-3.89711e-06
-4.83766e-06
1.6947e-05
1.53336e-05
-9.98329e-10
1.53344e-05
-3.30606e-09
1.53357e-05
-6.61236e-09
1.53374e-05
-1.12e-08
1.53396e-05
-1.72458e-08
1.53422e-05
-2.49114e-08
1.53454e-05
-3.44441e-08
1.53492e-05
-4.61546e-08
1.53537e-05
-6.03626e-08
1.53592e-05
-7.74164e-08
1.53657e-05
-9.77633e-08
1.53734e-05
-1.22021e-07
1.53826e-05
-1.51033e-07
1.53935e-05
-1.85907e-07
1.54065e-05
-2.28061e-07
1.54221e-05
-2.79265e-07
1.54407e-05
-3.41699e-07
1.5463e-05
-4.18041e-07
1.54898e-05
-5.11587e-07
1.55219e-05
-6.26416e-07
1.55607e-05
-7.67597e-07
1.56073e-05
-9.41431e-07
1.56637e-05
-1.1558e-06
1.57319e-05
-1.42062e-06
1.58146e-05
-1.74847e-06
1.59154e-05
-2.15517e-06
1.60387e-05
-2.66149e-06
1.61914e-05
-3.29335e-06
1.63799e-05
-4.08557e-06
-5.09004e-06
1.66323e-05
1.53336e-05
-1.23268e-09
1.53343e-05
-4.00599e-09
1.53354e-05
-7.74317e-09
1.53369e-05
-1.27163e-08
1.53388e-05
-1.91319e-08
1.53411e-05
-2.71963e-08
1.53438e-05
-3.71816e-08
1.53471e-05
-4.94106e-08
1.53509e-05
-6.4219e-08
1.53555e-05
-8.19742e-08
1.53609e-05
-1.03144e-07
1.53672e-05
-1.28372e-07
1.53747e-05
-1.58531e-07
1.53836e-05
-1.94771e-07
1.53941e-05
-2.38558e-07
1.54065e-05
-2.91723e-07
1.54214e-05
-3.56515e-07
1.5439e-05
-4.35693e-07
1.54601e-05
-5.32647e-07
1.54852e-05
-6.51567e-07
1.55153e-05
-7.97658e-07
1.55512e-05
-9.77393e-07
1.55943e-05
-1.19887e-06
1.56459e-05
-1.47225e-06
1.57079e-05
-1.81044e-06
1.57825e-05
-2.22973e-06
1.58725e-05
-2.75151e-06
1.59826e-05
-3.40349e-06
1.61166e-05
-4.21954e-06
-5.27038e-06
1.62969e-05
1.53335e-05
-1.43531e-09
1.53341e-05
-4.61469e-09
1.53351e-05
-8.72814e-09
1.53364e-05
-1.40357e-08
1.53381e-05
-2.07604e-08
1.534e-05
-2.91412e-08
1.53423e-05
-3.94738e-08
1.5345e-05
-5.20927e-08
1.53481e-05
-6.73449e-08
1.53518e-05
-8.56116e-08
1.5356e-05
-1.07377e-07
1.53609e-05
-1.33302e-07
1.53667e-05
-1.64281e-07
1.53734e-05
-2.01491e-07
1.53813e-05
-2.46432e-07
1.53905e-05
-3.00971e-07
1.54014e-05
-3.67404e-07
1.54142e-05
-4.48536e-07
1.54294e-05
-5.4781e-07
1.54473e-05
-6.69476e-07
1.54685e-05
-8.18803e-07
1.54934e-05
-1.00234e-06
1.55228e-05
-1.22828e-06
1.55574e-05
-1.50684e-06
1.5598e-05
-1.85103e-06
1.56456e-05
-2.2773e-06
1.57012e-05
-2.80715e-06
1.5767e-05
-3.4693e-06
1.58437e-05
-4.29622e-06
-5.37333e-06
1.59466e-05
1.53335e-05
-1.61171e-09
1.5334e-05
-5.14415e-09
1.53349e-05
-9.58075e-09
1.5336e-05
-1.51667e-08
1.53374e-05
-2.21334e-08
1.5339e-05
-3.07441e-08
1.53408e-05
-4.13145e-08
1.53429e-05
-5.41895e-08
1.53453e-05
-6.97231e-08
1.5348e-05
-8.83058e-08
1.53511e-05
-1.10432e-07
1.53545e-05
-1.36773e-07
1.53585e-05
-1.68237e-07
1.5363e-05
-2.06013e-07
1.53682e-05
-2.51618e-07
1.53742e-05
-3.06937e-07
1.5381e-05
-3.74281e-07
1.5389e-05
-4.56471e-07
1.53981e-05
-5.56963e-07
1.54087e-05
-6.80012e-07
1.54207e-05
-8.30883e-07
1.54345e-05
-1.01611e-06
1.54501e-05
-1.24383e-06
1.54674e-05
-1.52418e-06
1.54864e-05
-1.87001e-06
1.55066e-05
-2.29754e-06
1.55274e-05
-2.82793e-06
1.55481e-05
-3.48997e-06
1.5566e-05
-4.31415e-06
-5.3955e-06
1.55882e-05
1.53335e-05
-1.76604e-09
1.53339e-05
-5.60522e-09
1.53347e-05
-1.03138e-08
1.53356e-05
-1.61192e-08
1.53368e-05
-2.32562e-08
1.5338e-05
-3.20064e-08
1.53394e-05
-4.27022e-08
1.53409e-05
-5.5696e-08
1.53425e-05
-7.1345e-08
1.53443e-05
-9.00442e-08
1.53461e-05
-1.12293e-07
1.53481e-05
-1.38768e-07
1.53503e-05
-1.70376e-07
1.53526e-05
-2.0831e-07
1.5355e-05
-2.54085e-07
1.53577e-05
-3.09583e-07
1.53605e-05
-3.77104e-07
1.53635e-05
-4.59455e-07
1.53666e-05
-5.60061e-07
1.53697e-05
-6.83131e-07
1.53727e-05
-8.3386e-07
1.53752e-05
-1.01867e-06
1.53769e-05
-1.24553e-06
1.53771e-05
-1.52432e-06
1.53745e-05
-1.86748e-06
1.53677e-05
-2.29066e-06
1.53539e-05
-2.81411e-06
1.53297e-05
-3.46578e-06
1.5289e-05
-4.27344e-06
-5.33602e-06
1.52295e-05
1.53335e-05
-1.90205e-09
1.53339e-05
-6.00844e-09
1.53345e-05
-1.09406e-08
1.53353e-05
-1.69049e-08
1.53362e-05
-2.41368e-08
1.53371e-05
-3.29333e-08
1.5338e-05
-4.36402e-08
1.53389e-05
-5.66137e-08
1.53398e-05
-7.22102e-08
1.53406e-05
-9.0825e-08
1.53413e-05
-1.12958e-07
1.53418e-05
-1.3928e-07
1.53421e-05
-1.70693e-07
1.53422e-05
-2.08377e-07
1.53419e-05
-2.5383e-07
1.53412e-05
-3.08907e-07
1.534e-05
-3.75878e-07
1.5338e-05
-4.57499e-07
1.53351e-05
-5.57128e-07
1.53309e-05
-6.78878e-07
1.53248e-05
-8.27809e-07
1.53163e-05
-1.01015e-06
1.53043e-05
-1.23358e-06
1.52876e-05
-1.50755e-06
1.5264e-05
-1.84389e-06
1.52307e-05
-2.25734e-06
1.51832e-05
-2.7667e-06
1.51156e-05
-3.39813e-06
1.50181e-05
-4.17591e-06
-5.19695e-06
1.4879e-05
1.53335e-05
-2.02356e-09
1.53338e-05
-6.36492e-09
1.53343e-05
-1.14756e-08
1.5335e-05
-1.75373e-08
1.53356e-05
-2.47858e-08
1.53362e-05
-3.35337e-08
1.53367e-05
-4.41367e-08
1.53371e-05
-5.69504e-08
1.53372e-05
-7.23263e-08
1.5337e-05
-9.06563e-08
1.53365e-05
-1.12435e-07
1.53355e-05
-1.38323e-07
1.5334e-05
-1.69204e-07
1.53319e-05
-2.06234e-07
1.53289e-05
-2.50878e-07
1.5325e-05
-3.04947e-07
1.53198e-05
-3.70652e-07
1.53129e-05
-4.5067e-07
1.53041e-05
-5.48256e-07
1.52926e-05
-6.67381e-07
1.52777e-05
-8.12911e-07
1.52583e-05
-9.908e-07
1.52331e-05
-1.20834e-06
1.52e-05
-1.47443e-06
1.51561e-05
-1.80005e-06
1.50975e-05
-2.19874e-06
1.50182e-05
-2.6874e-06
1.49096e-05
-3.28952e-06
1.47588e-05
-4.02516e-06
-4.98345e-06
1.45453e-05
1.53334e-05
-2.13491e-09
1.53338e-05
-6.68745e-09
1.53342e-05
-1.19355e-08
1.53347e-05
-1.8032e-08
1.53352e-05
-2.52167e-08
1.53354e-05
-3.38198e-08
1.53355e-05
-4.42047e-08
1.53353e-05
-5.67202e-08
1.53347e-05
-7.17091e-08
1.53336e-05
-8.95567e-08
1.53319e-05
-1.10747e-07
1.53295e-05
-1.35923e-07
1.53262e-05
-1.65943e-07
1.53219e-05
-2.01924e-07
1.53163e-05
-2.45284e-07
1.53091e-05
-2.97772e-07
1.53e-05
-3.61515e-07
1.52884e-05
-4.39086e-07
1.52738e-05
-5.33601e-07
1.52552e-05
-6.48849e-07
1.52318e-05
-7.89447e-07
1.5202e-05
-9.6101e-07
1.5164e-05
-1.17035e-06
1.51153e-05
-1.4257e-06
1.50522e-05
-1.73704e-06
1.497e-05
-2.11645e-06
1.48611e-05
-2.57857e-06
1.47151e-05
-3.14345e-06
1.45163e-05
-3.82642e-06
-4.70372e-06
1.42366e-05
1.53334e-05
-2.24142e-09
1.53337e-05
-6.9917e-09
1.53341e-05
-1.234e-08
1.53345e-05
-1.84069e-08
1.53348e-05
-2.54447e-08
1.53347e-05
-3.38075e-08
1.53344e-05
-4.3862e-08
1.53336e-05
-5.59432e-08
1.53323e-05
-7.03818e-08
1.53303e-05
-8.75542e-08
1.53275e-05
-1.07929e-07
1.53237e-05
-1.32124e-07
1.53187e-05
-1.60962e-07
1.53123e-05
-1.95514e-07
1.53041e-05
-2.37133e-07
1.52938e-05
-2.87486e-07
1.52809e-05
-3.48601e-07
1.52648e-05
-4.22916e-07
1.52445e-05
-5.13381e-07
1.52193e-05
-6.23564e-07
1.51876e-05
-7.57789e-07
1.51479e-05
-9.21279e-07
1.50978e-05
-1.1203e-06
1.50344e-05
-1.36232e-06
1.49536e-05
-1.65621e-06
1.48496e-05
-2.01243e-06
1.47141e-05
-2.44309e-06
1.4535e-05
-2.96431e-06
1.42949e-05
-3.58632e-06
-4.36856e-06
1.39597e-05
1.53334e-05
-2.35001e-09
1.53337e-05
-7.29785e-09
1.53341e-05
-1.27127e-08
1.53344e-05
-1.86822e-08
1.53344e-05
-2.54877e-08
1.53341e-05
-3.35162e-08
1.53334e-05
-4.31312e-08
1.53321e-05
-5.46452e-08
1.53301e-05
-6.83752e-08
1.53272e-05
-8.46866e-08
1.53233e-05
-1.04027e-07
1.53182e-05
-1.26983e-07
1.53116e-05
-1.54334e-07
1.53032e-05
-1.87091e-07
1.52926e-05
-2.26532e-07
1.52793e-05
-2.74227e-07
1.52628e-05
-3.32079e-07
1.52422e-05
-4.02376e-07
1.52167e-05
-4.87869e-07
1.5185e-05
-5.91876e-07
1.51456e-05
-7.18393e-07
1.50966e-05
-8.72203e-07
1.50352e-05
-1.05898e-06
1.49583e-05
-1.28539e-06
1.48612e-05
-1.5591e-06
1.47377e-05
-1.8889e-06
1.45788e-05
-2.28425e-06
1.43716e-05
-2.75705e-06
1.40977e-05
-3.31248e-06
-3.99067e-06
1.37198e-05
1.53335e-05
-2.47034e-09
1.53338e-05
-7.63312e-09
1.53342e-05
-1.30827e-08
1.53344e-05
-1.88789e-08
1.53342e-05
-2.53619e-08
1.53337e-05
-3.29654e-08
1.53326e-05
-4.20394e-08
1.53308e-05
-5.28606e-08
1.53282e-05
-6.57306e-08
1.53245e-05
-8.10028e-08
1.53195e-05
-9.90996e-08
1.53131e-05
-1.2057e-07
1.53049e-05
-1.46144e-07
1.52946e-05
-1.76764e-07
1.52817e-05
-2.13617e-07
1.52656e-05
-2.5816e-07
1.52457e-05
-3.12158e-07
1.52211e-05
-3.77723e-07
1.51906e-05
-4.57389e-07
1.51529e-05
-5.54196e-07
1.51063e-05
-6.71781e-07
1.50486e-05
-8.14464e-07
1.49769e-05
-9.87301e-07
1.48876e-05
-1.1961e-06
1.47759e-05
-1.44738e-06
1.46352e-05
-1.74823e-06
1.44565e-05
-2.10554e-06
1.42264e-05
-2.52694e-06
1.39269e-05
-3.013e-06
-3.58369e-06
1.35199e-05
1.53335e-05
-2.61714e-09
1.53339e-05
-8.03515e-09
1.53343e-05
-1.34844e-08
1.53344e-05
-1.90119e-08
1.53341e-05
-2.5089e-08
1.53334e-05
-3.2195e-08
1.5332e-05
-4.06209e-08
1.53297e-05
-5.06196e-08
1.53265e-05
-6.24863e-08
1.5322e-05
-7.65546e-08
1.53161e-05
-9.32136e-08
1.53085e-05
-1.1297e-07
1.52989e-05
-1.36498e-07
1.52868e-05
-1.64661e-07
1.52717e-05
-1.98544e-07
1.5253e-05
-2.3948e-07
1.523e-05
-2.89076e-07
1.52015e-05
-3.49255e-07
1.51664e-05
-4.2231e-07
1.51232e-05
-5.10986e-07
1.507e-05
-6.1854e-07
1.50043e-05
-7.4881e-07
1.49232e-05
-9.06222e-07
1.48229e-05
-1.09576e-06
1.46983e-05
-1.32281e-06
1.45429e-05
-1.59288e-06
1.43479e-05
-1.91049e-06
1.41002e-05
-2.27925e-06
1.37831e-05
-2.6959e-06
-3.16111e-06
1.33605e-05
1.53335e-05
-2.81527e-09
1.53341e-05
-8.55697e-09
1.53345e-05
-1.39548e-08
1.53346e-05
-1.91141e-08
1.53342e-05
-2.46984e-08
1.53333e-05
-3.12179e-08
1.53315e-05
-3.89011e-08
1.53289e-05
-4.79636e-08
1.53251e-05
-5.86946e-08
1.53199e-05
-7.14068e-08
1.53132e-05
-8.64484e-08
1.53045e-05
-1.04282e-07
1.52935e-05
-1.25517e-07
1.52798e-05
-1.5093e-07
1.52627e-05
-1.81494e-07
1.52417e-05
-2.18406e-07
1.52157e-05
-2.63103e-07
1.51837e-05
-3.17301e-07
1.51445e-05
-3.83042e-07
1.50962e-05
-4.62753e-07
1.5037e-05
-5.59303e-07
1.49642e-05
-6.76037e-07
1.48748e-05
-8.16762e-07
1.47647e-05
-9.85659e-07
1.4629e-05
-1.18711e-06
1.44613e-05
-1.42522e-06
1.42533e-05
-1.70245e-06
1.39929e-05
-2.01888e-06
1.36655e-05
-2.36851e-06
-2.73519e-06
1.32396e-05
1.53336e-05
-3.10701e-09
1.53343e-05
-9.27543e-09
1.53349e-05
-1.45349e-08
1.5335e-05
-1.91968e-08
1.53345e-05
-2.42151e-08
1.53334e-05
-3.00749e-08
1.53314e-05
-3.69154e-08
1.53284e-05
-4.49312e-08
1.53241e-05
-5.44079e-08
1.53183e-05
-6.56273e-08
1.53107e-05
-7.88877e-08
1.53011e-05
-9.46075e-08
1.52889e-05
-1.13329e-07
1.52737e-05
-1.3573e-07
1.52548e-05
-1.62664e-07
1.52316e-05
-1.9518e-07
1.52031e-05
-2.34536e-07
1.5168e-05
-2.82227e-07
1.5125e-05
-3.40029e-07
1.50723e-05
-4.10046e-07
1.50077e-05
-4.94745e-07
1.49286e-05
-5.96981e-07
1.48318e-05
-7.1996e-07
1.47133e-05
-8.67117e-07
1.45682e-05
-1.04197e-06
1.43904e-05
-1.2475e-06
1.41725e-05
-1.48449e-06
1.39037e-05
-1.75006e-06
1.35721e-05
-2.03695e-06
-2.31601e-06
1.31529e-05
1.53338e-05
-3.56613e-09
1.53348e-05
-1.03011e-08
1.53355e-05
-1.52487e-08
1.53356e-05
-1.92759e-08
1.53351e-05
-2.36781e-08
1.53338e-05
-2.88058e-08
1.53316e-05
-3.47057e-08
1.53282e-05
-4.15742e-08
1.53235e-05
-4.96925e-08
1.53172e-05
-5.92977e-08
1.53089e-05
-7.06293e-08
1.52984e-05
-8.40678e-08
1.52851e-05
-1.0008e-07
1.52687e-05
-1.19237e-07
1.52483e-05
-1.42268e-07
1.52231e-05
-1.70064e-07
1.51923e-05
-2.03691e-07
1.51545e-05
-2.44416e-07
1.51082e-05
-2.93741e-07
1.50516e-05
-3.53434e-07
1.49824e-05
-4.25559e-07
1.48979e-05
-5.12489e-07
1.47948e-05
-6.16849e-07
1.46691e-05
-7.41377e-07
1.4516e-05
-8.88939e-07
1.43302e-05
-1.06171e-06
1.4105e-05
-1.25924e-06
1.38312e-05
-1.47626e-06
1.35004e-05
-1.70615e-06
-1.91123e-06
1.30956e-05
1.53341e-05
-4.33215e-09
1.53356e-05
-1.18027e-08
1.53364e-05
-1.60837e-08
1.53365e-05
-1.93555e-08
1.5336e-05
-2.31132e-08
1.53346e-05
-2.74287e-08
1.53322e-05
-3.2299e-08
1.53285e-05
-3.79382e-08
1.53235e-05
-4.46114e-08
1.53166e-05
-5.24945e-08
1.53078e-05
-6.17687e-08
1.52965e-05
-7.27888e-08
1.52824e-05
-8.59265e-08
1.52648e-05
-1.01644e-07
1.5243e-05
-1.20539e-07
1.52163e-05
-1.43339e-07
1.51835e-05
-1.70913e-07
1.51434e-05
-2.04288e-07
1.50943e-05
-2.44684e-07
1.50344e-05
-2.9353e-07
1.49614e-05
-3.52486e-07
1.48723e-05
-4.23457e-07
1.4764e-05
-5.08505e-07
1.46323e-05
-6.097e-07
1.44729e-05
-7.29519e-07
1.4281e-05
-8.69825e-07
1.40512e-05
-1.02942e-06
1.37758e-05
-1.20086e-06
1.34507e-05
-1.38105e-06
-1.52602e-06
1.30655e-05
1.53347e-05
-5.65776e-09
1.53369e-05
-1.40007e-08
1.53378e-05
-1.70422e-08
1.5338e-05
-1.95208e-08
1.53374e-05
-2.25794e-08
1.5336e-05
-2.59696e-08
1.53334e-05
-2.97283e-08
1.53296e-05
-3.40738e-08
1.53242e-05
-3.92473e-08
1.5317e-05
-4.53142e-08
1.53076e-05
-5.24092e-08
1.52958e-05
-6.09037e-08
1.52809e-05
-7.10338e-08
1.52624e-05
-8.31563e-08
1.52396e-05
-9.77346e-08
1.52116e-05
-1.15324e-07
1.51772e-05
-1.36589e-07
1.51353e-05
-1.62318e-07
1.5084e-05
-1.93443e-07
1.50216e-05
-2.31058e-07
1.49455e-05
-2.7642e-07
1.4853e-05
-3.30992e-07
1.47408e-05
-3.96311e-07
1.4605e-05
-4.73844e-07
1.44415e-05
-5.6604e-07
1.42468e-05
-6.751e-07
1.40166e-05
-7.99205e-07
1.3744e-05
-9.28269e-07
1.34297e-05
-1.06681e-06
-1.16048e-06
1.30642e-05
1.53357e-05
-8.05322e-09
1.53385e-05
-1.67921e-08
1.53395e-05
-1.804e-08
1.53399e-05
-1.98996e-08
1.53394e-05
-2.21179e-08
1.53379e-05
-2.44651e-08
1.53353e-05
-2.70565e-08
1.53312e-05
-3.00305e-08
1.53256e-05
-3.36637e-08
1.53182e-05
-3.78707e-08
1.53085e-05
-4.26858e-08
1.52961e-05
-4.85754e-08
1.52807e-05
-5.55946e-08
1.52616e-05
-6.40111e-08
1.5238e-05
-7.41471e-08
1.5209e-05
-8.63837e-08
1.51736e-05
-1.01183e-07
1.51304e-05
-1.19098e-07
1.50777e-05
-1.40786e-07
1.50137e-05
-1.67023e-07
1.4936e-05
-1.98711e-07
1.48419e-05
-2.36902e-07
1.47283e-05
-2.82676e-07
1.45916e-05
-3.37133e-07
1.44282e-05
-4.02712e-07
1.42349e-05
-4.81773e-07
1.40069e-05
-5.71155e-07
1.37375e-05
-6.58922e-07
1.34291e-05
-7.58375e-07
-7.9465e-07
1.30632e-05
1.53394e-05
-1.41252e-08
1.53422e-05
-1.96323e-08
1.5343e-05
-1.88016e-08
1.53427e-05
-1.96359e-08
1.53415e-05
-2.09077e-08
1.53392e-05
-2.21467e-08
1.53356e-05
-2.34821e-08
1.53306e-05
-2.50138e-08
1.53239e-05
-2.6943e-08
1.53152e-05
-2.91498e-08
1.53041e-05
-3.16344e-08
1.52903e-05
-3.47591e-08
1.52732e-05
-3.84912e-08
1.52522e-05
-4.29909e-08
1.52265e-05
-4.84465e-08
1.51952e-05
-5.50786e-08
1.51572e-05
-6.31577e-08
1.51111e-05
-7.30111e-08
1.50553e-05
-8.50302e-08
1.4988e-05
-9.96792e-08
1.49068e-05
-1.17503e-07
1.4809e-05
-1.39117e-07
1.46915e-05
-1.65184e-07
1.45507e-05
-1.96331e-07
1.43803e-05
-2.32318e-07
1.41709e-05
-2.72347e-07
1.39175e-05
-3.17829e-07
1.36248e-05
-3.66188e-07
1.32844e-05
-4.1798e-07
-3.63902e-07
1.28537e-05
1.53192e-05
1.52996e-05
1.52808e-05
1.52611e-05
1.52402e-05
1.52181e-05
1.51946e-05
1.51696e-05
1.51426e-05
1.51135e-05
1.50819e-05
1.50471e-05
1.50086e-05
1.49656e-05
1.49172e-05
1.48621e-05
1.47989e-05
1.47259e-05
1.46409e-05
1.45412e-05
1.44237e-05
1.42846e-05
1.41194e-05
1.39231e-05
1.36908e-05
1.34184e-05
1.31006e-05
1.27344e-05
1.23164e-05
1.19525e-05
1.79489e-05
-8.37352e-06
8.63193e-06
1.77145e-05
-8.53426e-06
8.76864e-06
1.74471e-05
-8.69567e-06
8.96308e-06
1.71461e-05
-8.84953e-06
9.15054e-06
1.68171e-05
-9.00376e-06
9.33278e-06
1.64658e-05
-9.16282e-06
9.51411e-06
1.60958e-05
-9.32829e-06
9.69832e-06
1.57091e-05
-9.50113e-06
9.88776e-06
1.5307e-05
-9.6822e-06
1.00843e-05
1.48896e-05
-9.87201e-06
1.02894e-05
1.44563e-05
-1.00708e-05
1.05041e-05
1.4006e-05
-1.02787e-05
1.0729e-05
1.35377e-05
-1.04964e-05
1.09647e-05
1.30502e-05
-1.07246e-05
1.1212e-05
1.25426e-05
-1.09646e-05
1.14722e-05
1.20137e-05
-1.12179e-05
1.17468e-05
1.14621e-05
-1.14865e-05
1.2038e-05
1.08863e-05
-1.17726e-05
1.23485e-05
1.0284e-05
-1.20793e-05
1.26815e-05
9.65271e-06
-1.24099e-05
1.30412e-05
8.98889e-06
-1.27689e-05
1.34327e-05
8.28818e-06
-1.31618e-05
1.38625e-05
7.54477e-06
-1.35958e-05
1.43392e-05
6.75112e-06
-1.40795e-05
1.48732e-05
5.89608e-06
-1.46244e-05
1.54795e-05
4.9673e-06
-1.52448e-05
1.61735e-05
3.94866e-06
-1.59589e-05
1.69776e-05
2.76514e-06
-1.68093e-05
1.79928e-05
1.551e-06
-1.76753e-05
1.88895e-05
-1.91828e-05
2.07338e-05
1.81283e-05
-8.10407e-06
1.78237e-05
-8.2296e-06
1.74912e-05
-8.36325e-06
1.7141e-05
-8.49928e-06
1.67776e-05
-8.64032e-06
1.6403e-05
-8.78829e-06
1.6018e-05
-8.94329e-06
1.56221e-05
-9.10516e-06
1.52139e-05
-9.27402e-06
1.4792e-05
-9.45008e-06
1.43548e-05
-9.63363e-06
1.39012e-05
-9.82515e-06
1.34303e-05
-1.00254e-05
1.2941e-05
-1.02353e-05
1.24326e-05
-1.04561e-05
1.19038e-05
-1.06891e-05
1.13533e-05
-1.0936e-05
1.07793e-05
-1.11986e-05
1.01796e-05
-1.14795e-05
9.55139e-06
-1.17817e-05
8.89127e-06
-1.21087e-05
8.19474e-06
-1.24653e-05
7.45601e-06
-1.2857e-05
6.66746e-06
-1.3291e-05
5.81898e-06
-1.37759e-05
4.89743e-06
-1.43232e-05
3.884e-06
-1.49455e-05
2.74329e-06
-1.56686e-05
1.50776e-06
-1.64398e-05
-1.7675e-05
1.80143e-05
-7.7901e-06
1.76852e-05
-7.90052e-06
1.73425e-05
-8.02058e-06
1.69906e-05
-8.14736e-06
1.66301e-05
-8.27987e-06
1.62598e-05
-8.41796e-06
1.58781e-05
-8.56157e-06
1.54837e-05
-8.7108e-06
1.50756e-05
-8.86593e-06
1.4653e-05
-9.02741e-06
1.42151e-05
-9.19572e-06
1.37614e-05
-9.37144e-06
1.32912e-05
-9.55525e-06
1.28038e-05
-9.74794e-06
1.22981e-05
-9.95044e-06
1.17729e-05
-1.01639e-05
1.12265e-05
-1.03896e-05
1.06571e-05
-1.06293e-05
1.00625e-05
-1.08849e-05
9.43977e-06
-1.11589e-05
8.78539e-06
-1.14544e-05
8.09486e-06
-1.17748e-05
7.36236e-06
-1.21245e-05
6.5804e-06
-1.2509e-05
5.73917e-06
-1.29347e-05
4.82567e-06
-1.34097e-05
3.82275e-06
-1.39426e-05
2.70419e-06
-1.455e-05
1.46789e-06
-1.52035e-05
-1.62072e-05
1.7905e-05
-7.46509e-06
1.75704e-05
-7.56586e-06
1.72249e-05
-7.67514e-06
1.68697e-05
-7.79208e-06
1.65043e-05
-7.91457e-06
1.6128e-05
-8.04158e-06
1.57397e-05
-8.17329e-06
1.5339e-05
-8.31016e-06
1.49257e-05
-8.45257e-06
1.44991e-05
-8.60082e-06
1.40587e-05
-8.75531e-06
1.36037e-05
-8.91647e-06
1.31333e-05
-9.08484e-06
1.26464e-05
-9.26106e-06
1.21419e-05
-9.44593e-06
1.16184e-05
-9.64038e-06
1.10744e-05
-9.84556e-06
1.05079e-05
-1.00628e-05
9.91673e-06
-1.02937e-05
9.29796e-06
-1.05402e-05
8.64807e-06
-1.08045e-05
7.96258e-06
-1.10893e-05
7.23584e-06
-1.13978e-05
6.46059e-06
-1.17338e-05
5.6275e-06
-1.21016e-05
4.72443e-06
-1.25066e-05
3.73563e-06
-1.29538e-05
2.63976e-06
-1.34542e-05
1.42091e-06
-1.39846e-05
-1.47863e-05
1.77614e-05
-7.13081e-06
1.74186e-05
-7.22304e-06
1.7066e-05
-7.3226e-06
1.67041e-05
-7.4301e-06
1.63325e-05
-7.54301e-06
1.59508e-05
-7.65984e-06
1.55583e-05
-7.78079e-06
1.51545e-05
-7.90642e-06
1.4739e-05
-8.03703e-06
1.4311e-05
-8.17282e-06
1.38698e-05
-8.31407e-06
1.34145e-05
-8.46118e-06
1.29443e-05
-8.61462e-06
1.24581e-05
-8.77494e-06
1.1955e-05
-8.94277e-06
1.14335e-05
-9.11887e-06
1.0892e-05
-9.30411e-06
1.03287e-05
-9.49951e-06
9.74129e-06
-9.70627e-06
9.12686e-06
-9.92575e-06
8.48194e-06
-1.01596e-05
7.8022e-06
-1.04096e-05
7.08218e-06
-1.06778e-05
6.31501e-06
-1.09666e-05
5.49194e-06
-1.12785e-05
4.60182e-06
-1.16165e-05
3.63033e-06
-1.19823e-05
2.55868e-06
-1.23825e-05
1.36708e-06
-1.27931e-05
-1.34192e-05
1.75867e-05
-6.789e-06
1.72372e-05
-6.87348e-06
1.68789e-05
-6.9643e-06
1.65118e-05
-7.06302e-06
1.61356e-05
-7.16688e-06
1.57499e-05
-7.27408e-06
1.53539e-05
-7.38478e-06
1.49471e-05
-7.49963e-06
1.45289e-05
-7.6189e-06
1.40988e-05
-7.74272e-06
1.36561e-05
-7.87132e-06
1.31999e-05
-8.00503e-06
1.27295e-05
-8.14421e-06
1.22439e-05
-8.2893e-06
1.17418e-05
-8.44075e-06
1.12221e-05
-8.59912e-06
1.0683e-05
-8.76504e-06
1.01227e-05
-8.93922e-06
9.53893e-06
-9.12247e-06
8.92886e-06
-9.31568e-06
8.28914e-06
-9.51985e-06
7.61561e-06
-9.73602e-06
6.90313e-06
-9.96528e-06
6.14527e-06
-1.02088e-05
5.33399e-06
-1.04672e-05
4.45924e-06
-1.07418e-05
3.50808e-06
-1.10311e-05
2.46421e-06
-1.13386e-05
1.30782e-06
-1.16367e-05
-1.21113e-05
1.73806e-05
-6.44046e-06
1.70249e-05
-6.51781e-06
1.66612e-05
-6.60058e-06
1.62892e-05
-6.691e-06
1.59085e-05
-6.78623e-06
1.55187e-05
-6.88427e-06
1.51192e-05
-6.98528e-06
1.47095e-05
-7.08992e-06
1.42891e-05
-7.19845e-06
1.38573e-05
-7.31093e-06
1.34135e-05
-7.42751e-06
1.29569e-05
-7.54844e-06
1.24866e-05
-7.67397e-06
1.20018e-05
-7.80441e-06
1.15011e-05
-7.94008e-06
1.09833e-05
-8.08132e-06
1.04468e-05
-8.22855e-06
9.88979e-06
-8.3822e-06
9.31001e-06
-8.54269e-06
8.70482e-06
-8.7105e-06
8.071e-06
-8.88603e-06
7.40464e-06
-9.06966e-06
6.70095e-06
-9.26159e-06
5.95405e-06
-9.46186e-06
5.15666e-06
-9.66984e-06
4.29982e-06
-9.88493e-06
3.37214e-06
-1.01034e-05
2.35973e-06
-1.03262e-05
1.24461e-06
-1.05215e-05
-1.08667e-05
1.71435e-05
-6.08589e-06
1.67823e-05
-6.15666e-06
1.64137e-05
-6.23197e-06
1.60373e-05
-6.31458e-06
1.56527e-05
-6.40161e-06
1.52594e-05
-6.49098e-06
1.4857e-05
-6.58283e-06
1.44449e-05
-6.67781e-06
1.40226e-05
-6.77614e-06
1.35894e-05
-6.87782e-06
1.31449e-05
-6.98293e-06
1.2688e-05
-7.09162e-06
1.22181e-05
-7.20408e-06
1.17342e-05
-7.32046e-06
1.12351e-05
-7.44096e-06
1.07195e-05
-7.56574e-06
1.01859e-05
-7.69499e-06
9.6326e-06
-7.82886e-06
9.05738e-06
-7.96747e-06
8.45775e-06
-8.11087e-06
7.83071e-06
-8.25899e-06
7.17262e-06
-8.41158e-06
6.47913e-06
-8.56809e-06
5.74491e-06
-8.72765e-06
4.96352e-06
-8.88845e-06
4.12712e-06
-9.04853e-06
3.22589e-06
-9.20221e-06
2.24832e-06
-9.34865e-06
1.17902e-06
-9.45224e-06
-9.68772e-06
1.68767e-05
-5.72594e-06
1.65107e-05
-5.79063e-06
1.61377e-05
-5.85905e-06
1.57574e-05
-5.93428e-06
1.53694e-05
-6.01354e-06
1.49731e-05
-6.09471e-06
1.45681e-05
-6.17789e-06
1.4154e-05
-6.26371e-06
1.37303e-05
-6.35235e-06
1.32962e-05
-6.44377e-06
1.28512e-05
-6.53795e-06
1.23946e-05
-6.63498e-06
1.19254e-05
-6.73495e-06
1.14429e-05
-6.8379e-06
1.09458e-05
-6.94388e-06
1.04329e-05
-7.05289e-06
9.90288e-06
-7.16492e-06
9.35389e-06
-7.27987e-06
8.784e-06
-7.39758e-06
8.19086e-06
-7.51773e-06
7.57169e-06
-7.63982e-06
6.9232e-06
-7.76309e-06
6.24145e-06
-7.88635e-06
5.52176e-06
-8.00796e-06
4.7585e-06
-8.12519e-06
3.94493e-06
-8.23496e-06
3.07283e-06
-8.33011e-06
2.13289e-06
-8.40872e-06
1.11252e-06
-8.43187e-06
-8.5752e-06
1.65823e-05
-5.36127e-06
1.6212e-05
-5.42035e-06
1.58354e-05
-5.48241e-06
1.54518e-05
-5.5507e-06
1.50609e-05
-5.62259e-06
1.46622e-05
-5.696e-06
1.42553e-05
-5.771e-06
1.38397e-05
-5.84816e-06
1.3415e-05
-5.92763e-06
1.29805e-05
-6.00929e-06
1.25357e-05
-6.0931e-06
1.20797e-05
-6.17904e-06
1.16119e-05
-6.26712e-06
1.11313e-05
-6.35728e-06
1.06368e-05
-6.44943e-06
1.01274e-05
-6.54342e-06
9.60151e-06
-6.63907e-06
9.05769e-06
-6.73605e-06
8.49406e-06
-6.83395e-06
7.90846e-06
-6.93213e-06
7.29839e-06
-7.02975e-06
6.66089e-06
-7.12559e-06