/*--------------------------------*- C++ -*----------------------------------*\
  =========                 |
  \\      /  F ield         | OpenFOAM: The Open Source CFD Toolbox
   \\    /   O peration     | Website:  https://openfoam.org
    \\  /    A nd           | Version:  11
     \\/     M anipulation  |
\*---------------------------------------------------------------------------*/
FoamFile
{
    format      ascii;
    class       surfaceScalarField;
    location    "6.1";
    object      phi;
}
// * * * * * * * * * * * * * * * * * * * * * * * * * * * * * * * * * * * * * //

dimensions      [0 3 -1 0 0 0 0];

internalField   nonuniform List<scalar> 
24840
(
1.57973e-05
1.36608e-08
1.57786e-05
1.8697e-08
1.57611e-05
1.74734e-08
1.57437e-05
1.74094e-08
1.5726e-05
1.77484e-08
1.57081e-05
1.78441e-08
1.56903e-05
1.77936e-08
1.56726e-05
1.76997e-08
1.56551e-05
1.75713e-08
1.56377e-05
1.74021e-08
1.56205e-05
1.71905e-08
1.56035e-05
1.69311e-08
1.55869e-05
1.66146e-08
1.55707e-05
1.62227e-08
1.5555e-05
1.5732e-08
1.55399e-05
1.51136e-08
1.55255e-05
1.43351e-08
1.55122e-05
1.33592e-08
1.55e-05
1.2188e-08
1.54892e-05
1.07434e-08
1.54803e-05
8.90849e-09
1.54738e-05
6.56529e-09
1.54701e-05
3.6932e-09
1.54699e-05
1.54736e-10
1.54743e-05
-4.43217e-09
1.54846e-05
-1.02988e-08
1.55029e-05
-1.82433e-08
1.55323e-05
-2.94484e-08
1.55808e-05
-4.84623e-08
-1.23274e-07
1.57041e-05
1.5817e-05
7.64695e-09
1.58206e-05
1.5043e-08
1.58231e-05
1.50221e-08
1.58251e-05
1.54051e-08
1.58269e-05
1.59163e-08
1.58287e-05
1.60726e-08
1.58305e-05
1.5983e-08
1.58324e-05
1.58106e-08
1.58344e-05
1.55626e-08
1.58366e-05
1.5236e-08
1.58389e-05
1.48301e-08
1.58415e-05
1.4333e-08
1.58444e-05
1.37288e-08
1.58477e-05
1.29808e-08
1.58513e-05
1.20454e-08
1.58556e-05
1.08682e-08
1.58605e-05
9.38531e-09
1.58664e-05
7.54411e-09
1.58732e-05
5.32333e-09
1.58814e-05
2.58721e-09
1.58911e-05
-8.24465e-10
1.59029e-05
-5.18729e-09
1.59171e-05
-1.05052e-08
1.59344e-05
-1.71552e-08
1.59555e-05
-2.55198e-08
1.59814e-05
-3.62743e-08
1.60129e-05
-4.97594e-08
1.60527e-05
-6.92246e-08
1.6094e-05
-8.97171e-08
-1.25348e-07
1.6096e-05
1.58136e-05
5.0073e-09
1.5817e-05
1.16927e-08
1.5819e-05
1.30042e-08
1.5821e-05
1.34009e-08
1.58229e-05
1.39924e-08
1.58247e-05
1.42957e-08
1.58265e-05
1.4182e-08
1.58284e-05
1.39101e-08
1.58304e-05
1.3517e-08
1.58326e-05
1.30197e-08
1.58351e-05
1.2418e-08
1.58377e-05
1.16972e-08
1.58406e-05
1.08415e-08
1.58438e-05
9.7975e-09
1.58473e-05
8.49975e-09
1.58513e-05
6.85329e-09
1.58559e-05
4.77115e-09
1.58613e-05
2.15382e-09
1.58677e-05
-1.05679e-09
1.58753e-05
-4.9891e-09
1.58844e-05
-9.91102e-09
1.58952e-05
-1.60536e-08
1.59084e-05
-2.36294e-08
1.59243e-05
-3.30783e-08
1.59437e-05
-4.4928e-08
1.59674e-05
-5.9977e-08
1.59966e-05
-7.90055e-08
1.60308e-05
-1.03392e-07
1.60744e-05
-1.33342e-07
-1.62042e-07
1.61111e-05
1.58125e-05
3.46351e-09
1.58152e-05
8.96117e-09
1.58172e-05
1.10307e-08
1.5819e-05
1.16597e-08
1.58207e-05
1.2216e-08
1.58225e-05
1.25527e-08
1.58242e-05
1.24364e-08
1.58261e-05
1.2068e-08
1.58281e-05
1.15278e-08
1.58302e-05
1.08593e-08
1.58326e-05
1.00657e-08
1.58351e-05
9.12591e-09
1.58379e-05
8.02997e-09
1.5841e-05
6.7029e-09
1.58445e-05
5.03864e-09
1.58484e-05
2.92509e-09
1.58529e-05
2.99846e-10
1.58581e-05
-3.08199e-09
1.58643e-05
-7.21956e-09
1.58716e-05
-1.2329e-08
1.58804e-05
-1.86651e-08
1.58909e-05
-2.65173e-08
1.59035e-05
-3.62346e-08
1.59187e-05
-4.83329e-08
1.59373e-05
-6.34884e-08
1.59599e-05
-8.25951e-08
1.59876e-05
-1.06686e-07
1.60208e-05
-1.36599e-07
1.60623e-05
-1.74874e-07
-2.10268e-07
1.61105e-05
1.58119e-05
2.5097e-09
1.5814e-05
6.92801e-09
1.58158e-05
9.22286e-09
1.58173e-05
1.00747e-08
1.5819e-05
1.05805e-08
1.58207e-05
1.08596e-08
1.58224e-05
1.07288e-08
1.58242e-05
1.02654e-08
1.58261e-05
9.58318e-09
1.58282e-05
8.74696e-09
1.58305e-05
7.76897e-09
1.5833e-05
6.628e-09
1.58358e-05
5.30344e-09
1.58388e-05
3.70595e-09
1.58421e-05
1.68801e-09
1.58459e-05
-8.8421e-10
1.58503e-05
-4.06444e-09
1.58553e-05
-8.12816e-09
1.58613e-05
-1.31418e-08
1.58683e-05
-1.93353e-08
1.58766e-05
-2.69933e-08
1.58865e-05
-3.64647e-08
1.58985e-05
-4.81888e-08
1.59129e-05
-6.27695e-08
1.59304e-05
-8.101e-08
1.59518e-05
-1.03907e-07
1.59778e-05
-1.32735e-07
1.60096e-05
-1.6835e-07
1.60489e-05
-2.1417e-07
-2.60352e-07
1.60989e-05
1.58116e-05
1.87687e-09
1.58131e-05
5.3902e-09
1.58148e-05
7.59069e-09
1.58163e-05
8.57099e-09
1.58178e-05
9.04515e-09
1.58194e-05
9.24462e-09
1.58211e-05
9.05907e-09
1.58229e-05
8.50329e-09
1.58248e-05
7.6874e-09
1.58268e-05
6.69129e-09
1.5829e-05
5.53847e-09
1.58315e-05
4.21036e-09
1.58341e-05
2.65681e-09
1.5837e-05
7.97052e-10
1.58402e-05
-1.5401e-09
1.58439e-05
-4.50525e-09
1.5848e-05
-8.21823e-09
1.58528e-05
-1.29154e-08
1.58584e-05
-1.87497e-08
1.5865e-05
-2.5953e-08
1.58729e-05
-3.48391e-08
1.58822e-05
-4.58077e-08
1.58934e-05
-5.93739e-08
1.59069e-05
-7.62293e-08
1.59231e-05
-9.72897e-08
1.59429e-05
-1.23678e-07
1.59671e-05
-1.56891e-07
1.59967e-05
-1.98033e-07
1.60335e-05
-2.50938e-07
-3.08549e-07
1.60817e-05
1.58114e-05
1.42121e-09
1.58126e-05
4.19389e-09
1.58141e-05
6.15669e-09
1.58155e-05
7.16441e-09
1.58169e-05
7.60942e-09
1.58184e-05
7.71846e-09
1.582e-05
7.44952e-09
1.58217e-05
6.7974e-09
1.58236e-05
5.85374e-09
1.58256e-05
4.70612e-09
1.58277e-05
3.38948e-09
1.583e-05
1.88724e-09
1.58326e-05
1.20206e-10
1.58353e-05
-1.98199e-09
1.58384e-05
-4.61728e-09
1.58419e-05
-7.95138e-09
1.58458e-05
-1.21496e-08
1.58503e-05
-1.74322e-08
1.58556e-05
-2.40064e-08
1.58617e-05
-3.21224e-08
1.5869e-05
-4.21191e-08
1.58777e-05
-5.44395e-08
1.58879e-05
-6.96631e-08
1.59003e-05
-8.85605e-08
1.59151e-05
-1.1215e-07
1.59331e-05
-1.41686e-07
1.59551e-05
-1.78861e-07
1.59822e-05
-2.25145e-07
1.60158e-05
-2.84531e-07
-3.52976e-07
1.60602e-05
1.58113e-05
1.07143e-09
1.58123e-05
3.23589e-09
1.58135e-05
4.90643e-09
1.58148e-05
5.85611e-09
1.58162e-05
6.25342e-09
1.58176e-05
6.26718e-09
1.58192e-05
5.89855e-09
1.58208e-05
5.14432e-09
1.58226e-05
4.07902e-09
1.58245e-05
2.79012e-09
1.58266e-05
1.31881e-09
1.58288e-05
-3.43682e-10
1.58313e-05
-2.29616e-09
1.58339e-05
-4.6238e-09
1.58368e-05
-7.52546e-09
1.584e-05
-1.11923e-08
1.58437e-05
-1.58193e-08
1.58479e-05
-2.16308e-08
1.58528e-05
-2.88636e-08
1.58584e-05
-3.779e-08
1.58651e-05
-4.87703e-08
1.58729e-05
-6.22826e-08
1.58822e-05
-7.89592e-08
1.58933e-05
-9.96384e-08
1.59066e-05
-1.25427e-07
1.59226e-05
-1.57708e-07
1.59421e-05
-1.98344e-07
1.59661e-05
-2.49194e-07
1.59959e-05
-3.14291e-07
-3.92508e-07
1.60354e-05
1.58112e-05
7.90261e-10
1.5812e-05
2.444e-09
1.58131e-05
3.80987e-09
1.58144e-05
4.64192e-09
1.58156e-05
4.96733e-09
1.5817e-05
4.88413e-09
1.58185e-05
4.41012e-09
1.58201e-05
3.55144e-09
1.58218e-05
2.37166e-09
1.58236e-05
9.54649e-10
1.58256e-05
-6.54029e-10
1.58277e-05
-2.46932e-09
1.583e-05
-4.58095e-09
1.58325e-05
-7.10884e-09
1.58352e-05
-1.02463e-08
1.58382e-05
-1.42067e-08
1.58416e-05
-1.9207e-08
1.58455e-05
-2.54816e-08
1.58499e-05
-3.32849e-08
1.5855e-05
-4.29094e-08
1.5861e-05
-5.47334e-08
1.5868e-05
-6.92623e-08
1.58762e-05
-8.71692e-08
1.58859e-05
-1.09347e-07
1.58974e-05
-1.36976e-07
1.59113e-05
-1.71548e-07
1.5928e-05
-2.15072e-07
1.59486e-05
-2.69763e-07
1.59739e-05
-3.39616e-07
-4.26249e-07
1.60076e-05
1.58112e-05
5.55438e-10
1.58119e-05
1.76964e-09
1.58128e-05
2.8366e-09
1.5814e-05
3.51422e-09
1.58152e-05
3.74517e-09
1.58165e-05
3.56293e-09
1.58179e-05
2.98309e-09
1.58195e-05
2.02055e-09
1.58211e-05
7.33659e-10
1.58229e-05
-7.98676e-10
1.58247e-05
-2.53037e-09
1.58268e-05
-4.47782e-09
1.58289e-05
-6.72992e-09
1.58312e-05
-9.42763e-09
1.58337e-05
-1.27677e-08
1.58365e-05
-1.69782e-08
1.58396e-05
-2.22931e-08
1.58431e-05
-2.89578e-08
1.5847e-05
-3.72386e-08
1.58516e-05
-4.74428e-08
1.58568e-05
-5.99624e-08
1.58629e-05
-7.53215e-08
1.58699e-05
-9.42222e-08
1.58782e-05
-1.17597e-07
1.58879e-05
-1.46679e-07
1.58994e-05
-1.83044e-07
1.59131e-05
-2.28809e-07
1.59298e-05
-2.86489e-07
1.59502e-05
-3.59997e-07
-4.53425e-07
1.59774e-05
1.58112e-05
3.51838e-10
1.58118e-05
1.18059e-09
1.58126e-05
1.96002e-09
1.58137e-05
2.46225e-09
1.58149e-05
2.58079e-09
1.58161e-05
2.29695e-09
1.58175e-05
1.61392e-09
1.5819e-05
5.51591e-10
1.58205e-05
-8.33369e-10
1.58222e-05
-2.46662e-09
1.5824e-05
-4.30339e-09
1.58258e-05
-6.36164e-09
1.58279e-05
-8.73274e-09
1.583e-05
-1.15695e-08
1.58323e-05
-1.50762e-08
1.58348e-05
-1.94906e-08
1.58376e-05
-2.50596e-08
1.58407e-05
-3.20375e-08
1.58441e-05
-4.06985e-08
1.5848e-05
-5.13588e-08
1.58525e-05
-6.44191e-08
1.58576e-05
-8.04138e-08
1.58634e-05
-1.00061e-07
1.58701e-05
-1.24316e-07
1.58779e-05
-1.54444e-07
1.58869e-05
-1.92071e-07
1.58975e-05
-2.39376e-07
1.59101e-05
-2.99101e-07
1.59251e-05
-3.75022e-07
-4.73351e-07
1.59451e-05
1.58111e-05
1.68668e-10
1.58117e-05
6.54546e-10
1.58125e-05
1.15769e-09
1.58135e-05
1.47342e-09
1.58146e-05
1.46701e-09
1.58158e-05
1.08004e-09
1.58171e-05
2.98923e-10
1.58185e-05
-8.55842e-10
1.582e-05
-2.32796e-09
1.58216e-05
-4.04663e-09
1.58233e-05
-5.96956e-09
1.5825e-05
-8.11683e-09
1.58269e-05
-1.05828e-08
1.58288e-05
-1.35276e-08
1.58309e-05
-1.7163e-08
1.58332e-05
-2.17332e-08
1.58356e-05
-2.74938e-08
1.58383e-05
-3.47054e-08
1.58412e-05
-4.36461e-08
1.58445e-05
-5.46359e-08
1.58481e-05
-6.80781e-08
1.58522e-05
-8.45091e-08
1.58568e-05
-1.04651e-07
1.5862e-05
-1.29462e-07
1.58677e-05
-1.60214e-07
1.58742e-05
-1.9855e-07
1.58815e-05
-2.46658e-07
1.58898e-05
-3.07412e-07
1.58992e-05
-3.84401e-07
-4.85501e-07
1.59113e-05
1.58111e-05
-4.01604e-13
1.58116e-05
1.73009e-10
1.58124e-05
4.10982e-10
1.58133e-05
5.34835e-10
1.58144e-05
3.95704e-10
1.58155e-05
-9.40046e-11
1.58168e-05
-9.65842e-10
1.58182e-05
-2.20277e-09
1.58196e-05
-3.74923e-09
1.58211e-05
-5.53709e-09
1.58226e-05
-7.52679e-09
1.58243e-05
-9.74065e-09
1.58259e-05
-1.22757e-08
1.58277e-05
-1.5297e-08
1.58296e-05
-1.90214e-08
1.58315e-05
-2.36978e-08
1.58336e-05
-2.9586e-08
1.58359e-05
-3.69498e-08
1.58383e-05
-4.6068e-08
1.58409e-05
-5.72594e-08
1.58438e-05
-7.09237e-08
1.58468e-05
-8.75907e-08
1.58502e-05
-1.07973e-07
1.58537e-05
-1.33016e-07
1.58575e-05
-1.6397e-07
1.58614e-05
-2.02454e-07
1.58653e-05
-2.50611e-07
1.58693e-05
-3.11343e-07
1.58729e-05
-3.87989e-07
-4.89532e-07
1.58769e-05
1.58111e-05
-1.58197e-10
1.58116e-05
-2.79518e-10
1.58123e-05
-2.97086e-10
1.58132e-05
-3.66439e-10
1.58142e-05
-6.40905e-10
1.58154e-05
-1.23052e-09
1.58166e-05
-2.18448e-09
1.58179e-05
-3.49205e-09
1.58192e-05
-5.09858e-09
1.58206e-05
-6.93804e-09
1.58221e-05
-8.97397e-09
1.58236e-05
-1.12312e-08
1.58251e-05
-1.38087e-08
1.58267e-05
-1.68743e-08
1.58283e-05
-2.06477e-08
1.583e-05
-2.53794e-08
1.58317e-05
-3.13306e-08
1.58335e-05
-3.87651e-08
1.58354e-05
-4.79587e-08
1.58374e-05
-5.92243e-08
1.58394e-05
-7.29522e-08
1.58415e-05
-8.96573e-08
1.58435e-05
-1.1003e-07
1.58455e-05
-1.34985e-07
1.58473e-05
-1.65725e-07
1.58486e-05
-2.03806e-07
1.58493e-05
-2.51267e-07
1.58489e-05
-3.10927e-07
1.58467e-05
-3.85808e-07
-4.85363e-07
1.58425e-05
1.58111e-05
-3.07582e-10
1.58116e-05
-7.14945e-10
1.58122e-05
-9.82289e-10
1.58131e-05
-1.24272e-09
1.58141e-05
-1.65067e-09
1.58152e-05
-2.33497e-09
1.58164e-05
-3.36223e-09
1.58176e-05
-4.72808e-09
1.58189e-05
-6.3787e-09
1.58202e-05
-8.25056e-09
1.58216e-05
-1.03111e-08
1.58229e-05
-1.25878e-08
1.58243e-05
-1.51807e-08
1.58257e-05
-1.82582e-08
1.58271e-05
-2.20401e-08
1.58285e-05
-2.67763e-08
1.58299e-05
-3.27264e-08
1.58313e-05
-4.01509e-08
1.58326e-05
-4.93191e-08
1.58339e-05
-6.0534e-08
1.58351e-05
-7.41705e-08
1.58362e-05
-9.07211e-08
1.5837e-05
-1.10843e-07
1.58374e-05
-1.35403e-07
1.58372e-05
-1.65532e-07
1.58361e-05
-2.02684e-07
1.58336e-05
-2.48738e-07
1.5829e-05
-3.06316e-07
1.58212e-05
-3.78057e-07
-4.73203e-07
1.58091e-05
1.58111e-05
-4.53005e-10
1.58115e-05
-1.14344e-09
1.58122e-05
-1.65715e-09
1.58131e-05
-2.10537e-09
1.58141e-05
-2.64264e-09
1.58152e-05
-3.4153e-09
1.58163e-05
-4.50587e-09
1.58175e-05
-5.91561e-09
1.58187e-05
-7.59231e-09
1.58199e-05
-9.47613e-09
1.58211e-05
-1.15391e-08
1.58224e-05
-1.3811e-08
1.58236e-05
-1.63919e-08
1.58248e-05
-1.94488e-08
1.58259e-05
-2.31994e-08
1.5827e-05
-2.78904e-08
1.58281e-05
-3.37766e-08
1.58291e-05
-4.11121e-08
1.58299e-05
-5.01567e-08
1.58306e-05
-6.11995e-08
1.5831e-05
-7.45956e-08
1.58311e-05
-9.08079e-08
1.58307e-05
-1.10451e-07
1.58296e-05
-1.34328e-07
1.58275e-05
-1.63477e-07
1.58241e-05
-1.99215e-07
1.58186e-05
-2.4321e-07
1.581e-05
-2.97785e-07
1.57971e-05
-3.65125e-07
-4.53587e-07
1.57775e-05
1.58111e-05
-5.98738e-10
1.58115e-05
-1.57496e-09
1.58122e-05
-2.33492e-09
1.58131e-05
-2.9669e-09
1.58141e-05
-3.62691e-09
1.58151e-05
-4.4794e-09
1.58162e-05
-5.62143e-09
1.58174e-05
-7.05907e-09
1.58185e-05
-8.74263e-09
1.58197e-05
-1.06173e-08
1.58208e-05
-1.26601e-08
1.58219e-05
-1.49029e-08
1.58229e-05
-1.74446e-08
1.58239e-05
-2.04489e-08
1.58249e-05
-2.41295e-08
1.58257e-05
-2.87267e-08
1.58264e-05
-3.44881e-08
1.5827e-05
-4.16582e-08
1.58273e-05
-5.04845e-08
1.58273e-05
-6.12393e-08
1.5827e-05
-7.42536e-08
1.58261e-05
-8.99553e-08
1.58246e-05
-1.08908e-07
1.58221e-05
-1.31839e-07
1.58183e-05
-1.59676e-07
1.58127e-05
-1.93571e-07
1.58044e-05
-2.34941e-07
1.57923e-05
-2.85716e-07
1.57748e-05
-3.47578e-07
-4.27381e-07
1.57486e-05
1.58111e-05
-7.49099e-10
1.58116e-05
-2.02117e-09
1.58123e-05
-3.0309e-09
1.58131e-05
-3.8409e-09
1.58141e-05
-4.61311e-09
1.58152e-05
-5.53418e-09
1.58163e-05
-6.71467e-09
1.58174e-05
-8.16334e-09
1.58185e-05
-9.83365e-09
1.58195e-05
-1.16776e-08
1.58205e-05
-1.36777e-08
1.58215e-05
-1.58673e-08
1.58224e-05
-1.83429e-08
1.58232e-05
-2.12637e-08
1.58239e-05
-2.48364e-08
1.58245e-05
-2.9293e-08
1.58249e-05
-3.48708e-08
1.5825e-05
-4.18024e-08
1.58249e-05
-5.03207e-08
1.58243e-05
-6.06783e-08
1.58232e-05
-7.31792e-08
1.58215e-05
-8.82121e-08
1.58189e-05
-1.06283e-07
1.5815e-05
-1.28036e-07
1.58096e-05
-1.54274e-07
1.5802e-05
-1.85964e-07
1.57913e-05
-2.24243e-07
1.57762e-05
-2.70585e-07
1.57548e-05
-3.26135e-07
-3.95751e-07
1.57231e-05
1.58111e-05
-9.09324e-10
1.58116e-05
-2.49638e-09
1.58123e-05
-3.76221e-09
1.58132e-05
-4.74086e-09
1.58142e-05
-5.61037e-09
1.58153e-05
-6.58694e-09
1.58164e-05
-7.7921e-09
1.58174e-05
-9.23382e-09
1.58185e-05
-1.08698e-08
1.58195e-05
-1.26612e-08
1.58204e-05
-1.45963e-08
1.58212e-05
-1.6709e-08
1.5822e-05
-1.90925e-08
1.58226e-05
-2.18996e-08
1.58231e-05
-2.53284e-08
1.58234e-05
-2.95997e-08
1.58235e-05
-3.49381e-08
1.58232e-05
-4.15624e-08
1.58226e-05
-4.96885e-08
1.58215e-05
-5.95478e-08
1.58197e-05
-7.14149e-08
1.58171e-05
-8.56364e-08
1.58135e-05
-1.02657e-07
1.58085e-05
-1.23032e-07
1.58016e-05
-1.47432e-07
1.57923e-05
-1.76631e-07
1.57795e-05
-2.11473e-07
1.57619e-05
-2.52939e-07
1.57374e-05
-3.01633e-07
-3.60106e-07
1.57018e-05
1.58111e-05
-1.08624e-09
1.58117e-05
-3.01868e-09
1.58125e-05
-4.54868e-09
1.58134e-05
-5.68071e-09
1.58144e-05
-6.62772e-09
1.58155e-05
-7.64537e-09
1.58165e-05
-8.86054e-09
1.58176e-05
-1.0276e-08
1.58186e-05
-1.1856e-08
1.58195e-05
-1.3573e-08
1.58203e-05
-1.54213e-08
1.5821e-05
-1.74342e-08
1.58216e-05
-1.97004e-08
1.58221e-05
-2.23653e-08
1.58224e-05
-2.5616e-08
1.58224e-05
-2.96596e-08
1.58222e-05
-3.47063e-08
1.58216e-05
-4.09589e-08
1.58205e-05
-4.86151e-08
1.58189e-05
-5.78836e-08
1.58165e-05
-6.90085e-08
1.58131e-05
-8.22929e-08
1.58086e-05
-9.81182e-08
1.58025e-05
-1.1695e-07
1.57944e-05
-1.39328e-07
1.57836e-05
-1.65828e-07
1.57691e-05
-1.97008e-07
1.57496e-05
-2.33359e-07
1.57229e-05
-2.74975e-07
-3.2199e-07
1.56848e-05
1.58112e-05
-1.28933e-09
1.58118e-05
-3.61248e-09
1.58126e-05
-5.41405e-09
1.58136e-05
-6.6742e-09
1.58147e-05
-7.67374e-09
1.58157e-05
-8.71775e-09
1.58168e-05
-9.92712e-09
1.58178e-05
-1.12952e-08
1.58188e-05
-1.27969e-08
1.58196e-05
-1.44183e-08
1.58203e-05
-1.61588e-08
1.5821e-05
-1.80498e-08
1.58214e-05
-2.01752e-08
1.58217e-05
-2.26711e-08
1.58218e-05
-2.57116e-08
1.58217e-05
-2.94884e-08
1.58212e-05
-3.4195e-08
1.58202e-05
-4.00168e-08
1.58187e-05
-4.71322e-08
1.58166e-05
-5.57266e-08
1.58136e-05
-6.60137e-08
1.58095e-05
-7.82524e-08
1.58042e-05
-9.27623e-08
1.57972e-05
-1.09922e-07
1.5788e-05
-1.30142e-07
1.5776e-05
-1.53813e-07
1.57602e-05
-1.8123e-07
1.57392e-05
-2.12425e-07
1.57113e-05
-2.4706e-07
-2.83e-07
1.56723e-05
1.58112e-05
-1.53265e-09
1.58119e-05
-4.31217e-09
1.58129e-05
-6.38651e-09
1.58139e-05
-7.73381e-09
1.5815e-05
-8.75667e-09
1.58161e-05
-9.81314e-09
1.58172e-05
-1.0999e-08
1.58182e-05
-1.22966e-08
1.58191e-05
-1.36976e-08
1.58199e-05
-1.52029e-08
1.58205e-05
-1.6815e-08
1.5821e-05
-1.85633e-08
1.58214e-05
-2.05256e-08
1.58216e-05
-2.28278e-08
1.58215e-05
-2.56287e-08
1.58211e-05
-2.91025e-08
1.58203e-05
-3.34248e-08
1.58191e-05
-3.87622e-08
1.58172e-05
-4.52729e-08
1.58146e-05
-5.31196e-08
1.58111e-05
-6.24859e-08
1.58064e-05
-7.3588e-08
1.58003e-05
-8.66859e-08
1.57925e-05
-1.02076e-07
1.57824e-05
-1.20053e-07
1.57694e-05
-1.40838e-07
1.57527e-05
-1.64499e-07
1.57309e-05
-1.90679e-07
1.57026e-05
-2.18725e-07
-2.4456e-07
1.56642e-05
1.58113e-05
-1.83856e-09
1.58121e-05
-5.16766e-09
1.58132e-05
-7.49804e-09
1.58144e-05
-8.86921e-09
1.58155e-05
-9.88485e-09
1.58166e-05
-1.09407e-08
1.58177e-05
-1.20818e-08
1.58187e-05
-1.32847e-08
1.58196e-05
-1.45644e-08
1.58203e-05
-1.59348e-08
1.58209e-05
-1.73994e-08
1.58213e-05
-1.89852e-08
1.58215e-05
-2.07642e-08
1.58216e-05
-2.28494e-08
1.58213e-05
-2.53833e-08
1.58207e-05
-2.85225e-08
1.58197e-05
-3.24217e-08
1.58182e-05
-3.72267e-08
1.5816e-05
-4.30753e-08
1.5813e-05
-5.01095e-08
1.5809e-05
-5.84847e-08
1.58038e-05
-6.83752e-08
1.57971e-05
-7.99863e-08
1.57885e-05
-9.35421e-08
1.57777e-05
-1.09233e-07
1.5764e-05
-1.27135e-07
1.57467e-05
-1.47138e-07
1.57246e-05
-1.68584e-07
1.56965e-05
-1.90675e-07
-2.07953e-07
1.56599e-05
1.58114e-05
-2.24532e-09
1.58125e-05
-6.25174e-09
1.58137e-05
-8.77979e-09
1.5815e-05
-1.00866e-08
1.58161e-05
-1.10704e-08
1.58173e-05
-1.21107e-08
1.58184e-05
-1.31783e-08
1.58194e-05
-1.42599e-08
1.58202e-05
-1.53987e-08
1.58209e-05
-1.66165e-08
1.58214e-05
-1.79155e-08
1.58218e-05
-1.93214e-08
1.58219e-05
-2.08994e-08
1.58218e-05
-2.27487e-08
1.58214e-05
-2.49929e-08
1.58206e-05
-2.77677e-08
1.58194e-05
-3.12077e-08
1.58176e-05
-3.54383e-08
1.58151e-05
-4.05764e-08
1.58118e-05
-4.6744e-08
1.58074e-05
-5.40704e-08
1.58017e-05
-6.26898e-08
1.57944e-05
-7.27596e-08
1.57853e-05
-8.44431e-08
1.5774e-05
-9.78427e-08
1.57597e-05
-1.12911e-07
1.5742e-05
-1.29423e-07
1.57199e-05
-1.46499e-07
1.56927e-05
-1.63426e-07
-1.73985e-07
1.56587e-05
1.58115e-05
-2.82492e-09
1.5813e-05
-7.66915e-09
1.58144e-05
-1.02474e-08
1.58157e-05
-1.1387e-08
1.5817e-05
-1.23333e-08
1.58182e-05
-1.33393e-08
1.58193e-05
-1.42985e-08
1.58203e-05
-1.52339e-08
1.58211e-05
-1.62137e-08
1.58218e-05
-1.72607e-08
1.58222e-05
-1.83759e-08
1.58225e-05
-1.95849e-08
1.58225e-05
-2.09453e-08
1.58223e-05
-2.25408e-08
1.58218e-05
-2.44749e-08
1.58209e-05
-2.68606e-08
1.58195e-05
-2.98115e-08
1.58175e-05
-3.34318e-08
1.58148e-05
-3.78169e-08
1.58111e-05
-4.30719e-08
1.58063e-05
-4.93032e-08
1.58002e-05
-5.66045e-08
1.57926e-05
-6.50937e-08
1.5783e-05
-7.48893e-08
1.57712e-05
-8.60219e-08
1.57566e-05
-9.8343e-08
1.57388e-05
-1.1157e-07
1.57169e-05
-1.24649e-07
1.56908e-05
-1.37269e-07
-1.43026e-07
1.56598e-05
1.58119e-05
-3.72114e-09
1.58138e-05
-9.57488e-09
1.58154e-05
-1.18809e-08
1.58168e-05
-1.2762e-08
1.58181e-05
-1.36787e-08
1.58194e-05
-1.46144e-08
1.58205e-05
-1.54292e-08
1.58215e-05
-1.6201e-08
1.58223e-05
-1.70092e-08
1.58229e-05
-1.78694e-08
1.58233e-05
-1.87856e-08
1.58235e-05
-1.97859e-08
1.58235e-05
-2.09165e-08
1.58232e-05
-2.22442e-08
1.58226e-05
-2.38511e-08
1.58215e-05
-2.58261e-08
1.582e-05
-2.82626e-08
1.58178e-05
-3.12419e-08
1.58148e-05
-3.48383e-08
1.58109e-05
-3.91435e-08
1.58058e-05
-4.42447e-08
1.57994e-05
-5.01943e-08
1.57914e-05
-5.7081e-08
1.57815e-05
-6.49923e-08
1.57694e-05
-7.39014e-08
1.57546e-05
-8.35808e-08
1.57368e-05
-9.37415e-08
1.57153e-05
-1.03142e-07
1.56903e-05
-1.12303e-07
-1.14309e-07
1.56616e-05
1.58124e-05
-5.2043e-09
1.5815e-05
-1.21711e-08
1.58168e-05
-1.36675e-08
1.58183e-05
-1.42789e-08
1.58198e-05
-1.5149e-08
1.58211e-05
-1.59395e-08
1.58223e-05
-1.65723e-08
1.58233e-05
-1.71673e-08
1.5824e-05
-1.77904e-08
1.58246e-05
-1.84476e-08
1.5825e-05
-1.91489e-08
1.58251e-05
-1.9928e-08
1.5825e-05
-2.08179e-08
1.58246e-05
-2.18676e-08
1.58239e-05
-2.31359e-08
1.58228e-05
-2.46855e-08
1.58211e-05
-2.65917e-08
1.58188e-05
-2.89053e-08
1.58156e-05
-3.16834e-08
1.58115e-05
-3.5013e-08
1.58062e-05
-3.8959e-08
1.57995e-05
-4.35201e-08
1.57912e-05
-4.87892e-08
1.57811e-05
-5.48466e-08
1.57688e-05
-6.16017e-08
1.5754e-05
-6.87781e-08
1.57363e-05
-7.60928e-08
1.57152e-05
-8.19693e-08
1.56915e-05
-8.86726e-08
-8.53492e-08
1.56626e-05
1.58135e-05
-7.7782e-09
1.58168e-05
-1.53827e-08
1.58186e-05
-1.54902e-08
1.58203e-05
-1.60454e-08
1.5822e-05
-1.67633e-08
1.58233e-05
-1.73119e-08
1.58245e-05
-1.77427e-08
1.58255e-05
-1.81521e-08
1.58263e-05
-1.85728e-08
1.58268e-05
-1.90118e-08
1.58272e-05
-1.94894e-08
1.58273e-05
-2.0038e-08
1.58271e-05
-2.06782e-08
1.58267e-05
-2.14396e-08
1.58259e-05
-2.23569e-08
1.58247e-05
-2.34616e-08
1.58229e-05
-2.48234e-08
1.58205e-05
-2.64541e-08
1.58172e-05
-2.83829e-08
1.58129e-05
-3.07113e-08
1.58074e-05
-3.35104e-08
1.58006e-05
-3.66719e-08
1.57921e-05
-4.02944e-08
1.57818e-05
-4.45085e-08
1.57693e-05
-4.91669e-08
1.57546e-05
-5.40155e-08
1.57372e-05
-5.87239e-08
1.57164e-05
-6.12166e-08
1.56937e-05
-6.59004e-08
-4.99867e-08
1.56583e-05
1.58169e-05
-1.37434e-08
1.58204e-05
-1.88787e-08
1.58226e-05
-1.771e-08
1.58244e-05
-1.77481e-08
1.58258e-05
-1.81825e-08
1.58269e-05
-1.84774e-08
1.58279e-05
-1.86802e-08
1.58286e-05
-1.88804e-08
1.58291e-05
-1.90949e-08
1.58294e-05
-1.93218e-08
1.58295e-05
-1.95694e-08
1.58293e-05
-1.98533e-08
1.58288e-05
-2.01848e-08
1.5828e-05
-2.05786e-08
1.58267e-05
-2.10533e-08
1.58248e-05
-2.16235e-08
1.58223e-05
-2.23363e-08
1.58191e-05
-2.31875e-08
1.58149e-05
-2.41909e-08
1.58096e-05
-2.5417e-08
1.5803e-05
-2.69081e-08
1.57949e-05
-2.85581e-08
1.5785e-05
-3.04505e-08
1.57732e-05
-3.26891e-08
1.57592e-05
-3.51587e-08
1.57428e-05
-3.76594e-08
1.57241e-05
-4.00144e-08
1.57023e-05
-3.9423e-08
1.56749e-05
-3.84709e-08
1.04023e-08
1.56145e-05
1.57972e-05
1.57783e-05
1.57606e-05
1.57429e-05
1.57247e-05
1.57062e-05
1.56875e-05
1.56687e-05
1.56496e-05
1.56302e-05
1.56107e-05
1.55908e-05
1.55706e-05
1.55501e-05
1.5529e-05
1.55074e-05
1.5485e-05
1.54619e-05
1.54377e-05
1.54123e-05
1.53853e-05
1.53568e-05
1.53263e-05
1.52936e-05
1.52585e-05
1.52208e-05
1.51808e-05
1.51414e-05
1.51029e-05
1.51133e-05
1.54152e-05
-8.9995e-06
9.28841e-06
1.50774e-05
-9.07756e-06
9.41529e-06
1.4684e-05
-9.12874e-06
9.52213e-06
1.42469e-05
-9.15575e-06
9.59292e-06
1.37867e-05
-9.17953e-06
9.63965e-06
1.33155e-05
-9.20561e-06
9.67687e-06
1.28384e-05
-9.23413e-06
9.71124e-06
1.23579e-05
-9.2648e-06
9.74525e-06
1.18753e-05
-9.29771e-06
9.78034e-06
1.13908e-05
-9.33284e-06
9.81732e-06
1.09043e-05
-9.37008e-06
9.85655e-06
1.04157e-05
-9.40946e-06
9.89813e-06
9.92465e-06
-9.45119e-06
9.94222e-06
9.43115e-06
-9.49566e-06
9.98915e-06
8.93511e-06
-9.54341e-06
1.00394e-05
8.43641e-06
-9.59513e-06
1.00938e-05
7.93488e-06
-9.65169e-06
1.01532e-05
7.43026e-06
-9.71426e-06
1.02189e-05
6.92221e-06
-9.78443e-06
1.02925e-05
6.41021e-06
-9.86439e-06
1.03764e-05
5.8936e-06
-9.95723e-06
1.04738e-05
5.37107e-06
-1.00676e-05
1.05901e-05
4.84197e-06
-1.02015e-05
1.07306e-05
4.3006e-06
-1.03722e-05
1.09136e-05
3.75204e-06
-1.05853e-05
1.11339e-05
3.16554e-06
-1.09079e-05
1.14944e-05
2.58069e-06
-1.12678e-05
1.18527e-05
1.8636e-06
-1.21206e-05
1.28376e-05
1.13372e-06
-1.27174e-05
1.34473e-05
-1.60013e-05
1.7135e-05
1.5689e-05
-8.59243e-06
1.5234e-05
-8.62255e-06
1.47572e-05
-8.65198e-06
1.42765e-05
-8.67506e-06
1.37963e-05
-8.69929e-06
1.33164e-05
-8.72576e-06
1.2837e-05
-8.75472e-06
1.23573e-05
-8.78509e-06
1.18764e-05
-8.81683e-06
1.13938e-05
-8.85015e-06
1.09089e-05
-8.88522e-06
1.04217e-05
-8.92227e-06
9.93214e-06
-8.96162e-06
9.44016e-06
-9.00368e-06
8.94568e-06
-9.04893e-06
8.44857e-06
-9.09801e-06
7.9486e-06
-9.15172e-06
7.44549e-06
-9.21115e-06
6.93885e-06
-9.27779e-06
6.42814e-06
-9.35368e-06
5.91258e-06
-9.44167e-06
5.39097e-06
-9.54596e-06
4.86192e-06
-9.67247e-06
4.3214e-06
-9.83166e-06
3.76972e-06
-1.00336e-05
3.18569e-06
-1.03239e-05
2.59067e-06
-1.06728e-05
1.87912e-06
-1.1409e-05
1.14212e-06
-1.19804e-05
-1.48592e-05
1.56546e-05
-8.13594e-06
1.51884e-05
-8.1563e-06
1.47177e-05
-8.18132e-06
1.42478e-05
-8.20512e-06
1.37768e-05
-8.22832e-06
1.33046e-05
-8.25353e-06
1.28303e-05
-8.2804e-06
1.23536e-05
-8.30839e-06
1.18745e-05
-8.33772e-06
1.1393e-05
-8.3687e-06
1.09093e-05
-8.40154e-06
1.04235e-05
-8.43641e-06
9.93539e-06
-8.47355e-06
9.44501e-06
-8.5133e-06
8.95217e-06
-8.5561e-06
8.4567e-06
-8.60253e-06
7.95834e-06
-8.65336e-06
7.45679e-06
-8.70961e-06
6.95162e-06
-8.77263e-06
6.44225e-06
-8.8443e-06
5.92783e-06
-8.92726e-06
5.40714e-06
-9.02527e-06
4.87847e-06
-9.14379e-06
4.33851e-06
-9.2917e-06
3.78489e-06
-9.48002e-06
3.20236e-06
-9.74136e-06
2.59956e-06
-1.007e-05
1.89208e-06
-1.07015e-05
1.14592e-06
-1.12342e-05
-1.37133e-05
1.56488e-05
-7.67423e-06
1.51847e-05
-7.69221e-06
1.47166e-05
-7.7132e-06
1.42462e-05
-7.73474e-06
1.37745e-05
-7.75662e-06
1.33009e-05
-7.77995e-06
1.28254e-05
-7.80489e-06
1.23482e-05
-7.83117e-06
1.18693e-05
-7.85882e-06
1.13887e-05
-7.88805e-06
1.09061e-05
-7.91901e-06
1.04216e-05
-7.95186e-06
9.93487e-06
-7.98683e-06
9.44584e-06
-8.02427e-06
8.95436e-06
-8.06461e-06
8.4602e-06
-8.10838e-06
7.96314e-06
-8.1563e-06
7.46281e-06
-8.20928e-06
6.95877e-06
-8.26858e-06
6.45036e-06
-8.3359e-06
5.93671e-06
-8.4136e-06
5.41652e-06
-8.50508e-06
4.88792e-06
-8.6152e-06
4.34781e-06
-8.75159e-06
3.79249e-06
-8.9247e-06
3.21009e-06
-9.15896e-06
2.60072e-06
-9.4606e-06
1.89635e-06
-9.99718e-06
1.14308e-06
-1.04809e-05
-1.25702e-05
1.56346e-05
-7.20991e-06
1.51686e-05
-7.22624e-06
1.47001e-05
-7.24464e-06
1.42299e-05
-7.26455e-06
1.37587e-05
-7.28543e-06
1.32862e-05
-7.30748e-06
1.28122e-05
-7.33085e-06
1.23365e-05
-7.35547e-06
1.18591e-05
-7.38137e-06
1.13797e-05
-7.40871e-06
1.08984e-05
-7.43768e-06
1.0415e-05
-7.46845e-06
9.92941e-06
-7.50126e-06
9.44154e-06
-7.53641e-06
8.95122e-06
-7.57429e-06
8.45822e-06
-7.61538e-06
7.96226e-06
-7.66034e-06
7.46296e-06
-7.70998e-06
6.95982e-06
-7.76544e-06
6.45217e-06
-7.82825e-06
5.93906e-06
-7.90049e-06
5.41914e-06
-7.98516e-06
4.89044e-06
-8.08649e-06
4.34987e-06
-8.21102e-06
3.79309e-06
-8.36792e-06
3.21004e-06
-8.57591e-06
2.59553e-06
-8.84609e-06
1.89341e-06
-9.29506e-06
1.13405e-06
-9.72159e-06
-1.14361e-05
1.56167e-05
-6.7449e-06
1.51505e-05
-6.76005e-06
1.46827e-05
-6.77682e-06
1.42135e-05
-6.79535e-06
1.37431e-05
-6.81502e-06
1.32713e-05
-6.83566e-06
1.27978e-05
-6.8574e-06
1.23227e-05
-6.88032e-06
1.18458e-05
-6.90449e-06
1.13671e-05
-6.93006e-06
1.08866e-05
-6.95715e-06
1.04041e-05
-6.98594e-06
9.91947e-06
-7.01664e-06
9.43258e-06
-7.04952e-06
8.94323e-06
-7.08494e-06
8.45117e-06
-7.12332e-06
7.95608e-06
-7.16525e-06
7.45757e-06
-7.21147e-06
6.95509e-06
-7.26297e-06
6.44794e-06
-7.3211e-06
5.93512e-06
-7.38767e-06
5.41521e-06
-7.46525e-06
4.88617e-06
-7.55746e-06
4.34487e-06
-7.66972e-06
3.78668e-06
-7.80973e-06
3.2025e-06
-7.99172e-06
2.58395e-06
-8.22754e-06
1.88416e-06
-8.59527e-06
1.12005e-06
-8.95748e-06
-1.03161e-05
1.55952e-05
-6.27981e-06
1.5129e-05
-6.29392e-06
1.46616e-05
-6.30937e-06
1.41928e-05
-6.32659e-06
1.37228e-05
-6.34499e-06
1.32514e-05
-6.36425e-06
1.27784e-05
-6.38448e-06
1.2304e-05
-6.40583e-06
1.18278e-05
-6.42838e-06
1.135e-05
-6.45221e-06
1.08703e-05
-6.47746e-06
1.03886e-05
-6.50427e-06
9.90485e-06
-6.53285e-06
9.41878e-06
-6.56345e-06
8.9302e-06
-6.59636e-06
8.43887e-06
-6.63199e-06
7.94445e-06
-6.67082e-06
7.4465e-06
-6.71352e-06
6.94447e-06
-6.76094e-06
6.4376e-06
-6.81422e-06
5.92484e-06
-6.87491e-06
5.40474e-06
-6.94514e-06
4.87519e-06
-7.02791e-06
4.33301e-06
-7.12754e-06
3.77346e-06
-7.25018e-06
3.18795e-06
-7.40621e-06
2.56637e-06
-7.60596e-06
1.86903e-06
-7.89793e-06
1.10176e-06
-8.19021e-06
-9.21431e-06
1.55704e-05
-5.81475e-06
1.51044e-05
-5.82792e-06
1.46372e-05
-5.84222e-06
1.41689e-05
-5.85822e-06
1.36992e-05
-5.87537e-06
1.32283e-05
-5.89329e-06
1.27559e-05
-5.91208e-06
1.22819e-05
-5.9319e-06
1.18064e-05
-5.95283e-06
1.13291e-05
-5.97495e-06
1.085e-05
-5.99836e-06
1.0369e-05
-6.02322e-06
9.88582e-06
-6.04969e-06
9.40036e-06
-6.07799e-06
8.91237e-06
-6.10837e-06
8.42158e-06
-6.14119e-06
7.92762e-06
-6.17687e-06
7.43004e-06
-6.21595e-06
6.92825e-06
-6.25915e-06
6.42146e-06
-6.30742e-06
5.90857e-06
-6.36203e-06
5.3881e-06
-6.42467e-06
4.85789e-06
-6.4977e-06
4.31474e-06
-6.58439e-06
3.75388e-06
-6.68932e-06
3.16706e-06
-6.81939e-06
2.54333e-06
-6.98223e-06
1.84871e-06
-7.20331e-06
1.08011e-06
-7.42161e-06
-8.1342e-06
1.55427e-05
-5.34976e-06
1.50768e-05
-5.36206e-06
1.46099e-05
-5.37531e-06
1.41418e-05
-5.39014e-06
1.36725e-05
-5.40605e-06
1.32018e-05
-5.42266e-06
1.27298e-05
-5.44005e-06
1.22563e-05
-5.45837e-06
1.17812e-05
-5.47772e-06
1.13044e-05
-5.49815e-06
1.08258e-05
-5.51976e-06
1.03452e-05
-5.54266e-06
9.86255e-06
-5.56701e-06
9.37755e-06
-5.59299e-06
8.88998e-06
-5.62081e-06
8.39955e-06
-5.65076e-06
7.90588e-06
-5.6832e-06
7.40849e-06
-5.71856e-06
6.90676e-06
-5.75742e-06
6.39986e-06
-5.80053e-06
5.8867e-06
-5.84886e-06
5.36572e-06
-5.9037e-06
4.83477e-06
-5.96674e-06
4.29062e-06
-6.04025e-06
3.72854e-06
-6.12724e-06
3.14059e-06
-6.23143e-06
2.51557e-06
-6.35721e-06
1.82402e-06
-6.51176e-06
1.05611e-06
-6.6537e-06
-7.07809e-06
1.55124e-05
-4.88479e-06
1.50466e-05
-4.89627e-06
1.45799e-05
-4.90855e-06
1.4112e-05
-4.92226e-06
1.36429e-05
-4.93694e-06
1.31725e-05
-4.95227e-06
1.27007e-05
-4.9683e-06
1.22275e-05
-4.98516e-06
1.17528e-05
-5.00295e-06
1.12763e-05
-5.02171e-06
1.07981e-05
-5.04151e-06
1.03178e-05
-5.06245e-06
9.8355e-06
-5.08466e-06
9.3508e-06
-5.10829e-06
8.86349e-06
-5.1335e-06
8.37326e-06
-5.16053e-06
7.87972e-06
-5.18965e-06
7.38235e-06
-5.22119e-06
6.88053e-06
-5.2556e-06
6.3734e-06
-5.2934e-06
5.85984e-06
-5.33529e-06
5.33827e-06
-5.38213e-06
4.80653e-06
-5.435e-06
4.26143e-06
-5.49515e-06
3.69829e-06
-5.56409e-06