/*--------------------------------*- C++ -*----------------------------------*\
  =========                 |
  \\      /  F ield         | OpenFOAM: The Open Source CFD Toolbox
   \\    /   O peration     | Website:  https://openfoam.org
    \\  /    A nd           | Version:  11
     \\/     M anipulation  |
\*---------------------------------------------------------------------------*/
FoamFile
{
    format      ascii;
    class       volScalarField;
    location    "2.2";
    object      p;
}
// * * * * * * * * * * * * * * * * * * * * * * * * * * * * * * * * * * * * * //

dimensions      [0 2 -2 0 0 0 0];

internalField   nonuniform List<scalar> 
12600
(
0.964892
0.964755
0.964679
0.964641
0.964595
0.964533
0.964458
0.964368
0.96426
0.964132
0.963977
0.963788
0.96356
0.963283
0.962947
0.962536
0.962034
0.961421
0.960668
0.959741
0.958606
0.957216
0.955508
0.953401
0.950799
0.947579
0.943587
0.93862
0.932461
0.924726
0.964821
0.964748
0.964683
0.964642
0.964596
0.964535
0.964461
0.964372
0.964266
0.964139
0.963985
0.9638
0.963574
0.963301
0.962968
0.962562
0.962067
0.961462
0.96072
0.959804
0.958681
0.957309
0.955622
0.953541
0.95097
0.947787
0.943835
0.938921
0.932796
0.925155
0.96479
0.964753
0.964696
0.964649
0.964602
0.964543
0.964471
0.964384
0.96428
0.964155
0.964004
0.963822
0.963602
0.963334
0.963008
0.962611
0.962127
0.961535
0.960809
0.959915
0.95882
0.957479
0.95583
0.953796
0.951281
0.948166
0.944293
0.939478
0.933435
0.925935
0.964772
0.964747
0.964699
0.964652
0.964606
0.964551
0.964481
0.964397
0.964297
0.964176
0.96403
0.963854
0.96364
0.963381
0.963066
0.962682
0.962214
0.961642
0.96094
0.960079
0.959023
0.957728
0.956135
0.954169
0.951737
0.948723
0.944971
0.940298
0.934406
0.927091
0.964762
0.964744
0.964706
0.964663
0.964618
0.964564
0.964498
0.964417
0.964321
0.964205
0.964065
0.963896
0.963692
0.963444
0.963143
0.962777
0.962329
0.961783
0.961114
0.960293
0.959286
0.958051
0.95653
0.954654
0.952332
0.94945
0.945857
0.941375
0.935696
0.928638
0.964758
0.964745
0.964713
0.964674
0.96463
0.964579
0.964516
0.96444
0.964348
0.964238
0.964106
0.963947
0.963754
0.96352
0.963236
0.96289
0.962469
0.961954
0.961325
0.960553
0.959606
0.958444
0.957013
0.955247
0.953059
0.950342
0.946947
0.942703
0.937298
0.930567
0.964759
0.964748
0.964722
0.964686
0.964645
0.964597
0.964538
0.964467
0.964381
0.964279
0.964156
0.964007
0.963827
0.96361
0.963346
0.963025
0.962634
0.962156
0.961572
0.960857
0.959981
0.958904
0.957578
0.955941
0.953912
0.951388
0.948229
0.94427
0.939201
0.932866
0.964764
0.964755
0.964732
0.964701
0.964663
0.964618
0.964564
0.964498
0.964419
0.964324
0.964211
0.964075
0.96391
0.963711
0.96347
0.963177
0.96282
0.962385
0.961853
0.961202
0.960405
0.959425
0.958218
0.956728
0.95488
0.952578
0.949691
0.946062
0.94139
0.935526
0.964772
0.964764
0.964745
0.964717
0.964682
0.964641
0.964592
0.964532
0.964461
0.964375
0.964273
0.96415
0.964002
0.963824
0.963608
0.963346
0.963027
0.962638
0.962164
0.961585
0.960874
0.960002
0.958927
0.9576
0.955953
0.953899
0.951317
0.948062
0.943846
0.938527
0.964782
0.964776
0.964759
0.964734
0.964704
0.964667
0.964623
0.964569
0.964506
0.96443
0.96434
0.964232
0.964102
0.963946
0.963757
0.963529
0.963251
0.962914
0.962502
0.961999
0.961383
0.960627
0.959697
0.958546
0.957118
0.955336
0.953089
0.950249
0.946545
0.941846
0.964795
0.96479
0.964775
0.964754
0.964727
0.964694
0.964656
0.964609
0.964554
0.964489
0.964412
0.964319
0.964209
0.964077
0.963917
0.963724
0.963491
0.963208
0.962863
0.962441
0.961926
0.961295
0.960517
0.959557
0.958363
0.956871
0.954987
0.952597
0.949458
0.945448
0.96481
0.964805
0.964793
0.964775
0.964752
0.964724
0.964691
0.964652
0.964606
0.964551
0.964487
0.964412
0.964322
0.964214
0.964085
0.96393
0.963743
0.963517
0.963242
0.962907
0.962498
0.961996
0.96138
0.960618
0.959672
0.958487
0.956987
0.955076
0.952548
0.94929
0.964827
0.964823
0.964813
0.964797
0.964778
0.964754
0.964727
0.964696
0.964659
0.964616
0.964566
0.964508
0.964439
0.964357
0.96426
0.964145
0.964006
0.963838
0.963636
0.96339
0.963091
0.962724
0.962275
0.961719
0.961029
0.960163
0.959063
0.957655
0.955772
0.953318
0.964844
0.964841
0.964833
0.96482
0.964805
0.964786
0.964765
0.964741
0.964714
0.964682
0.964647
0.964606
0.964559
0.964504
0.96444
0.964365
0.964275
0.964168
0.96404
0.963885
0.963698
0.96347
0.963191
0.962846
0.962417
0.961878
0.961188
0.960296
0.959084
0.957471
0.964864
0.964861
0.964854
0.964845
0.964832
0.964819
0.964804
0.964787
0.964769
0.96475
0.964729
0.964706
0.964681
0.964654
0.964623
0.964588
0.964548
0.964503
0.96445
0.964387
0.964314
0.964225
0.964118
0.963986
0.96382
0.96361
0.963333
0.962963
0.962431
0.961678
0.964883
0.964881
0.964877
0.964869
0.964861
0.964852
0.964843
0.964834
0.964826
0.964818
0.964812
0.964807
0.964804
0.964804
0.964806
0.964812
0.964823
0.964838
0.964861
0.964891
0.96493
0.964981
0.965045
0.965125
0.965221
0.965336
0.96547
0.965617
0.965759
0.965863
0.964904
0.964903
0.964899
0.964894
0.964889
0.964885
0.964882
0.964881
0.964882
0.964886
0.964894
0.964907
0.964926
0.964953
0.964988
0.965035
0.965095
0.965172
0.965269
0.96539
0.965542
0.96573
0.965962
0.966249
0.966603
0.967036
0.967569
0.968218
0.969013
0.96995
0.964925
0.964924
0.964922
0.964919
0.964917
0.964917
0.96492
0.964926
0.964937
0.964953
0.964975
0.965006
0.965046
0.965099
0.965167
0.965254
0.965363
0.965499
0.965669
0.965879
0.96614
0.966462
0.966859
0.967348
0.967949
0.968689
0.969603
0.97073
0.972142
0.973863
0.964947
0.964946
0.964945
0.964944
0.964945
0.964949
0.964958
0.964971
0.96499
0.965017
0.965054
0.965101
0.965163
0.965242
0.965341
0.965466
0.965622
0.965816
0.966057
0.966354
0.96672
0.967171
0.967725
0.968407
0.969244
0.970274
0.971547
0.973119
0.975098
0.977535
0.964968
0.964968
0.964968
0.964968
0.964972
0.96498
0.964994
0.965014
0.965042
0.96508
0.965129
0.965193
0.965275
0.965379
0.965508
0.96567
0.965872
0.966121
0.966429
0.966808
0.967275
0.967849
0.968552
0.969416
0.970475
0.971775
0.973379
0.975356
0.977841
0.98091
0.96499
0.96499
0.96499
0.964992
0.964998
0.96501
0.965029
0.965055
0.965091
0.965139
0.965201
0.965281
0.965382
0.965508
0.965667
0.965864
0.966108
0.966409
0.966781
0.967238
0.967799
0.968488
0.969331
0.970364
0.971628
0.973177
0.975079
0.977419
0.980342
0.983944
0.965012
0.965012
0.965012
0.965014
0.965022
0.965038
0.965061
0.965094
0.965137
0.965194
0.965268
0.965362
0.965481
0.96563
0.965815
0.966044
0.966328
0.966678
0.967109
0.967639
0.968288
0.969082
0.970055
0.971242
0.972694
0.974465
0.976634
0.979287
0.982579
0.986612
0.965034
0.965033
0.965032
0.965035
0.965045
0.965064
0.965091
0.965129
0.965179
0.965245
0.96533
0.965438
0.965573
0.965741
0.965951
0.96621
0.966531
0.966925
0.967411
0.968006
0.968735
0.969626
0.970715
0.972043
0.973661
0.975631
0.978031
0.980951
0.984541
0.988906
0.965056
0.965055
0.965052
0.965054
0.965066
0.965087
0.965119
0.965161
0.965218
0.965292
0.965386
0.965506
0.965655
0.965842
0.966074
0.96636
0.966713
0.967148
0.967682
0.968336
0.969137
0.970114
0.971307
0.972759
0.974524
0.976666
0.979262
0.982404
0.986229
0.990833
0.965079
0.965076
0.96507
0.965071
0.965084
0.965108
0.965143
0.965189
0.965251
0.965332
0.965435
0.965565
0.965728
0.96593
0.966181
0.966492
0.966874
0.967344
0.96792
0.968626
0.969489
0.970542
0.971825
0.973384
0.975275
0.977563
0.980324
0.983645
0.987648
0.992416
0.965104
0.965097
0.965086
0.965085
0.9651
0.965127
0.965164
0.965214
0.965281
0.965367
0.965478
0.965617
0.96579
0.966006
0.966274
0.966604
0.967011
0.967511
0.968124
0.968873
0.969789
0.970906
0.972265
0.973914
0.975911
0.978319
0.981213
0.984675
0.988812
0.993686
0.965131
0.965117
0.965098
0.965096
0.965113
0.965141
0.96518
0.965233
0.965303
0.965395
0.965511
0.965658
0.965841
0.966068
0.966349
0.966696
0.967123
0.967647
0.968289
0.969074
0.970033
0.971202
0.972622
0.974344
0.976426
0.97893
0.981928
0.985498
0.989736
0.99468
0.965162
0.965137
0.965108
0.965107
0.965125
0.965154
0.965194
0.965249
0.965323
0.965418
0.965539
0.965691
0.965881
0.966116
0.966408
0.966767
0.967209
0.967752
0.968417
0.969229
0.970221
0.971428
0.972896
0.974673
0.976821
0.979397
0.982471
0.986117
0.990436
0.995443
0.965202
0.965142
0.965107
0.965111
0.965131
0.965161
0.965202
0.965258
0.965334
0.965432
0.965556
0.965712
0.965907
0.966148
0.966447
0.966815
0.967268
0.967823
0.968503
0.969334
0.970348
0.971582
0.973081
0.974897
0.977091
0.979718
0.982842
0.986537
0.990905
0.995971
0.965279
0.965152
0.965107
0.965115
0.965137
0.965166
0.965207
0.965265
0.965341
0.965441
0.965567
0.965725
0.965922
0.966167
0.966469
0.966842
0.9673
0.967863
0.968551
0.969393
0.97042
0.971669
0.973186
0.975023
0.977238
0.979889
0.983038
0.986761
0.991129
0.996168
0.917996
0.915295
0.913079
0.911171
0.909161
0.906961
0.904643
0.90226
0.899819
0.897312
0.894729
0.89206
0.889287
0.886384
0.883316
0.88004
0.876502
0.872635
0.868351
0.86354
0.858057
0.851711
0.844246
0.835313
0.82445
0.810899
0.794184
0.770021
0.749846
0.687034
0.919302
0.91698
0.914925
0.913055
0.911109
0.90904
0.906922
0.904788
0.902624
0.900411
0.898135
0.895785
0.893342
0.890783
0.888076
0.885186
0.882065
0.878656
0.874883
0.870651
0.865833
0.860267
0.853729
0.845926
0.836448
0.824678
0.810084
0.789845
0.770343
0.718749
0.919835
0.917961
0.916275
0.914592
0.912839
0.911031
0.909202
0.907355
0.905474
0.903545
0.901562
0.899516
0.897391
0.895169
0.892824
0.890325
0.887633
0.884698
0.881457
0.877828
0.873704
0.868947
0.863369
0.856725
0.848659
0.838688
0.826259
0.809455
0.791792
0.750013
0.92105
0.919593
0.918261
0.916781
0.915211
0.913629
0.912047
0.910451
0.908828
0.907172
0.90548
0.903741
0.901942
0.900066
0.898093
0.895997
0.893745
0.891296
0.888598
0.885583
0.882164
0.878226
0.873612
0.868121
0.861451
0.853231
0.842904
0.829213
0.813875
0.780686
0.922736
0.921582
0.920527
0.919245
0.917873
0.916527
0.915204
0.913872
0.91252
0.911147
0.909752
0.908325
0.906856
0.905332
0.903737
0.902051
0.900249
0.898298
0.896156
0.893768
0.891065
0.887953
0.884307
0.879962
0.874669
0.868147
0.859858
0.849051
0.836219
0.810581
0.924858
0.923981
0.923195
0.922133
0.920978
0.919871
0.918801
0.917729
0.916643
0.915551
0.914451
0.913336
0.9122
0.911032
0.909822
0.908554
0.907208
0.905761
0.904181
0.902425
0.900439
0.89815
0.895458
0.892235
0.888278
0.883376
0.877034
0.868873
0.858544
0.839467
0.92741
0.926795
0.926266
0.925422
0.924482
0.923609
0.92279
0.921976
0.921159
0.920349
0.919547
0.91875
0.91795
0.917142
0.91632
0.915473
0.914588
0.913648
0.91263
0.911503
0.910228
0.908748
0.906989
0.90485
0.902171
0.898798
0.89429
0.888525
0.880607
0.867129
0.93039
0.930023
0.92974
0.929113
0.928389
0.927752
0.927181
0.926625
0.926078
0.92555
0.925046
0.924565
0.924102
0.923655
0.923221
0.922795
0.922369
0.921932
0.92147
0.920962
0.92038
0.919686
0.918822
0.917716
0.916242
0.914288
0.911476
0.907846
0.902184
0.893396
0.933786
0.933655
0.933605
0.933192
0.932686
0.93228
0.931955
0.931655
0.931373
0.931126
0.930919
0.930752
0.930623
0.930534
0.930485
0.930475
0.930501
0.930557
0.930637
0.93073
0.930816
0.930871
0.930855
0.930715
0.930357
0.929698
0.928424
0.926658
0.923054
0.918111
0.937577
0.937668
0.937837
0.937635
0.937344
0.937167
0.937083
0.937035
0.937016
0.937045
0.93713
0.937272
0.937472
0.937734
0.938061
0.938456
0.938919
0.939453
0.940053
0.940718
0.941436
0.942194
0.942966
0.943714
0.944368
0.944868
0.944956
0.944787
0.94301
0.94112
0.941732
0.942028
0.942402
0.942405
0.942327
0.942373
0.942523
0.94272
0.942957
0.943255
0.943623
0.944065
0.944584
0.945185
0.945874
0.946657
0.947539
0.948525
0.949616
0.950816
0.952122
0.953526
0.955014
0.956561
0.958114
0.959627
0.960893
0.962056
0.961859
0.962299
0.946202
0.946687
0.947246
0.947447
0.947577
0.947839
0.948215
0.948646
0.94913
0.949686
0.950327
0.951055
0.951878
0.952801
0.953833
0.954982
0.956255
0.957661
0.959207
0.960898
0.962736
0.964722
0.966847
0.969094
0.971425
0.973802
0.976054
0.978298
0.979421
0.981562
0.950925
0.95158
0.952305
0.952695
0.953025
0.953493
0.954082
0.954736
0.955453
0.956253
0.957149
0.958148
0.959254
0.960477
0.961826
0.963312
0.964945
0.966734
0.968689
0.970819
0.97313
0.975625
0.978301
0.981146
0.98413
0.987218
0.99027
0.993363
0.995548
0.998846
0.955823
0.956627
0.957498
0.958064
0.958585
0.959247
0.960033
0.960894
0.961827
0.962853
0.963985
0.965231
0.966597
0.968093
0.96973
0.97152
0.973473
0.975602
0.977917
0.980429
0.983147
0.986074
0.989211
0.992548
0.996059
0.999709
1.00338
1.00711
1.01011
1.0141
0.960805
0.961738
0.962732
0.963459
0.964158
0.964998
0.965964
0.967013
0.968142
0.969373
0.970718
0.972185
0.973783
0.975521
0.977411
0.979466
0.981698
0.984119
0.98674
0.989573
0.992628
0.995908
0.999415
1.00314
1.00705
1.01112
1.01524
1.01939
1.02296
1.0273
0.96577
0.966809
0.967905
0.968777
0.969639
0.970638
0.971764
0.972979
0.974282
0.975692
0.977223
0.978883
0.980681
0.982627
0.984733
0.987013
0.989477
0.992139
0.995011
0.998103
1.00142
1.00498
1.00876
1.01277
1.01697
1.02131
1.02571
1.03009
1.03395
1.03835
0.970612
0.971738
0.972914
0.973913
0.974918
0.976057
0.97732
0.978677
0.980129
0.981692
0.98338
0.985202
0.987166
0.989283
0.991566
0.994027
0.996677
0.999529
1.00259
1.00588
1.0094
1.01315
1.01713
1.02133
1.0257
1.0302
1.03472
1.03916
1.04311
1.04721
0.97523
0.976422
0.977658
0.978764
0.979893
0.981149
0.982527
0.984001
0.985574
0.987262
0.989077
0.991027
0.993123
0.995375
0.997794
1.00039
1.00318
1.00617
1.00938
1.0128
1.01645
1.02033
1.02442
1.02872
1.03317
1.03772
1.04226
1.04665
1.05056
1.05427
0.97953
0.98077
0.982049
0.983241
0.984473
0.985823
0.987291
0.988857
0.990524
0.992307
0.994218
0.996265
0.998457
1.00081
1.00332
1.00601
1.0089
1.01198
1.01527
1.01877
1.02249
1.02643
1.03057
1.03488
1.03933
1.04384
1.0483
1.05253
1.05629
1.05948
0.983435
0.984708
0.986013
0.987273
0.988583
0.990006
0.991539
0.993171
0.994906
0.996756
0.998733
1.00084
1.0031
1.00551
1.00808
1.01083
1.01376
1.01689
1.02021
1.02374
1.02748
1.03141
1.03553
1.03979
1.04416
1.04854
1.05282
1.0568
1.06023
1.06273
0.986891
0.988184
0.989503
0.990809
0.992177
0.99365
0.995226
0.9969
0.998676
1.00057
1.00258
1.00472
1.00701
1.00944
1.01204
1.0148
1.01774
1.02087
1.02419
1.02769
1.03139
1.03527
1.0393
1.04345
1.04766
1.05183
1.05583
1.05943
1.06239
1.0642
0.989869
0.991169
0.992492
0.993827
0.995232
0.996733
0.998331
1.00002
1.00182
1.00372
1.00574
1.00789
1.01018
1.01261
1.01519
1.01794
1.02085
1.02394
1.02721
1.03065
1.03426
1.03803
1.04192
1.04589
1.04988
1.05376
1.0574
1.06052
1.06293
1.06385
0.992365
0.993665
0.994982
0.99633
0.997752
0.999263
1.00086
1.00256
1.00434
1.00624
1.00825
1.01038
1.01264
1.01504
1.01758
1.02027
1.02312
1.02614
1.02931
1.03265
1.03613
1.03974
1.04345
1.04719
1.05089
1.05441
1.05761
1.06016
1.06197
1.06149
0.994401
0.995693
0.996997
0.998345
0.999767
1.00127
1.00286
1.00453
1.00629
1.00816
1.01013
1.01222
1.01443
1.01677
1.01924
1.02186
1.02462
1.02752
1.03058
1.03377
1.03708
1.0405
1.04397
1.04743
1.05079
1.0539
1.0566
1.05846
1.05966
1.05761
0.996019
0.997297
0.998583
0.999918
1.00132
1.00281
1.00437
1.00601
1.00773
1.00955
1.01148
1.0135
1.01565
1.01791
1.02029
1.0228
1.02544
1.02822
1.03112
1.03413
1.03724
1.04042
1.04361
1.04674
1.04971
1.05233
1.05447
1.05556
1.05608
1.05247
0.997281
0.998544
0.999804
1.00111
1.00249
1.00393
1.00545
1.00704
1.00871
1.01047
1.01233
1.01428
1.01633
1.01849
1.02077
1.02315
1.02566
1.02827
1.03099
1.03381
1.03668
1.03959
1.04246
1.04522
1.04774
1.04982
1.05133
1.05154
1.05125
1.0456
0.998258
0.999503
1.00073
1.00199
1.00334
1.00475
1.00623
1.00777
1.00939
1.01108
1.01286
1.01473
1.01669
1.01874
1.02089
1.02313
1.02548
1.02791
1.03042
1.03299
1.0356
1.03819
1.04071
1.04304
1.04506
1.04652
1.0473
1.04646
1.04524
1.03712
0.999097
1.00028
1.00139
1.00258
1.00385
1.00519
1.00659
1.00807
1.00962
1.01125
1.01295
1.01472
1.01658
1.01851
1.02052
1.02261
1.02478
1.02702
1.02931
1.03163
1.03395
1.03621
1.03834
1.04021
1.04168
1.04245
1.04244
1.04041
1.03819
1.02724
1.00006
1.00109
1.00202
1.00317
1.00445
1.00575
1.00711
1.00853
1.01001
1.01155
1.01318
1.01487
1.01663
1.01845
1.02033
1.02225
1.02422
1.02623
1.02826
1.03028
1.03226
1.03412
1.03578
1.03711
1.03793
1.0379
1.03698
1.03352
1.03039
1.01601
1.00102
1.00148
1.00197
1.00298
1.00422
1.00549
1.00678
1.00809
1.00946
1.01093
1.01248
1.01408
1.0157
1.01737
1.01909
1.02086
1.02266
1.02446
1.02626
1.02802
1.02969
1.03119
1.03242
1.03321
1.0334
1.03254
1.03078
1.02548
1.02207
1.0032
0.989481
0.974368
0.956846
0.937824
0.917585
0.89578
0.872324
0.847761
0.823005
0.799071
0.777282
0.758018
0.743143
0.736947
0.740669
0.747917
0.750382
0.750169
0.748646
0.744929
0.738316
0.727237
0.711487
0.696967
0.692641
0.700603
0.711076
0.713567
0.707141
0.69761
1.01378
1.00109
0.985698
0.96906
0.950985
0.931223
0.909229
0.885234
0.859595
0.832851
0.806421
0.781239
0.758872
0.744283
0.742539
0.748121
0.750781
0.750724
0.748445
0.744371
0.736844
0.724846
0.708178
0.692184
0.687287
0.693214
0.704336
0.708799
0.70382
0.694095
1.01695
1.00574
0.992503
0.977046
0.959546
0.939807
0.917791
0.894019
0.868685
0.842272
0.815644
0.79004
0.76684
0.75034
0.746148
0.749534
0.751231
0.750397
0.748175
0.743785
0.736053
0.723161
0.701505
0.678751
0.669899
0.684041
0.712793
0.732408
0.743389
0.737337
1.02501
1.01612
1.00418
0.990565
0.974865
0.956275
0.934838
0.910841
0.884524
0.856604
0.828303
0.801083
0.776392
0.758122
0.751397
0.752534
0.75287
0.750643
0.746852
0.741352
0.733102
0.716352
0.687957
0.662498
0.659245
0.690958
0.74588
0.783756
0.800648
0.787362
1.02777
1.02029
1.01074
0.999115
0.985176
0.968362
0.948398
0.925345
0.899403
0.871141
0.841737
0.812861
0.786364
0.765981
0.75658
0.755615
0.754929
0.751861
0.746699
0.738801
0.72629
0.704827
0.675798
0.657537
0.670221
0.725115
0.798196
0.845009
0.843112
0.802186
1.02981
1.02407
1.01615
1.00604
0.993467
0.977953
0.959113
0.936857
0.911345
0.883037
0.852964
0.822856
0.794874
0.772673
0.760999
0.758195
0.756668
0.753068
0.746978
0.737362
0.721968
0.698682
0.674594
0.670769
0.702672
0.77158
0.84332
0.874784
0.844061
0.768641
1.03051
1.02616
1.0198
1.01129
1.00026
0.98622
0.968667
0.947326
0.922257
0.89388
0.863179
0.831935
0.802546
0.778687
0.76504
0.760603
0.758243
0.754042
0.747102
0.73624
0.719985
0.698989
0.68418
0.693646
0.736911
0.80122
0.855289
0.858782
0.79985
0.699336
1.03044
1.02736
1.02243
1.01533
1.00572
0.993139
0.976979
0.956775
0.932406
0.904182
0.873023
0.840736
0.809939
0.784436
0.768922
0.762926
0.759712
0.754914
0.747165
0.73532
0.719073
0.701875
0.696159
0.714459
0.759865
0.809606
0.836541
0.811338
0.731583
0.626832
1.02981
1.02781
1.02414
1.01833
1.01006
0.998857
0.984064
0.965063
0.941558
0.913706
0.88231
0.849151
0.817023
0.789918
0.772619
0.765127
0.761067
0.755689
0.747213
0.734757
0.719252
0.706371
0.707766
0.731613
0.771975
0.806001
0.810253
0.765892
0.681681
0.588739
1.02881
1.02775
1.02519
1.02052
1.01348
1.0036
0.990138
0.972353
0.94979
0.92244
0.89097
0.857096
0.823742
0.795107
0.776122
0.767219
0.762348
0.756419
0.747315
0.734543
0.72027
0.711574
0.718126
0.744002
0.777566
0.797854
0.785934
0.734
0.661129
0.582887
1.02756
1.0273
1.0257
1.02206
1.01614
1.00751
0.99535
0.9788
0.957243
0.930501
0.899083
0.864624
0.830138
0.80004
0.779458
0.769227
0.763588
0.757148
0.747523
0.734683
0.721893
0.716921
0.727149
0.752323
0.778717
0.787816
0.765396
0.713475
0.656015
0.588355
1.02615
1.02658
1.0258
1.02307
1.01819
1.01072
0.999807
0.984488
0.963992
0.937953
0.906709
0.871783
0.836249
0.804746
0.782638
0.771155
0.764796
0.757889
0.747843
0.735125
0.723881
0.722103
0.734434
0.757516
0.777055
0.777005
0.749726
0.703701
0.657746
0.602
1.02464
1.02565
1.0256
1.02367
1.01974
1.01334
1.00361
0.989498
0.970092
0.944835
0.913871
0.878587
0.842087
0.80923
0.785662
0.773
0.765973
0.758646
0.748265
0.735775
0.72604
0.726671
0.740194
0.76041
0.773783
0.767634
0.740974
0.703063
0.660884
0.609063
1.02307
1.02459
1.02515
1.02395
1.02086
1.01545
1.00684
0.993908
0.975604
0.951187
0.920594
0.885051
0.847662
0.813502
0.788529
0.77476
0.767125
0.759422
0.748754
0.736556
0.728231
0.730534
0.744566
0.761703
0.770044
0.761301
0.737528
0.703023
0.660677
0.606471
1.02148
1.02342
1.02452
1.02396
1.02164
1.01714
1.00958
0.997787
0.980587
0.957054
0.926911
0.891198
0.85299
0.817571
0.791246
0.77644
0.768255
0.760214
0.749295
0.737406
0.730329
0.733893
0.747732
0.761891
0.766745
0.75745
0.735047
0.698397
0.651213
0.59832
1.01989
1.02218
1.02376
1.02377
1.02214
1.01848
1.0119
1.00119
0.98509
0.962475
0.932849
0.897048
0.858086
0.821448
0.793816
0.778041
0.769366
0.761017
0.749858
0.738272
0.732276
0.73682
0.749841
0.761546
0.763913
0.754431
0.729646
0.687264
0.637403
0.591444
1.01832
1.0209
1.02288
1.0234
1.0224
1.01951
1.01384
1.00418
0.989158
0.967485
0.938434
0.902617
0.862962
0.825141
0.796244
0.779567
0.770461
0.761825
0.750423
0.739116
0.734047
0.739257
0.75106
0.760407
0.761777
0.750062
0.71954
0.672181
0.624438
0.589083
1.01676
1.01958
1.02191
1.0229
1.02248
1.02029
1.01547
1.0068
0.992833
0.972116
0.943689
0.907922
0.867629
0.828658
0.798534
0.781019
0.771541
0.762631
0.750969
0.739909
0.73561
0.741038
0.751384
0.759333
0.759252
0.742516
0.705665
0.656556
0.614817
0.589666
1.01522
1.01824
1.02088
1.02229
1.0224
1.02086
1.01682
1.00909
0.996152
0.976398
0.948636
0.912979
0.872098
0.832006
0.800689
0.782402
0.772608
0.763426
0.751484
0.740638
0.736831
0.741957
0.751438
0.75856
0.754851
0.731887
0.690045
0.642671
0.608533
0.59125
1.0137
1.0169
1.01979
1.02158
1.02218
1.02123
1.01793
1.01109
0.999149
0.980359
0.953297
0.917802
0.876379
0.835189
0.802714
0.783716
0.773661
0.764202
0.75196
0.741302
0.73758
0.742382
0.751649
0.756905
0.748162
0.719248
0.674548
0.631326
0.604516
0.592347
1.01222
1.01554
1.01866
1.02079
1.02185
1.02145
1.01883
1.01283
1.00186
0.984024
0.957691
0.922405
0.880481
0.838215
0.804612
0.784964
0.774697
0.764954
0.752397
0.741721
0.737924
0.742852
0.751433
0.753818
0.740029
0.705644
0.660423
0.622413
0.601629
0.591746
1.01079
1.01418
1.01749
1.01994
1.02141
1.02153
1.01955
1.01435
1.0043
0.987419
0.961836
0.926802
0.884414
0.841088
0.806386
0.786152
0.775715
0.765675
0.75279
0.741736
0.738174
0.743216
0.750512
0.749713
0.730621
0.691937
0.648254
0.615421
0.599044
0.589669
1.00941
1.01284
1.0163
1.01903
1.02088
1.02148
1.02011
1.01566
1.00651
0.990563
0.965749
0.931006
0.888184
0.843811
0.808035
0.787305
0.776721
0.766374
0.752972
0.741632
0.738394
0.743208
0.749031
0.744906
0.720289
0.678783
0.638059
0.609819
0.596233
0.586666
1.00809
1.01152
1.0151
1.01807
1.02028
1.02133
1.02053
1.0168
1.0085
0.993478
0.969447
0.935028
0.891803
0.846392
0.809568
0.788414
0.777721
0.767073
0.752852
0.74157
0.738443
0.742938
0.747473
0.739249
0.709584
0.666666
0.629362
0.605064
0.593089
0.582994
1.00682
1.01023
1.01388
1.01707
1.01961
1.02109
1.02082
1.01777
1.0103
0.996183
0.972943
0.938874
0.895267
0.848826
0.810967
0.789424
0.778708
0.767586
0.752761
0.74148
0.738246
0.742812
0.745986
0.73278
0.698525
0.655814
0.62186
0.600773
0.589629
0.578947
1.00564
1.00898
1.01266
1.01604
1.01888
1.02076
1.021
1.01858
1.01191
0.998695
0.976264
0.942581
0.898618
0.851147
0.812326
0.790456
0.77972
0.767784
0.752656
0.741284
0.7381
0.743046
0.74411
0.725699
0.687443
0.64588
0.61465
0.596647
0.585787
0.574722
1.00456
1.00779
1.01145
1.01497
1.01806
1.02036
1.0211
1.0193
1.01338
1.00101
0.979363
0.946072
0.901767
0.853248
0.813285
0.791229
0.78064
0.768074
0.752178
0.740676
0.738611
0.743581
0.741663
0.718158
0.677337
0.637196
0.609152
0.593056
0.582407
0.5705
1.00363
1.00666
1.01032
1.01394
1.01717
1.01969
1.02098
1.01985
1.0147
1.00325
0.982452
0.949608
0.905061
0.8557
0.815007
0.792328
0.781586
0.768414
0.751443
0.739869
0.73893
0.743794
0.73828
0.709626
0.666765
0.628209
0.602904
0.588695
0.577985
0.566292
1.00284
1.00555
1.00922
1.01313
1.0167
1.01946
1.02096
1.02033
1.01576
1.00499
0.984815
0.952135
0.907099
0.85655
0.815122
0.792781
0.78189
0.767813
0.750573
0.739783
0.739814
0.744346
0.735795
0.703517
0.659079
0.622098
0.599401
0.586466
0.575401
0.562843
1.00219
1.00428
1.00747
1.01132
1.01519
1.01844
1.02063
1.02076
1.01723
1.00771
0.988809
0.95711
0.911846
0.860132
0.817171
0.793659
0.781787
0.766247
0.748985
0.739243
0.740108
0.743094
0.728569
0.690278
0.64511
0.61184
0.59304
0.581162
0.568949
0.556519
0.510086
0.512412
0.498198
0.480043
0.470291
0.484239
0.524612
0.570478
0.611898
0.64907
0.680158
0.705811
0.72727
0.745402
0.760853
0.774187
0.785892
0.796356
0.80588
0.814705
0.823017
0.830958
0.838657
0.846175
0.853649
0.861146
0.868993
0.876561
0.886663
0.889412
0.483479
0.475353
0.449607
0.431782
0.434068
0.449834
0.487794
0.540071
0.590435
0.634252
0.669209
0.697359
0.720647
0.740169
0.756594
0.770548
0.78261
0.79325
0.802829
0.811617
0.819826
0.827611
0.835105
0.842365
0.849496
0.856415
0.863543
0.869728
0.877379
0.882192
0.440532
0.42263
0.390994
0.378298
0.38839
0.410364
0.446331
0.499231
0.558181
0.609578
0.651517
0.684353
0.710603
0.73227
0.750291
0.765405
0.778254
0.789384
0.799236
0.808146
0.816372
0.824102
0.83149
0.83862
0.8456
0.852369
0.859233
0.865762
0.872845
0.880012
0.391734
0.370181
0.341041
0.328684
0.338758
0.366411
0.405213
0.458936
0.523111
0.584244
0.634807
0.674074
0.704488
0.728701
0.748293
0.764477
0.778028
0.78956
0.799589
0.808517
0.816661
0.824257
0.83149
0.838482
0.845353
0.852118
0.858917
0.865681
0.872473
0.879315
0.353898
0.332786
0.307082
0.292474
0.298451
0.327112
0.368446
0.421665
0.486875
0.555158
0.615057
0.662197
0.698397
0.726093
0.747611
0.764875
0.779022
0.790842
0.800934
0.809756
0.817671
0.824964
0.831851
0.838489
0.845
0.851448
0.857885
0.864337
0.870762
0.877215
0.340055
0.317676
0.291712
0.27384
0.274966
0.299486
0.339553
0.390432
0.453182
0.523311
0.59015
0.646109
0.689525
0.722031
0.746478
0.76529
0.780168
0.792272
0.802382
0.811042
0.818663
0.825566
0.831999
0.83815
0.84416
0.850129
0.856117
0.862177
0.868305
0.874569
0.351908
0.323975
0.294472
0.272305
0.268582
0.28617
0.32201
0.369173
0.427582
0.495448
0.565233
0.627983
0.678684
0.71718
0.745655
0.766712
0.782624
0.795043
0.805071
0.813439
0.820649
0.827062
0.832952
0.838531
0.84396
0.849361
0.854817
0.860389
0.866083
0.87196
0.386938
0.350531
0.315609
0.287749
0.277801
0.288129
0.318436
0.360161
0.413568
0.477204
0.54592
0.611745
0.668246
0.712802
0.745989
0.77002
0.787402
0.800231
0.810036
0.817854
0.824367
0.83003
0.835156
0.839974
0.844654
0.849327
0.854088
0.859012
0.864119
0.869502
0.439829
0.395406
0.354187
0.320087
0.302981
0.3055
0.327137
0.363242
0.411569
0.470198
0.535614
0.601323
0.660924
0.710185
0.747993
0.775504
0.794894
0.808433
0.818022
0.825063
0.830521
0.835034
0.839019
0.842741
0.846377
0.850059
0.853884
0.857942
0.862263
0.866978
0.507575
0.454766
0.406178
0.36535
0.341002
0.335492
0.348623
0.377542
0.420031
0.473709
0.535433
0.598711
0.658649
0.710466
0.751879
0.782818
0.804685
0.819495
0.829243
0.835602
0.839839
0.842863
0.84529
0.847508
0.849752
0.852122
0.854682
0.857553
0.860843
0.864652
0.578236
0.52197
0.466263
0.418545
0.387044
0.374112
0.379705
0.40171
0.438028
0.486288
0.543069
0.603133
0.66148
0.713667
0.756995
0.790564
0.814933
0.831528
0.842118
0.848382
0.851739
0.853313
0.853963
0.854305
0.854757
0.855472
0.856352
0.857392
0.859003
0.861391
0.63596
0.58465
0.526788
0.474598
0.436529
0.416844
0.415825
0.431718
0.462157
0.504782
0.556144
0.611877
0.667141
0.717913
0.761352
0.796274
0.822594
0.841044
0.853048
0.860121
0.863591
0.864564
0.864065
0.862838
0.861527
0.860667
0.86027
0.859847
0.859894
0.860425
0.67145
0.630438
0.576246
0.523768
0.482513
0.457789
0.45097
0.461541
0.486847
0.523773
0.569648
0.620416
0.671787
0.720039
0.762406
0.797248
0.824078
0.843292
0.85597
0.863457
0.866604
0.866653
0.865138
0.863051
0.860966
0.859256
0.85801
0.857151
0.85692
0.857631
0.671997
0.645477
0.601106
0.55394
0.513222
0.485361
0.474721
0.482122
0.501068
0.532442
0.575098
0.622081
0.670124
0.715788
0.756499
0.790643
0.817527
0.837096
0.849797
0.856536
0.858877
0.85807
0.854903
0.850919
0.847395
0.844778
0.843053
0.842379
0.842601
0.843503
0.632004
0.625869
0.593502
0.554646
0.516981
0.48795
0.475785
0.483079
0.502578
0.530404
0.567013
0.610333
0.655796
0.699839
0.739713
0.77367
0.800827
0.820953
0.834606
0.842324
0.844705
0.842958
0.838477
0.832658
0.826697
0.821478
0.817543
0.81502
0.81382
0.813507
0.56371
0.577531
0.556448
0.526919
0.495337
0.47049
0.458578
0.461004
0.476178
0.502572
0.538099
0.579385
0.623226
0.66641
0.705805
0.739906
0.768048
0.789688
0.804473
0.812814
0.815776
0.814288
0.809128
0.801469
0.792679
0.78435
0.777848
0.773591
0.770418
0.767841
0.478417
0.511693
0.500083
0.479373
0.45365
0.432611
0.422152
0.425077
0.440966
0.467576
0.502162
0.541819
0.583758
0.625015
0.663111
0.695903
0.722194
0.741652
0.754653
0.761083
0.761702
0.758688
0.753335
0.7443
0.732369
0.720539
0.709772
0.701778
0.696076
0.690161
0.392418
0.443089
0.438297
0.427512
0.408948
0.393702
0.387853
0.394444
0.412916
0.4406
0.474569
0.512591
0.550943
0.587969
0.621497
0.64973
0.671738
0.686915
0.695706
0.698899
0.696415
0.689831
0.683838
0.678251
0.669495
0.659179
0.648563
0.637844
0.628328
0.617898
0.323415
0.385638
0.384229
0.383593
0.372124
0.364092
0.364283
0.375468
0.396617
0.424588
0.457572
0.492425
0.526933
0.558838
0.586573
0.608782
0.624931
0.635145
0.638916
0.641715
0.642963
0.639391
0.634404
0.629831
0.625097
0.619125
0.612326
0.604989
0.597443
0.589291
0.283584
0.347438
0.344393
0.349623
0.343904
0.342496
0.348415
0.363831
0.387218
0.41606
0.446884
0.478406
0.50868
0.535818
0.558559
0.57599
0.588258
0.597028
0.601987
0.603934
0.604911
0.604874
0.603568
0.601229
0.597949
0.594489
0.591037
0.587206
0.582818
0.577993
0.271109
0.326377
0.317154
0.324317
0.319668
0.321307
0.329904
0.347272
0.370815
0.398918
0.428919
0.459406
0.488369
0.514049
0.535189
0.551968
0.56451
0.572704
0.578309
0.582394
0.585019
0.58616
0.586363
0.585978
0.584487
0.581747
0.577734
0.572651
0.567106
0.560474
0.28308
0.320787
0.304661
0.306113
0.29469
0.293003
0.297401
0.310594
0.332138
0.360191
0.393301
0.4277
0.460594
0.490207
0.515253
0.53598
0.55156
0.562855
0.570918
0.576086
0.578801
0.579623
0.579016
0.577285
0.574544
0.570687
0.565809