/*--------------------------------*- C++ -*----------------------------------*\
  =========                 |
  \\      /  F ield         | OpenFOAM: The Open Source CFD Toolbox
   \\    /   O peration     | Website:  https://openfoam.org
    \\  /    A nd           | Version:  11
     \\/     M anipulation  |
\*---------------------------------------------------------------------------*/
FoamFile
{
    format      ascii;
    class       volVectorField;
    location    "2.2";
    object      U;
}
// * * * * * * * * * * * * * * * * * * * * * * * * * * * * * * * * * * * * * //

dimensions      [0 1 -1 0 0 0 0];

internalField   nonuniform List<vector> 
12600
(
(0.412284 6.50341e-05 0)
(0.412174 0.000123489 0)
(0.411978 0.000140965 0)
(0.411739 0.000146275 0)
(0.4115 0.000149069 0)
(0.41127 0.000148869 0)
(0.411049 0.000144788 0)
(0.410841 0.000136319 0)
(0.410655 0.00012539 0)
(0.410501 0.000112648 0)
(0.41039 9.79317e-05 0)
(0.410331 7.93146e-05 0)
(0.410336 4.73389e-05 0)
(0.410423 1.65974e-06 0)
(0.410606 -4.71811e-05 0)
(0.410899 -9.00728e-05 0)
(0.41132 -0.000140175 0)
(0.411884 -0.000193051 0)
(0.412609 -0.000249871 0)
(0.413526 -0.000323774 0)
(0.41468 -0.000421286 0)
(0.416118 -0.000541551 0)
(0.417888 -0.00068532 0)
(0.420051 -0.000855656 0)
(0.422679 -0.00105687 0)
(0.425852 -0.00128972 0)
(0.429662 -0.00156888 0)
(0.434184 -0.00184202 0)
(0.439569 -0.00232717 0)
(0.446499 -0.00206934 0)
(0.41248 8.52838e-05 0)
(0.412563 0.000188509 0)
(0.412672 0.000184409 0)
(0.412728 0.000183541 0)
(0.412773 0.000183533 0)
(0.412823 0.000179311 0)
(0.412879 0.000170229 0)
(0.41294 0.000153328 0)
(0.413013 0.000123452 0)
(0.413106 8.27177e-05 0)
(0.413228 3.05585e-05 0)
(0.41339 -3.45701e-05 0)
(0.413603 -0.000110442 0)
(0.413875 -0.000197424 0)
(0.414219 -0.000300706 0)
(0.414652 -0.000426473 0)
(0.415188 -0.000577127 0)
(0.415845 -0.000756388 0)
(0.416729 -0.00096795 0)
(0.417821 -0.00121309 0)
(0.419112 -0.00149614 0)
(0.420641 -0.00182723 0)
(0.422452 -0.00221867 0)
(0.424598 -0.00268241 0)
(0.427144 -0.00323063 0)
(0.430165 -0.00387144 0)
(0.433753 -0.00462563 0)
(0.437992 -0.00543806 0)
(0.443042 -0.00658023 0)
(0.448765 -0.00677413 0)
(0.41247 3.68974e-05 0)
(0.412511 7.56663e-05 0)
(0.412575 8.59738e-05 0)
(0.412633 8.92522e-05 0)
(0.41268 9.12722e-05 0)
(0.412727 8.87485e-05 0)
(0.412778 7.83246e-05 0)
(0.412832 5.38897e-05 0)
(0.412896 1.55268e-05 0)
(0.41298 -3.95422e-05 0)
(0.413092 -0.00011199 0)
(0.413245 -0.000203898 0)
(0.413452 -0.000319611 0)
(0.413725 -0.000462223 0)
(0.414082 -0.000633053 0)
(0.414536 -0.000832758 0)
(0.415106 -0.00106825 0)
(0.415803 -0.00135728 0)
(0.416637 -0.00170448 0)
(0.417632 -0.00209703 0)
(0.418828 -0.00253993 0)
(0.420263 -0.00305639 0)
(0.421977 -0.00366886 0)
(0.424021 -0.00439674 0)
(0.426457 -0.00526046 0)
(0.429366 -0.00627794 0)
(0.43282 -0.00748019 0)
(0.436985 -0.00882226 0)
(0.441784 -0.010565 0)
(0.448047 -0.0114884 0)
(0.412467 1.72886e-05 0)
(0.412494 5.05341e-05 0)
(0.412543 6.95789e-05 0)
(0.412595 8.39923e-05 0)
(0.412639 8.59027e-05 0)
(0.412681 8.18922e-05 0)
(0.412726 7.19965e-05 0)
(0.412776 4.60152e-05 0)
(0.412835 -1.71979e-06 0)
(0.412912 -7.43366e-05 0)
(0.413017 -0.000175173 0)
(0.413162 -0.000306344 0)
(0.413358 -0.000470162 0)
(0.413619 -0.000668632 0)
(0.413957 -0.000904498 0)
(0.414386 -0.00118217 0)
(0.414921 -0.00150862 0)
(0.415576 -0.00189323 0)
(0.416363 -0.00234202 0)
(0.417304 -0.0028599 0)
(0.41843 -0.00346156 0)
(0.419777 -0.0041697 0)
(0.421387 -0.00500909 0)
(0.42331 -0.00600647 0)
(0.425605 -0.00719256 0)
(0.428359 -0.00859548 0)
(0.43164 -0.0102598 0)
(0.435641 -0.012146 0)
(0.440248 -0.014532 0)
(0.446483 -0.0162522 0)
(0.412465 6.0845e-06 0)
(0.412484 2.30194e-05 0)
(0.41252 3.59466e-05 0)
(0.412563 4.23478e-05 0)
(0.412603 4.43437e-05 0)
(0.412641 3.99044e-05 0)
(0.41268 2.32543e-05 0)
(0.412725 -1.27222e-05 0)
(0.412782 -7.34799e-05 0)
(0.412854 -0.000163226 0)
(0.412953 -0.000287278 0)
(0.413087 -0.000449676 0)
(0.413269 -0.000653575 0)
(0.413511 -0.000902037 0)
(0.413823 -0.00119841 0)
(0.414218 -0.00154699 0)
(0.41471 -0.00195425 0)
(0.415311 -0.00242955 0)
(0.416035 -0.00298298 0)
(0.416902 -0.00362547 0)
(0.417937 -0.00437414 0)
(0.419174 -0.00525451 0)
(0.42065 -0.00629799 0)
(0.422415 -0.00754046 0)
(0.424526 -0.00902319 0)
(0.42707 -0.010787 0)
(0.430114 -0.0128899 0)
(0.433873 -0.0153148 0)
(0.4382 -0.0183305 0)
(0.444293 -0.0209213 0)
(0.412463 -2.5954e-06 0)
(0.412478 1.99963e-06 0)
(0.412507 9.75374e-06 0)
(0.412542 1.66305e-05 0)
(0.412578 1.959e-05 0)
(0.412613 1.51424e-05 0)
(0.412649 -1.8769e-06 0)
(0.41269 -3.96663e-05 0)
(0.41274 -0.000107512 0)
(0.412805 -0.000211857 0)
(0.412894 -0.000358078 0)
(0.413016 -0.000550589 0)
(0.413181 -0.000792777 0)
(0.413399 -0.00108764 0)
(0.413681 -0.00143856 0)
(0.414038 -0.00185022 0)
(0.41448 -0.00232954 0)
(0.415019 -0.00288623 0)
(0.415668 -0.00353242 0)
(0.416443 -0.00428354 0)
(0.417366 -0.0051616 0)
(0.418466 -0.00619681 0)
(0.419778 -0.00742678 0)
(0.421346 -0.00889588 0)
(0.423225 -0.0106564 0)
(0.425501 -0.0127634 0)
(0.428237 -0.0152904 0)
(0.43167 -0.0182492 0)
(0.43562 -0.0218981 0)
(0.441456 -0.0253929 0)
(0.412463 -8.97412e-06 0)
(0.412475 -1.4142e-05 0)
(0.412498 -1.14317e-05 0)
(0.412527 -6.64439e-06 0)
(0.412558 -4.58415e-06 0)
(0.412589 -1.01674e-05 0)
(0.41262 -3.04733e-05 0)
(0.412656 -7.46677e-05 0)
(0.4127 -0.000152274 0)
(0.412757 -0.000271205 0)
(0.412836 -0.000437917 0)
(0.412943 -0.000657505 0)
(0.413089 -0.00093372 0)
(0.413281 -0.00126975 0)
(0.413529 -0.00166919 0)
(0.413841 -0.00213691 0)
(0.414226 -0.00268008 0)
(0.414694 -0.00330893 0)
(0.415256 -0.00403739 0)
(0.415924 -0.00488414 0)
(0.416718 -0.00587487 0)
(0.41766 -0.00704396 0)
(0.418779 -0.00843501 0)
(0.420115 -0.0101011 0)
(0.421717 -0.0121061 0)
(0.423668 -0.0145212 0)
(0.426025 -0.0174379 0)
(0.42904 -0.0209029 0)
(0.432504 -0.0251658 0)
(0.437942 -0.0295902 0)
(0.412462 -1.42065e-05 0)
(0.412472 -2.69947e-05 0)
(0.412491 -2.91685e-05 0)
(0.412515 -2.66846e-05 0)
(0.412542 -2.56048e-05 0)
(0.412568 -3.20811e-05 0)
(0.412596 -5.38219e-05 0)
(0.412627 -0.000101404 0)
(0.412664 -0.000185814 0)
(0.412713 -0.000316363 0)
(0.412779 -0.000500238 0)
(0.412871 -0.000742792 0)
(0.412995 -0.00104793 0)
(0.413159 -0.00141888 0)
(0.413368 -0.00185916 0)
(0.413632 -0.00237362 0)
(0.413955 -0.00296951 0)
(0.414346 -0.00365754 0)
(0.414812 -0.00445289 0)
(0.415363 -0.00537663 0)
(0.416011 -0.00645759 0)
(0.416774 -0.00773425 0)
(0.417675 -0.00925607 0)
(0.418747 -0.0110845 0)
(0.420029 -0.0132951 0)
(0.421598 -0.0159756 0)
(0.423501 -0.0192378 0)
(0.425997 -0.0231686 0)
(0.428854 -0.0280131 0)
(0.433714 -0.03338 0)
(0.412462 -1.85109e-05 0)
(0.41247 -3.77811e-05 0)
(0.412486 -4.39001e-05 0)
(0.412506 -4.35199e-05 0)
(0.412528 -4.3502e-05 0)
(0.412551 -5.06562e-05 0)
(0.412574 -7.36419e-05 0)
(0.412599 -0.000124411 0)
(0.41263 -0.000215208 0)
(0.41267 -0.000356103 0)
(0.412724 -0.000554766 0)
(0.412799 -0.00081682 0)
(0.4129 -0.00114626 0)
(0.413033 -0.00154624 0)
(0.413203 -0.00202007 0)
(0.413414 -0.00257242 0)
(0.413671 -0.00321044 0)
(0.413979 -0.00394504 0)
(0.414342 -0.00479215 0)
(0.414766 -0.00577433 0)
(0.415257 -0.00692266 0)
(0.415827 -0.00827885 0)
(0.416489 -0.00989722 0)
(0.417268 -0.0118466 0)
(0.418193 -0.0142136 0)
(0.419327 -0.0171027 0)
(0.420703 -0.020647 0)
(0.422576 -0.024978 0)
(0.424694 -0.0303408 0)
(0.428758 -0.0366266 0)
(0.412462 -2.20713e-05 0)
(0.412468 -4.67214e-05 0)
(0.412481 -5.60583e-05 0)
(0.412498 -5.74704e-05 0)
(0.412516 -5.85175e-05 0)
(0.412535 -6.62859e-05 0)
(0.412554 -9.00218e-05 0)
(0.412574 -0.000143004 0)
(0.412598 -0.000238573 0)
(0.412629 -0.000387412 0)
(0.412671 -0.000597558 0)
(0.412729 -0.000874775 0)
(0.412806 -0.00122301 0)
(0.412907 -0.00164516 0)
(0.413035 -0.0021442 0)
(0.413193 -0.00272436 0)
(0.413382 -0.0033924 0)
(0.413604 -0.00415901 0)
(0.41386 -0.00504023 0)
(0.41415 -0.00605927 0)
(0.414476 -0.00724851 0)
(0.414841 -0.00865183 0)
(0.41525 -0.0103272 0)
(0.415715 -0.0123494 0)
(0.41625 -0.0148145 0)
(0.416903 -0.0178422 0)
(0.417687 -0.0215866 0)
(0.418833 -0.0262255 0)
(0.420075 -0.0320079 0)
(0.423088 -0.0391344 0)
(0.412461 -2.49566e-05 0)
(0.412467 -5.40646e-05 0)
(0.412477 -6.60373e-05 0)
(0.412491 -6.89607e-05 0)
(0.412505 -7.09621e-05 0)
(0.412521 -7.91172e-05 0)
(0.412536 -0.000102812 0)
(0.412551 -0.000157125 0)
(0.412568 -0.000256167 0)
(0.412591 -0.000410839 0)
(0.412621 -0.000629367 0)
(0.412661 -0.000917574 0)
(0.412715 -0.00127924 0)
(0.412784 -0.00171691 0)
(0.41287 -0.00223298 0)
(0.412973 -0.00283101 0)
(0.413093 -0.00351707 0)
(0.413228 -0.00430115 0)
(0.413375 -0.00519881 0)
(0.41353 -0.00623299 0)
(0.413687 -0.00743618 0)
(0.413842 -0.00885295 0)
(0.41399 -0.0105431 0)
(0.414127 -0.012585 0)
(0.414252 -0.0150815 0)
(0.414389 -0.0181645 0)
(0.414525 -0.0220064 0)
(0.414849 -0.0268285 0)
(0.415088 -0.0328861 0)
(0.416775 -0.0406982 0)
(0.412461 -2.72887e-05 0)
(0.412465 -6.0164e-05 0)
(0.412474 -7.40129e-05 0)
(0.412485 -7.81449e-05 0)
(0.412496 -8.08646e-05 0)
(0.412508 -8.91886e-05 0)
(0.41252 -0.000112447 0)
(0.412531 -0.000167299 0)
(0.412542 -0.000268324 0)
(0.412556 -0.000426526 0)
(0.412574 -0.00065021 0)
(0.412597 -0.000945125 0)
(0.412628 -0.00131476 0)
(0.412665 -0.00176111 0)
(0.41271 -0.00228584 0)
(0.412759 -0.00289162 0)
(0.412811 -0.00358344 0)
(0.41286 -0.00437016 0)
(0.4129 -0.00526609 0)
(0.412921 -0.00629292 0)
(0.412911 -0.00748197 0)
(0.412857 -0.0088768 0)
(0.412743 -0.0105367 0)
(0.41255 -0.0125409 0)
(0.412257 -0.0149949 0)
(0.411858 -0.018038 0)
(0.411312 -0.0218549 0)
(0.41074 -0.0267029 0)
(0.40987 -0.0328423 0)
(0.40996 -0.0410902 0)
(0.412461 -2.91181e-05 0)
(0.412464 -6.49557e-05 0)
(0.412471 -8.03539e-05 0)
(0.412479 -8.53974e-05 0)
(0.412488 -8.86363e-05 0)
(0.412497 -9.68282e-05 0)
(0.412506 -0.000119226 0)
(0.412512 -0.000173768 0)
(0.412518 -0.00027536 0)
(0.412525 -0.000434881 0)
(0.412532 -0.000660571 0)
(0.412539 -0.000958001 0)
(0.412547 -0.00133024 0)
(0.412555 -0.00177862 0)
(0.412559 -0.00230391 0)
(0.412558 -0.00290761 0)
(0.412544 -0.00359334 0)
(0.41251 -0.00436831 0)
(0.412447 -0.00524491 0)
(0.412339 -0.00624258 0)
(0.412169 -0.00739006 0)
(0.411914 -0.008728 0)
(0.411547 -0.0103126 0)
(0.411033 -0.0122201 0)
(0.410329 -0.0145539 0)
(0.409396 -0.0174535 0)
(0.40816 -0.0211073 0)
(0.406653 -0.0257943 0)
(0.40461 -0.0317736 0)
(0.402876 -0.0401037 0)
(0.412461 -3.04267e-05 0)
(0.412463 -6.85878e-05 0)
(0.412468 -8.53467e-05 0)
(0.412474 -9.10083e-05 0)
(0.412481 -9.44659e-05 0)
(0.412488 -0.000102279 0)
(0.412493 -0.000123544 0)
(0.412497 -0.000177105 0)
(0.412498 -0.00027788 0)
(0.412498 -0.000436546 0)
(0.412495 -0.000661196 0)
(0.412487 -0.000957108 0)
(0.412475 -0.00132681 0)
(0.412454 -0.00177086 0)
(0.412422 -0.00228896 0)
(0.412372 -0.00288127 0)
(0.412297 -0.00354972 0)
(0.412187 -0.00429939 0)
(0.412027 -0.00514009 0)
(0.4118 -0.00608804 0)
(0.411481 -0.00716796 0)
(0.411041 -0.00841563 0)
(0.410439 -0.0098813 0)
(0.409626 -0.0116341 0)
(0.408537 -0.0137696 0)
(0.407097 -0.0164189 0)
(0.405197 -0.0197626 0)
(0.402764 -0.024081 0)
(0.399544 -0.02962 0)
(0.395857 -0.0375819 0)
(0.41246 -3.13436e-05 0)
(0.412462 -7.11953e-05 0)
(0.412466 -8.91664e-05 0)
(0.41247 -9.51653e-05 0)
(0.412475 -9.87175e-05 0)
(0.41248 -0.000105993 0)
(0.412483 -0.000125867 0)
(0.412484 -0.000177807 0)
(0.412482 -0.00027648 0)
(0.412476 -0.000432276 0)
(0.412464 -0.000653047 0)
(0.412443 -0.000943667 0)
(0.412412 -0.00130604 0)
(0.412366 -0.00173983 0)
(0.4123 -0.0022436 0)
(0.412206 -0.00281597 0)
(0.412076 -0.00345694 0)
(0.411896 -0.0041691 0)
(0.411651 -0.00495903 0)
(0.411317 -0.00583884 0)
(0.410867 -0.00682798 0)
(0.410262 -0.00795537 0)
(0.409453 -0.00926252 0)
(0.408377 -0.0108074 0)
(0.406947 -0.0126712 0)
(0.405055 -0.0149677 0)
(0.402556 -0.0178555 0)
(0.399268 -0.0215919 0)
(0.394948 -0.0263921 0)
(0.389327 -0.0334692 0)
(0.41246 -3.19126e-05 0)
(0.412461 -7.28894e-05 0)
(0.412463 -9.19538e-05 0)
(0.412467 -9.82605e-05 0)
(0.412471 -0.000101682 0)
(0.412474 -0.000108315 0)
(0.412475 -0.00012672 0)
(0.412475 -0.000176538 0)
(0.41247 -0.000271948 0)
(0.412459 -0.000423021 0)
(0.412439 -0.000637297 0)
(0.412408 -0.00091917 0)
(0.41236 -0.00126983 0)
(0.412292 -0.00168802 0)
(0.412196 -0.00217105 0)
(0.412064 -0.00271594 0)
(0.411886 -0.00332055 0)
(0.411646 -0.0039847 0)
(0.411326 -0.00471128 0)
(0.410902 -0.00550754 0)
(0.410341 -0.00638651 0)
(0.4096 -0.00736862 0)
(0.408622 -0.00848405 0)
(0.407329 -0.00977572 0)
(0.405622 -0.0113047 0)
(0.40336 -0.0131579 0)
(0.400368 -0.0154582 0)
(0.396363 -0.0184135 0)
(0.39111 -0.0221875 0)
(0.383765 -0.0278507 0)
(0.41246 -3.21388e-05 0)
(0.41246 -7.38025e-05 0)
(0.412462 -9.39941e-05 0)
(0.412464 -0.000100554 0)
(0.412467 -0.000103759 0)
(0.412469 -0.0001097 0)
(0.41247 -0.000126637 0)
(0.412468 -0.000173909 0)
(0.412462 -0.000265046 0)
(0.412447 -0.000409786 0)
(0.412422 -0.000615262 0)
(0.412381 -0.000885313 0)
(0.41232 -0.0012204 0)
(0.412233 -0.0016183 0)
(0.412112 -0.00207509 0)
(0.411948 -0.00258613 0)
(0.411729 -0.0031471 0)
(0.41144 -0.00375482 0)
(0.41106 -0.00440821 0)
(0.410564 -0.00510916 0)
(0.409917 -0.00586346 0)
(0.409072 -0.00668177 0)
(0.407968 -0.00758092 0)
(0.406519 -0.00858571 0)
(0.404613 -0.00973211 0)
(0.402088 -0.0110724 0)
(0.398746 -0.0126813 0)
(0.394225 -0.0146929 0)
(0.388297 -0.0172001 0)
(0.379645 -0.0209806 0)
(0.41246 -3.2119e-05 0)
(0.41246 -7.42324e-05 0)
(0.41246 -9.52581e-05 0)
(0.412462 -0.00010237 0)
(0.412465 -0.000105313 0)
(0.412466 -0.000110576 0)
(0.412467 -0.000126191 0)
(0.412465 -0.00017063 0)
(0.412458 -0.000256637 0)
(0.412441 -0.00039363 0)
(0.412412 -0.000588313 0)
(0.412364 -0.000843907 0)
(0.412292 -0.00116013 0)
(0.41219 -0.00153382 0)
(0.412049 -0.00195986 0)
(0.411859 -0.00243203 0)
(0.411609 -0.00294379 0)
(0.411281 -0.003489 0)
(0.410857 -0.00406248 0)
(0.410309 -0.00466055 0)
(0.409603 -0.00528133 0)
(0.40869 -0.00592495 0)
(0.407508 -0.00659374 0)
(0.405968 -0.00729237 0)
(0.403954 -0.00802849 0)
(0.401291 -0.00881432 0)
(0.397772 -0.0096678 0)
(0.39299 -0.0106316 0)
(0.386722 -0.0117129 0)
(0.377356 -0.0132789 0)
(0.41246 -3.19143e-05 0)
(0.412459 -7.41329e-05 0)
(0.412459 -9.61612e-05 0)
(0.412461 -0.000104059 0)
(0.412464 -0.000106778 0)
(0.412466 -0.000111408 0)
(0.412466 -0.000125861 0)
(0.412465 -0.00016728 0)
(0.412458 -0.000247553 0)
(0.412441 -0.000375702 0)
(0.412408 -0.000557934 0)
(0.412356 -0.000796857 0)
(0.412277 -0.00109148 0)
(0.412163 -0.00143782 0)
(0.412007 -0.00182965 0)
(0.411798 -0.00225929 0)
(0.411524 -0.00271815 0)
(0.41117 -0.00319724 0)
(0.410717 -0.00368743 0)
(0.410138 -0.00417953 0)
(0.4094 -0.00466401 0)
(0.408458 -0.00513045 0)
(0.407248 -0.00556639 0)
(0.405688 -0.00595581 0)
(0.40366 -0.00627701 0)
(0.400996 -0.00650004 0)
(0.397488 -0.00658298 0)
(0.392727 -0.00646816 0)
(0.386501 -0.00607387 0)
(0.377132 -0.00529397 0)
(0.41246 -3.15723e-05 0)
(0.412459 -7.38834e-05 0)
(0.412459 -9.68412e-05 0)
(0.412461 -0.000105837 0)
(0.412464 -0.000108525 0)
(0.412467 -0.000112643 0)
(0.412469 -0.000126187 0)
(0.412469 -0.000164531 0)
(0.412462 -0.000238612 0)
(0.412445 -0.000357044 0)
(0.412412 -0.000525495 0)
(0.412357 -0.000745991 0)
(0.412273 -0.00101692 0)
(0.412152 -0.00133357 0)
(0.411985 -0.00168881 0)
(0.411764 -0.00207366 0)
(0.411476 -0.00247778 0)
(0.411107 -0.00288961 0)
(0.410639 -0.00329643 0)
(0.410049 -0.00368395 0)
(0.409307 -0.00403555 0)
(0.408371 -0.00433081 0)
(0.407184 -0.00454328 0)
(0.405671 -0.00463724 0)
(0.403726 -0.00456295 0)
(0.401193 -0.0042498 0)
(0.397887 -0.00359919 0)
(0.393431 -0.00245402 0)
(0.387635 -0.000648729 0)
(0.378991 0.00237498 0)
(0.41246 -3.11765e-05 0)
(0.412459 -7.37175e-05 0)
(0.412459 -9.77032e-05 0)
(0.412462 -0.000107937 0)
(0.412466 -0.000110979 0)
(0.41247 -0.000114859 0)
(0.412474 -0.000127687 0)
(0.412476 -0.000162839 0)
(0.412471 -0.00023044 0)
(0.412455 -0.000338563 0)
(0.412423 -0.000492278 0)
(0.412367 -0.000693062 0)
(0.41228 -0.000938789 0)
(0.412155 -0.00122419 0)
(0.411983 -0.00154143 0)
(0.411755 -0.0018806 0)
(0.41146 -0.0022299 0)
(0.411087 -0.00257572 0)
(0.410619 -0.00290228 0)
(0.410037 -0.00319099 0)
(0.409315 -0.00341902 0)
(0.408419 -0.00355729 0)
(0.407301 -0.00356708 0)
(0.405898 -0.00339546 0)
(0.404121 -0.00296816 0)
(0.401843 -0.0021794 0)
(0.398911 -0.000874112 0)
(0.395022 0.00117254 0)
(0.390006 0.00420402 0)
(0.382725 0.00914673 0)
(0.41246 -3.0837e-05 0)
(0.41246 -7.39196e-05 0)
(0.41246 -9.91577e-05 0)
(0.412464 -0.000110697 0)
(0.41247 -0.000114556 0)
(0.412476 -0.000118333 0)
(0.412482 -0.000130783 0)
(0.412486 -0.000162689 0)
(0.412484 -0.000223688 0)
(0.41247 -0.000321139 0)
(0.412439 -0.000459469 0)
(0.412384 -0.000639656 0)
(0.412297 -0.000859183 0)
(0.412171 -0.00111242 0)
(0.411997 -0.00139112 0)
(0.411768 -0.00168477 0)
(0.411474 -0.00198064 0)
(0.411106 -0.0022636 0)
(0.41065 -0.00251566 0)
(0.410091 -0.00271486 0)
(0.409412 -0.00283361 0)
(0.408584 -0.00283597 0)
(0.407574 -0.00267362 0)
(0.406333 -0.00228005 0)
(0.404799 -0.00156301 0)
(0.402882 -0.000381129 0)
(0.400464 0.00144144 0)
(0.39734 0.00419408 0)
(0.393378 0.00817398 0)
(0.387949 0.0145446 0)
(0.41246 -3.06917e-05 0)
(0.41246 -7.48131e-05 0)
(0.412463 -0.000101656 0)
(0.412468 -0.000114623 0)
(0.412476 -0.000119469 0)
(0.412484 -0.000123647 0)
(0.412493 -0.00013551 0)
(0.4125 -0.000164382 0)
(0.412501 -0.000218881 0)
(0.41249 -0.000305571 0)
(0.412462 -0.000428233 0)
(0.412409 -0.00058743 0)
(0.412324 -0.00078042 0)
(0.412199 -0.00100144 0)
(0.412027 -0.00124214 0)
(0.411801 -0.00149182 0)
(0.411514 -0.00173732 0)
(0.411157 -0.00196272 0)
(0.410723 -0.00214866 0)
(0.410202 -0.00227109 0)
(0.40958 -0.0022993 0)
(0.408844 -0.00219281 0)
(0.40797 -0.00189686 0)
(0.406931 -0.00133562 0)
(0.405697 -0.000401545 0)
(0.40421 0.00104927 0)
(0.402397 0.00322198 0)
(0.400185 0.00644996 0)
(0.397456 0.0110519 0)
(0.394157 0.0182617 0)
(0.41246 -3.09764e-05 0)
(0.412462 -7.6983e-05 0)
(0.412467 -0.000105731 0)
(0.412475 -0.000120065 0)
(0.412485 -0.000126089 0)
(0.412496 -0.000131088 0)
(0.412508 -0.000142477 0)
(0.412517 -0.000168255 0)
(0.412522 -0.000216047 0)
(0.412515 -0.000291612 0)
(0.41249 -0.000398074 0)
(0.41244 -0.000535659 0)
(0.412358 -0.000701545 0)
(0.412237 -0.00089004 0)
(0.412069 -0.00109305 0)
(0.41185 -0.00130021 0)
(0.411573 -0.00149854 0)
(0.411235 -0.00167209 0)
(0.410829 -0.00180118 0)
(0.410353 -0.00186103 0)
(0.409802 -0.00181964 0)
(0.40917 -0.00163466 0)
(0.408452 -0.00124854 0)
(0.407643 -0.000582472 0)
(0.40673 0.000477862 0)
(0.405708 0.00207397 0)
(0.404565 0.00443145 0)
(0.40333 0.00787849 0)
(0.401906 0.0127426 0)
(0.400797 0.0201771 0)
(0.412461 -3.21094e-05 0)
(0.412464 -8.13558e-05 0)
(0.412474 -0.000112007 0)
(0.412486 -0.000127121 0)
(0.412499 -0.000134213 0)
(0.412512 -0.000140588 0)
(0.412527 -0.000152488 0)
(0.41254 -0.000176407 0)
(0.412548 -0.000218657 0)
(0.412545 -0.000283999 0)
(0.412524 -0.000375014 0)
(0.412478 -0.000491855 0)
(0.412401 -0.000631829 0)
(0.412284 -0.000789465 0)
(0.412123 -0.000957196 0)
(0.411913 -0.00112538 0)
(0.411649 -0.00128178 0)
(0.411331 -0.00141117 0)
(0.410959 -0.00149459 0)
(0.410532 -0.00150794 0)
(0.410056 -0.0014199 0)
(0.409535 -0.0011889 0)
(0.408979 -0.000758613 0)
(0.408404 -5.17767e-05 0)
(0.407826 0.00103614 0)
(0.40728 0.00266043 0)
(0.406802 0.00502357 0)
(0.406532 0.00843163 0)
(0.406388 0.0132085 0)
(0.407349 0.0203009 0)
(0.412462 -3.48579e-05 0)
(0.412469 -8.96868e-05 0)
(0.412485 -0.000121781 0)
(0.412503 -0.000136386 0)
(0.412518 -0.000143294 0)
(0.412533 -0.000149237 0)
(0.41255 -0.000159245 0)
(0.412567 -0.000179245 0)
(0.412578 -0.000214634 0)
(0.41258 -0.00026865 0)
(0.412563 -0.000342998 0)
(0.412521 -0.000437842 0)
(0.412449 -0.000550645 0)
(0.412338 -0.000676349 0)
(0.412184 -0.000808617 0)
(0.411983 -0.00093921 0)
(0.411734 -0.00105712 0)
(0.411438 -0.00114865 0)
(0.411099 -0.00119656 0)
(0.410723 -0.00117872 0)
(0.410321 -0.00106626 0)
(0.409909 -0.00082085 0)
(0.40951 -0.000390953 0)
(0.409158 0.000295063 0)
(0.408897 0.00133 0)
(0.408803 0.00285428 0)
(0.408952 0.0050527 0)
(0.409571 0.00818697 0)
(0.410602 0.0125605 0)
(0.413372 0.0188264 0)
(0.412463 -4.03605e-05 0)
(0.412479 -0.000103603 0)
(0.412506 -0.000137587 0)
(0.41253 -0.000153802 0)
(0.412549 -0.00016446 0)
(0.412567 -0.000174661 0)
(0.412586 -0.00018741 0)
(0.412606 -0.000206826 0)
(0.412621 -0.000237391 0)
(0.412626 -0.000281594 0)
(0.412614 -0.000340566 0)
(0.412577 -0.000415532 0)
(0.41251 -0.000504509 0)
(0.412405 -0.00060172 0)
(0.412258 -0.000701864 0)
(0.412067 -0.00079903 0)
(0.411832 -0.000883953 0)
(0.411557 -0.00094499 0)
(0.411249 -0.000967604 0)
(0.410919 -0.000932982 0)
(0.410586 -0.000816466 0)
(0.410273 -0.000585528 0)
(0.410016 -0.000197321 0)
(0.409865 0.000407121 0)
(0.409886 0.00131019 0)
(0.41019 0.00262761 0)
(0.410886 0.00451647 0)
(0.412266 0.00718206 0)
(0.414298 0.0108938 0)
(0.41854 0.01595 0)
(0.412467 -5.41582e-05 0)
(0.412496 -0.000114936 0)
(0.412537 -0.000135764 0)
(0.412566 -0.000146505 0)
(0.412586 -0.000155101 0)
(0.412606 -0.000163387 0)
(0.41263 -0.000173125 0)
(0.412653 -0.000190155 0)
(0.412672 -0.000216336 0)
(0.412678 -0.000250778 0)
(0.412672 -0.000294293 0)
(0.412643 -0.000346974 0)
(0.412579 -0.00040762 0)
(0.41248 -0.000473965 0)
(0.41234 -0.00054213 0)
(0.412158 -0.000606683 0)
(0.411938 -0.000661244 0)
(0.411683 -0.000697437 0)
(0.411405 -0.000704013 0)
(0.411119 -0.000666101 0)
(0.410847 -0.000564009 0)
(0.41062 -0.00037164 0)
(0.410483 -5.56689e-05 0)
(0.4105 0.000424396 0)
(0.41076 0.0011296 0)
(0.411395 0.00214551 0)
(0.412547 0.00359311 0)
(0.414531 0.00562862 0)
(0.417349 0.00845544 0)
(0.422668 0.0120447 0)
(0.412478 -9.68701e-05 0)
(0.412547 -0.000213209 0)
(0.41263 -0.000212425 0)
(0.412657 -0.000213531 0)
(0.412675 -0.000219549 0)
(0.412693 -0.000227959 0)
(0.412708 -0.000238642 0)
(0.412715 -0.000252752 0)
(0.412711 -0.000271223 0)
(0.412692 -0.000295389 0)
(0.412655 -0.000325465 0)
(0.412595 -0.000359792 0)
(0.412508 -0.000399505 0)
(0.412391 -0.00043755 0)
(0.412241 -0.000474691 0)
(0.412058 -0.000512816 0)
(0.411842 -0.00054326 0)
(0.411602 -0.000560956 0)
(0.411347 -0.00055928 0)
(0.411097 -0.000529039 0)
(0.41088 -0.000457806 0)
(0.410736 -0.000328743 0)
(0.410724 -0.000119228 0)
(0.410908 0.000201262 0)
(0.411369 0.000672231 0)
(0.412213 0.00134825 0)
(0.413593 0.00230139 0)
(0.415927 0.00362139 0)
(0.419382 0.00547366 0)
(0.424826 0.00744972 0)
(0.412279 -6.79837e-05 0)
(0.412154 -0.000130697 0)
(0.411935 -0.00015318 0)
(0.411667 -0.000161554 0)
(0.411394 -0.000167504 0)
(0.411124 -0.000171674 0)
(0.410849 -0.000175002 0)
(0.410564 -0.000179403 0)
(0.410263 -0.000186313 0)
(0.409943 -0.000196247 0)
(0.409597 -0.000209147 0)
(0.40922 -0.000224345 0)
(0.408807 -0.000241142 0)
(0.408356 -0.000259661 0)
(0.407867 -0.000277839 0)
(0.407341 -0.000293047 0)
(0.406783 -0.000304285 0)
(0.406203 -0.000310189 0)
(0.405616 -0.000308547 0)
(0.405043 -0.00029653 0)
(0.404516 -0.000270514 0)
(0.404078 -0.00022414 0)
(0.403791 -0.00014995 0)
(0.403745 -3.78889e-05 0)
(0.404066 0.000134529 0)
(0.40493 0.00039698 0)
(0.406554 0.000752111 0)
(0.409218 0.00121803 0)
(0.413309 0.00195301 0)
(0.420372 0.00237141 0)
(0.449596 -0.00435668 -1.10013e-19)
(0.452726 -0.00652901 -1.10634e-19)
(0.455315 -0.00915941 -1.57567e-18)
(0.457205 -0.0120603 -4.55552e-19)
(0.458738 -0.0151811 4.6288e-19)
(0.460112 -0.0185091 0)
(0.461282 -0.0220444 0)
(0.462277 -0.0258073 4.82692e-19)
(0.463162 -0.0298255 -4.91605e-19)
(0.463982 -0.0341243 -9.96767e-19)
(0.464754 -0.0387291 1.01611e-18)
(0.465474 -0.0436708 0)
(0.46613 -0.0489898 -1.04893e-18)
(0.466712 -0.0547385 1.07088e-18)
(0.467211 -0.0609826 0)
(0.467622 -0.0678037 2.21095e-18)
(0.467937 -0.0753019 1.12798e-18)
(0.468147 -0.0836005 1.13922e-18)
(0.46824 -0.0928532 1.17046e-18)
(0.468192 -0.103253 1.17869e-18)
(0.467973 -0.115048 -1.2128e-18)
(0.467541 -0.128557 3.70325e-18)
(0.466821 -0.1442 0)
(0.465742 -0.162521 -2.52571e-18)
(0.464062 -0.184314 1.2755e-18)
(0.46177 -0.210462 -2.5889e-18)
(0.457839 -0.242577 -3.84993e-18)
(0.452542 -0.283529 0)
(0.444423 -0.326321 0)
(0.425585 -0.420854 -5.29194e-19)
(0.453137 -0.00967191 -1.79552e-18)
(0.454857 -0.0120544 0)
(0.456146 -0.0149037 0)
(0.457017 -0.0179646 -1.87057e-18)
(0.457869 -0.0211842 1.8995e-18)
(0.458532 -0.0245866 1.9297e-18)
(0.459197 -0.0282013 -4.88638e-19)
(0.459825 -0.032052 4.97812e-19)
(0.460415 -0.0361574 1.52376e-18)
(0.460963 -0.040537 2.58049e-18)
(0.461451 -0.0452173 -1.04683e-18)
(0.461854 -0.050235 2.1453e-18)
(0.462152 -0.0556378 1.08893e-18)
(0.462334 -0.061484 1.12067e-18)
(0.462389 -0.0678429 1.13276e-18)
(0.462306 -0.0747973 2.32229e-18)
(0.462068 -0.0824468 0)
(0.461648 -0.090914 -1.20219e-18)
(0.461012 -0.100351 -1.24663e-18)
(0.460113 -0.110947 0)
(0.458885 -0.122945 1.28128e-18)
(0.457244 -0.136651 1.33709e-18)
(0.45506 -0.152466 -2.71507e-18)
(0.452178 -0.170897 0)
(0.448259 -0.192676 1.38272e-18)
(0.443163 -0.21856 1.46108e-18)
(0.435556 -0.25019 -2.93526e-18)
(0.426182 -0.288771 1.40332e-18)
(0.411411 -0.332538 -1.46937e-18)
(0.387291 -0.416334 6.58916e-19)
(0.45173 -0.0146296 1.82944e-18)
(0.452677 -0.0169822 0)
(0.453409 -0.0198052 -2.35389e-19)
(0.454077 -0.0228674 4.07092e-18)
(0.454713 -0.0261083 -1.45642e-18)
(0.455327 -0.0295355 -2.9635e-18)
(0.455899 -0.0331754 2.52238e-18)
(0.456396 -0.0370447 -5.11605e-19)
(0.456797 -0.0411595 -1.55771e-18)
(0.457091 -0.0455455 -5.15307e-19)
(0.457268 -0.050239 5.41981e-19)
(0.457315 -0.0552839 -3.3057e-18)
(0.457223 -0.0607301 2.25576e-18)
(0.456983 -0.0666341 -3.44638e-18)
(0.456578 -0.0730625 0)
(0.455984 -0.0800954 -2.39512e-18)
(0.455169 -0.0878307 0)
(0.454089 -0.0963888 0)
(0.45269 -0.105918 2.56708e-18)
(0.450901 -0.116603 0)
(0.448627 -0.128675 0)
(0.445742 -0.142423 -2.76372e-18)
(0.442065 -0.158222 2.83415e-18)
(0.437369 -0.176539 0)
(0.431234 -0.198031 0)
(0.423386 -0.223363 -3.04945e-18)
(0.412326 -0.254047 1.4241e-18)
(0.398984 -0.290417 -8.4803e-19)
(0.377668 -0.334129 -8.44278e-19)
(0.349053 -0.407369 0)
(0.450021 -0.0198121 -5.84457e-20)
(0.450658 -0.0222427 -5.93252e-20)
(0.45112 -0.0251032 1.81821e-18)
(0.451604 -0.0281791 -3.93289e-18)
(0.452062 -0.0314221 2.50185e-19)
(0.45243 -0.0348461 5.08669e-19)
(0.452688 -0.0384782 -5.04051e-19)
(0.452835 -0.0423415 0)
(0.452867 -0.04646 2.7026e-18)
(0.452778 -0.050864 -4.94861e-18)
(0.45256 -0.0555895 2.25634e-18)
(0.452199 -0.0606763 1.14651e-18)
(0.451676 -0.0661696 -3.5324e-18)
(0.45097 -0.072123 0)
(0.450048 -0.0786019 0)
(0.448875 -0.0856855 2.53818e-18)
(0.447405 -0.0934702 2.60559e-18)
(0.44558 -0.102072 1.32672e-18)
(0.443327 -0.111634 -7.44544e-22)
(0.440552 -0.122328 -1.40412e-18)
(0.437131 -0.13437 0)
(0.432899 -0.148026 0)
(0.427628 -0.163633 -1.58741e-18)
(0.421027 -0.181607 -4.8352e-18)
(0.41261 -0.202518 0)
(0.401987 -0.226924 -1.79389e-18)
(0.387565 -0.256135 3.45825e-18)
(0.370356 -0.290008 -6.59169e-18)
(0.34287 -0.331841 9.74352e-19)
(0.311189 -0.394406 0)
(0.447587 -0.0248247 0)
(0.447903 -0.027266 1.95687e-18)
(0.44803 -0.0301015 -1.73278e-18)
(0.44823 -0.0331505 1.76352e-18)
(0.448409 -0.0363783 2.57367e-19)
(0.44847 -0.0398009 -2.62489e-19)
(0.448404 -0.0434416 -2.13288e-18)
(0.448222 -0.0473208 0)
(0.447921 -0.0514601 2.12416e-20)
(0.447482 -0.0558864 2.26955e-18)
(0.446886 -0.0606324 -2.90333e-18)
(0.44611 -0.065736 2.99886e-18)
(0.44513 -0.0712427 3.0426e-18)
(0.443913 -0.0772065 -6.26754e-19)
(0.442422 -0.0836921 3.88116e-18)
(0.440613 -0.0907765 -2.60294e-18)
(0.438427 -0.0985506 -2.72382e-18)
(0.435795 -0.107123 -1.40035e-18)
(0.432625 -0.116625 0)
(0.428801 -0.127216 0)
(0.42417 -0.139088 0)
(0.418533 -0.15248 1.60272e-18)
(0.411624 -0.167685 4.99915e-18)
(0.403098 -0.18506 1.67845e-18)
(0.392422 -0.205077 3.62065e-18)
(0.379106 -0.228186 -2.0571e-18)
(0.361541 -0.255468 4.09261e-18)
(0.340663 -0.286481 -2.35975e-19)
(0.307813 -0.325188 3.52119e-18)
(0.274162 -0.377487 6.15007e-18)
(0.444456 -0.0296375 -1.9754e-18)
(0.444468 -0.0320966 -1.99935e-18)
(0.444273 -0.0349292 -2.05355e-18)
(0.444191 -0.0379752 0)
(0.444093 -0.0412039 0)
(0.443853 -0.0446276 -2.18011e-18)
(0.443462 -0.0482658 0)
(0.442935 -0.0521376 1.71103e-18)
(0.442264 -0.056265 -4.05533e-18)
(0.441424 -0.0606754 2.38604e-18)
(0.440391 -0.0654019 1.83811e-18)
(0.439139 -0.0704827 -4.98541e-18)
(0.437639 -0.075962 -7.4956e-22)
(0.435853 -0.0818915 -1.99327e-18)
(0.433737 -0.0883314 4.4655e-20)
(0.431235 -0.0953524 -2.76302e-18)
(0.428278 -0.103038 -5.48161e-20)
(0.424781 -0.111486 3.00287e-18)
(0.420635 -0.120815 -1.57136e-18)
(0.415704 -0.131166 -1.59218e-18)
(0.409812 -0.142707 3.3616e-18)
(0.402733 -0.155641 0)
(0.394167 -0.170213 -3.55869e-18)
(0.383729 -0.186712 0)
(0.370858 -0.205512 -4.07048e-18)
(0.354979 -0.226951 4.1382e-18)
(0.334538 -0.251857 2.14155e-19)
(0.310288 -0.27961 4.69863e-18)
(0.273069 -0.314154 -6.36366e-18)
(0.238376 -0.356731 1.84978e-18)
(0.440576 -0.0341689 1.95511e-18)
(0.440275 -0.0366362 -6.46689e-20)
(0.439743 -0.0394529 2.49692e-18)
(0.439354 -0.042476 8.13231e-19)
(0.438949 -0.0456787 0)
(0.438376 -0.0490728 2.23623e-18)
(0.437624 -0.0526773 1.73128e-18)
(0.436713 -0.0565115 -2.92812e-18)
(0.435634 -0.0605976 1.18297e-18)
(0.434358 -0.0649619 -1.21171e-18)
(0.432854 -0.0696355 -2.52105e-18)
(0.431093 -0.0746536 2.58962e-18)
(0.429039 -0.080057 -6.817e-19)
(0.426649 -0.0858925 2.05174e-18)
(0.423868 -0.0922149 -6.73296e-19)
(0.420632 -0.0990878 -7.35443e-19)
(0.416861 -0.106586 4.56079e-18)
(0.412456 -0.114795 -4.72809e-18)
(0.407297 -0.123818 3.24813e-18)
(0.401229 -0.133773 8.76597e-19)
(0.394058 -0.1448 -2.63612e-18)
(0.385536 -0.157065 1.90251e-18)
(0.375341 -0.170758 0)
(0.363061 -0.186101 -1.04465e-18)
(0.348121 -0.203364 5.43579e-18)
(0.329891 -0.222776 0)
(0.306921 -0.244904 -8.84302e-18)
(0.279712 -0.269047 1.3753e-18)
(0.239258 -0.298683 0)
(0.204066 -0.332301 -6.54206e-18)
(0.435889 -0.0382826 -1.04955e-18)
(0.435263 -0.0407451 -1.3348e-19)
(0.434381 -0.0435279 -8.24525e-19)
(0.433665 -0.0465063 -1.24884e-18)
(0.432931 -0.0496585 2.85209e-19)