/*--------------------------------*- C++ -*----------------------------------*\
  =========                 |
  \\      /  F ield         | OpenFOAM: The Open Source CFD Toolbox
   \\    /   O peration     | Website:  https://openfoam.org
    \\  /    A nd           | Version:  11
     \\/     M anipulation  |
\*---------------------------------------------------------------------------*/
FoamFile
{
    format      ascii;
    class       surfaceScalarField;
    location    "1.9";
    object      phi;
}
// * * * * * * * * * * * * * * * * * * * * * * * * * * * * * * * * * * * * * //

dimensions      [0 3 -1 0 0 0 0];

internalField   nonuniform List<scalar> 
24840
(
1.53199e-05
1.3453e-08
1.5302e-05
1.78759e-08
1.52856e-05
1.63794e-08
1.52699e-05
1.57603e-08
1.52544e-05
1.54302e-08
1.52396e-05
1.48295e-08
1.52257e-05
1.38799e-08
1.52131e-05
1.25908e-08
1.52021e-05
1.10788e-08
1.51928e-05
9.2577e-09
1.51859e-05
6.93818e-09
1.51817e-05
4.20649e-09
1.51807e-05
9.53371e-10
1.51838e-05
-3.06111e-09
1.51918e-05
-7.9962e-09
1.52058e-05
-1.4042e-08
1.52274e-05
-2.15629e-08
1.52579e-05
-3.05729e-08
1.52998e-05
-4.18974e-08
1.53563e-05
-5.6479e-08
1.54294e-05
-7.30669e-08
1.55224e-05
-9.30443e-08
1.56416e-05
-1.19137e-07
1.57932e-05
-1.51662e-07
1.59849e-05
-1.9168e-07
1.62255e-05
-2.40581e-07
1.65264e-05
-3.00895e-07
1.68963e-05
-3.69956e-07
1.73703e-05
-4.74015e-07
-4.91398e-07
1.78617e-05
1.53395e-05
7.31295e-09
1.53436e-05
1.37428e-08
1.53472e-05
1.27551e-08
1.53508e-05
1.21794e-08
1.53547e-05
1.15205e-08
1.53592e-05
1.0319e-08
1.53646e-05
8.50544e-09
1.53712e-05
6.04343e-09
1.53791e-05
3.16658e-09
1.53886e-05
-3.1572e-10
1.54003e-05
-4.6944e-09
1.54143e-05
-9.81197e-09
1.54312e-05
-1.59614e-08
1.54515e-05
-2.33935e-08
1.54759e-05
-3.23971e-08
1.55052e-05
-4.33516e-08
1.55401e-05
-5.64324e-08
1.55823e-05
-7.27135e-08
1.5633e-05
-9.26508e-08
1.56926e-05
-1.16094e-07
1.57666e-05
-1.47031e-07
1.58612e-05
-1.87641e-07
1.59791e-05
-2.37095e-07
1.61247e-05
-2.97218e-07
1.6304e-05
-3.70983e-07
1.65252e-05
-4.6175e-07
1.67984e-05
-5.74084e-07
1.7136e-05
-7.07575e-07
1.75532e-05
-8.9119e-07
-1.0047e-06
1.80665e-05
1.53362e-05
4.43335e-09
1.534e-05
9.95734e-09
1.53428e-05
9.90653e-09
1.53461e-05
8.88914e-09
1.53498e-05
7.84898e-09
1.53539e-05
6.191e-09
1.53588e-05
3.64288e-09
1.53647e-05
9.51543e-11
1.53719e-05
-4.02725e-09
1.53808e-05
-9.20498e-09
1.53916e-05
-1.54979e-08
1.54048e-05
-2.29884e-08
1.54208e-05
-3.19607e-08
1.54402e-05
-4.27623e-08
1.54636e-05
-5.58155e-08
1.54919e-05
-7.16744e-08
1.55264e-05
-9.08817e-08
1.55681e-05
-1.14483e-07
1.56191e-05
-1.43576e-07
1.56819e-05
-1.78954e-07
1.57585e-05
-2.23571e-07
1.58512e-05
-2.80426e-07
1.59649e-05
-3.50761e-07
1.61048e-05
-4.37094e-07
1.62774e-05
-5.43629e-07
1.64909e-05
-6.75194e-07
1.67555e-05
-8.38698e-07
1.7083e-05
-1.03511e-06
1.749e-05
-1.29814e-06
-1.51617e-06
1.80014e-05
1.5335e-05
2.71826e-09
1.53383e-05
6.71447e-09
1.53411e-05
7.12004e-09
1.5344e-05
5.93063e-09
1.53475e-05
4.39214e-09
1.53515e-05
2.18499e-09
1.53562e-05
-1.10469e-09
1.53619e-05
-5.57323e-09
1.53689e-05
-1.10434e-08
1.53775e-05
-1.77905e-08
1.5388e-05
-2.59567e-08
1.54007e-05
-3.57264e-08
1.54162e-05
-4.74171e-08
1.54349e-05
-6.14722e-08
1.54575e-05
-7.84506e-08
1.54849e-05
-9.90628e-08
1.55182e-05
-1.2413e-07
1.55585e-05
-1.54847e-07
1.56076e-05
-1.92671e-07
1.56678e-05
-2.3911e-07
1.57412e-05
-2.97033e-07
1.58307e-05
-3.69853e-07
1.59401e-05
-4.60213e-07
1.60747e-05
-5.71691e-07
1.62408e-05
-7.09685e-07
1.64461e-05
-8.80572e-07
1.67008e-05
-1.09335e-06
1.70173e-05
-1.35162e-06
1.74096e-05
-1.69045e-06
-2.0155e-06
1.79089e-05
1.53344e-05
1.6055e-09
1.5337e-05
4.19795e-09
1.53395e-05
4.53832e-09
1.53423e-05
3.21586e-09
1.53455e-05
1.16021e-09
1.53493e-05
-1.6627e-09
1.53539e-05
-5.67821e-09
1.53594e-05
-1.10649e-08
1.53661e-05
-1.77891e-08
1.53744e-05
-2.60303e-08
1.53844e-05
-3.59942e-08
1.53966e-05
-4.79284e-08
1.54114e-05
-6.2207e-08
1.54293e-05
-7.93617e-08
1.54509e-05
-1.00075e-07
1.54771e-05
-1.25209e-07
1.55088e-05
-1.55816e-07
1.55472e-05
-1.9329e-07
1.55939e-05
-2.39395e-07
1.5651e-05
-2.96194e-07
1.57207e-05
-3.66717e-07
1.58056e-05
-4.54731e-07
1.59094e-05
-5.64019e-07
1.6037e-05
-6.99292e-07
1.61944e-05
-8.67084e-07
1.63891e-05
-1.0753e-06
1.66306e-05
-1.33485e-06
1.69316e-05
-1.65258e-06
1.73046e-05
-2.06352e-06
-2.49331e-06
1.77825e-05
1.53341e-05
8.25261e-10
1.53361e-05
2.21503e-09
1.53385e-05
2.16616e-09
1.53411e-05
6.21527e-10
1.53441e-05
-1.8803e-09
1.53477e-05
-5.30945e-09
1.53521e-05
-1.00317e-08
1.53573e-05
-1.63011e-08
1.53637e-05
-2.41855e-08
1.53715e-05
-3.38398e-08
1.5381e-05
-4.54987e-08
1.53926e-05
-5.94636e-08
1.54065e-05
-7.61708e-08
1.54234e-05
-9.62334e-08
1.54438e-05
-1.20448e-07
1.54684e-05
-1.4982e-07
1.54982e-05
-1.856e-07
1.55343e-05
-2.29391e-07
1.55781e-05
-2.83228e-07
1.56315e-05
-3.49597e-07
1.56966e-05
-4.31809e-07
1.57759e-05
-5.34034e-07
1.58729e-05
-6.60967e-07
1.59919e-05
-8.18359e-07
1.61387e-05
-1.01384e-06
1.63202e-05
-1.25681e-06
1.65454e-05
-1.56001e-06
1.68265e-05
-1.93369e-06
1.71754e-05
-2.41244e-06
-2.94344e-06
1.76255e-05
1.53339e-05
2.33996e-10
1.53355e-05
6.0835e-10
1.53377e-05
3.99052e-11
1.53401e-05
-1.79452e-09
1.53429e-05
-4.71065e-09
1.53463e-05
-8.71584e-09
1.53504e-05
-1.41238e-08
1.53553e-05
-2.12305e-08
1.53613e-05
-3.01845e-08
1.53686e-05
-4.11518e-08
1.53775e-05
-5.43837e-08
1.53883e-05
-7.0227e-08
1.54013e-05
-8.91768e-08
1.5417e-05
-1.11923e-07
1.54359e-05
-1.39364e-07
1.54587e-05
-1.7264e-07
1.54863e-05
-2.13172e-07
1.55197e-05
-2.62758e-07
1.55601e-05
-3.23675e-07
1.56093e-05
-3.98755e-07
1.56691e-05
-4.9163e-07
1.57419e-05
-6.06869e-07
1.58309e-05
-7.49905e-07
1.59399e-05
-9.2742e-07
1.60742e-05
-1.14809e-06
1.62401e-05
-1.42271e-06
1.64458e-05
-1.76575e-06
1.6703e-05
-2.1909e-06
1.70228e-05
-2.73221e-06
-3.35947e-06
1.74388e-05
1.53338e-05
-2.41365e-10
1.53351e-05
-7.21902e-10
1.5337e-05
-1.84089e-09
1.53393e-05
-4.02678e-09
1.53419e-05
-7.34104e-09
1.5345e-05
-1.18761e-08
1.53488e-05
-1.79272e-08
1.53534e-05
-2.5813e-08
1.5359e-05
-3.57421e-08
1.53657e-05
-4.79049e-08
1.53739e-05
-6.25687e-08
1.53838e-05
-8.01173e-08
1.53957e-05
-1.011e-07
1.54101e-05
-1.26274e-07
1.54274e-05
-1.56633e-07
1.54481e-05
-1.93433e-07
1.54732e-05
-2.38241e-07
1.55035e-05
-2.93034e-07
1.55401e-05
-3.60301e-07
1.55845e-05
-4.43157e-07
1.56384e-05
-5.45542e-07
1.5704e-05
-6.72399e-07
1.57838e-05
-8.29768e-07
1.58815e-05
-1.02513e-06
1.60016e-05
-1.26811e-06
1.61496e-05
-1.57078e-06
1.63331e-05
-1.94918e-06
1.65625e-05
-2.42031e-06
1.6848e-05
-3.01778e-06
-3.73445e-06
1.7223e-05
1.53337e-05
-6.38751e-10
1.53349e-05
-1.84472e-09
1.53365e-05
-3.5013e-09
1.53386e-05
-6.06359e-09
1.5341e-05
-9.75689e-09
1.53439e-05
-1.47718e-08
1.53473e-05
-2.14128e-08
1.53515e-05
-3.00101e-08
1.53566e-05
-4.08137e-08
1.53628e-05
-5.40418e-08
1.53702e-05
-6.99794e-08
1.53791e-05
-8.90412e-08
1.53898e-05
-1.11823e-07
1.54027e-05
-1.39146e-07
1.54181e-05
-1.72081e-07
1.54367e-05
-2.11985e-07
1.5459e-05
-2.60552e-07
1.54859e-05
-3.19907e-07
1.55183e-05
-3.92721e-07
1.55575e-05
-4.82342e-07
1.56049e-05
-5.92977e-07
1.56624e-05
-7.29898e-07
1.57323e-05
-8.99634e-07
1.58175e-05
-1.11032e-06
1.59218e-05
-1.3724e-06
1.605e-05
-1.69903e-06
1.62085e-05
-2.10765e-06
1.64065e-05
-2.61833e-06
1.66529e-05
-3.26423e-06
-4.06113e-06
1.69796e-05
1.53337e-05
-9.74595e-10
1.53346e-05
-2.80453e-09
1.53361e-05
-4.96088e-09
1.53379e-05
-7.90041e-09
1.53401e-05
-1.19541e-08
1.53428e-05
-1.74009e-08
1.53459e-05
-2.45681e-08
1.53497e-05
-3.37953e-08
1.53542e-05
-4.53614e-08
1.53597e-05
-5.95121e-08
1.53663e-05
-7.65508e-08
1.53742e-05
-9.69177e-08
1.53836e-05
-1.21248e-07
1.53949e-05
-1.50415e-07
1.54083e-05
-1.85557e-07
1.54245e-05
-2.28114e-07
1.54438e-05
-2.79882e-07
1.5467e-05
-3.43107e-07
1.54949e-05
-4.20608e-07
1.55284e-05
-5.15914e-07
1.55689e-05
-6.3345e-07
1.56178e-05
-7.78752e-07
1.56769e-05
-9.58723e-07
1.57485e-05
-1.18201e-06
1.58358e-05
-1.45967e-06
1.59425e-05
-1.80575e-06
1.60737e-05
-2.23884e-06
1.62371e-05
-2.78166e-06
1.64398e-05
-3.46694e-06
-4.33223e-06
1.67109e-05
1.53336e-05
-1.26072e-09
1.53344e-05
-3.63035e-09
1.53357e-05
-6.24102e-09
1.53374e-05
-9.54315e-09
1.53393e-05
-1.39321e-08
1.53417e-05
-1.97572e-08
1.53445e-05
-2.73764e-08
1.53479e-05
-3.71407e-08
1.53518e-05
-4.93498e-08
1.53566e-05
-6.42716e-08
1.53623e-05
-8.22269e-08
1.5369e-05
-1.03677e-07
1.53771e-05
-1.29289e-07
1.53866e-05
-1.59977e-07
1.5398e-05
-1.96935e-07
1.54116e-05
-2.41665e-07
1.54277e-05
-2.96043e-07
1.5447e-05
-3.62408e-07
1.54701e-05
-4.43689e-07
1.54977e-05
-5.43548e-07
1.55309e-05
-6.66565e-07
1.55706e-05
-8.18468e-07
1.56183e-05
-1.00641e-06
1.56757e-05
-1.23939e-06
1.57449e-05
-1.5289e-06
1.58287e-05
-1.88959e-06
1.59307e-05
-2.34086e-06
1.60566e-05
-2.90755e-06
1.62115e-05
-3.62179e-06
-4.54083e-06
1.64201e-05
1.53336e-05
-1.50613e-09
1.53343e-05
-4.3447e-09
1.53354e-05
-7.36171e-09
1.53369e-05
-1.09975e-08
1.53386e-05
-1.56871e-08
1.53407e-05
-2.18338e-08
1.53431e-05
-2.98259e-08
1.5346e-05
-4.00272e-08
1.53494e-05
-5.27517e-08
1.53535e-05
-6.8285e-08
1.53582e-05
-8.69629e-08
1.53638e-05
-1.09263e-07
1.53704e-05
-1.35876e-07
1.53781e-05
-1.67748e-07
1.53873e-05
-2.06111e-07
1.53982e-05
-2.52514e-07
1.5411e-05
-3.08888e-07
1.54262e-05
-3.77636e-07
1.54443e-05
-4.61756e-07
1.54657e-05
-5.64994e-07
1.54912e-05
-6.92026e-07
1.55214e-05
-8.48683e-07
1.55573e-05
-1.04226e-06
1.55998e-05
-1.28191e-06
1.56502e-05
-1.57936e-06
1.57102e-05
-1.94955e-06
1.57817e-05
-2.4123e-06
1.5868e-05
-2.99389e-06
1.59717e-05
-3.72549e-06
-4.6809e-06
1.61118e-05
1.53335e-05
-1.71763e-09
1.53342e-05
-4.96322e-09
1.53351e-05
-8.33834e-09
1.53364e-05
-1.22712e-08
1.53379e-05
-1.72202e-08
1.53397e-05
-2.36275e-08
1.53418e-05
-3.19088e-08
1.53442e-05
-4.24404e-08
1.5347e-05
-5.55466e-08
1.53503e-05
-7.15254e-08
1.5354e-05
-9.07242e-08
1.53584e-05
-1.13633e-07
1.53635e-05
-1.40957e-07
1.53694e-05
-1.73664e-07
1.53763e-05
-2.13009e-07
1.53844e-05
-2.60571e-07
1.53938e-05
-3.1831e-07
1.54048e-05
-3.88663e-07
1.54177e-05
-4.74662e-07
1.54328e-05
-5.80085e-07
1.54504e-05
-7.09636e-07
1.54709e-05
-8.69167e-07
1.54946e-05
-1.06598e-06
1.55219e-05
-1.30924e-06
1.55532e-05
-1.61064e-06
1.55888e-05
-1.9851e-06
1.56288e-05
-2.45237e-06
1.56743e-05
-3.03935e-06
1.57246e-05
-3.77581e-06
-4.74786e-06
1.57916e-05
1.53335e-05
-1.89998e-09
1.53341e-05
-5.49816e-09
1.53349e-05
-9.18494e-09
1.5336e-05
-1.33736e-08
1.53373e-05
-1.85344e-08
1.53388e-05
-2.51375e-08
1.53405e-05
-3.3621e-08
1.53425e-05
-4.4372e-08
1.53446e-05
-5.77211e-08
1.53471e-05
-7.39745e-08
1.53499e-05
-9.34874e-08
1.5353e-05
-1.16757e-07
1.53565e-05
-1.44496e-07
1.53605e-05
-1.77681e-07
1.53651e-05
-2.17578e-07
1.53703e-05
-2.65775e-07
1.53762e-05
-3.24241e-07
1.5383e-05
-3.95415e-07
1.53907e-05
-4.82325e-07
1.53993e-05
-5.88732e-07
1.5409e-05
-7.19304e-07
1.54196e-05
-8.79826e-07
1.54311e-05
-1.0775e-06
1.54432e-05
-1.3213e-06
1.54552e-05
-1.62266e-06
1.54663e-05
-1.99616e-06
1.54748e-05
-2.46092e-06
1.54791e-05
-3.04359e-06
1.54751e-05
-3.77187e-06
-4.73913e-06
1.54664e-05
1.53335e-05
-2.05708e-09
1.5334e-05
-5.96037e-09
1.53347e-05
-9.91477e-09
1.53356e-05
-1.43151e-08
1.53367e-05
-1.96356e-08
1.5338e-05
-2.63663e-08
1.53393e-05
-3.49626e-08
1.53407e-05
-4.58188e-08
1.53423e-05
-5.92689e-08
1.53439e-05
-7.56227e-08
1.53457e-05
-9.52398e-08
1.53476e-05
-1.18619e-07
1.53495e-05
-1.46473e-07
1.53516e-05
-1.79777e-07
1.53538e-05
-2.19793e-07
1.53562e-05
-2.68101e-07
1.53586e-05
-3.26654e-07
1.5361e-05
-3.97865e-07
1.53634e-05
-4.84723e-07
1.53656e-05
-5.90925e-07
1.53674e-05
-7.21038e-07
1.53682e-05
-8.80699e-07
1.53676e-05
-1.07688e-06
1.53646e-05
-1.31824e-06
1.53576e-05
-1.6157e-06
1.53446e-05
-1.98312e-06
1.53221e-05
-2.43851e-06
1.52859e-05
-3.00731e-06
1.52284e-05
-3.71438e-06
-4.65471e-06
1.51439e-05
1.53335e-05
-2.19262e-09
1.53339e-05
-6.36032e-09
1.53345e-05
-1.05412e-08
1.53353e-05
-1.51075e-08
1.53362e-05
-2.05322e-08
1.53371e-05
-2.73196e-08
1.53381e-05
-3.59375e-08
1.53391e-05
-4.67833e-08
1.534e-05
-6.01903e-08
1.53408e-05
-7.64693e-08
1.53416e-05
-9.59797e-08
1.53422e-05
-1.19217e-07
1.53426e-05
-1.46886e-07
1.53428e-05
-1.79951e-07
1.53426e-05
-2.19655e-07
1.53421e-05
-2.67553e-07
1.5341e-05
-3.2556e-07
1.53392e-05
-3.96038e-07
1.53363e-05
-4.81899e-07
1.53321e-05
-5.86732e-07
1.53261e-05
-7.14948e-07
1.53173e-05
-8.71958e-07
1.53048e-05
-1.06441e-06
1.52871e-05
-1.30047e-06
1.52617e-05
-1.59034e-06
1.52255e-05
-1.94686e-06
1.51734e-05
-2.38642e-06
1.50983e-05
-2.9323e-06
1.49897e-05
-3.60574e-06
-4.49752e-06
1.48325e-05
1.53335e-05
-2.31054e-09
1.53338e-05
-6.70911e-09
1.53343e-05
-1.10789e-08
1.5335e-05
-1.57643e-08
1.53357e-05
-2.12347e-08
1.53364e-05
-2.8006e-08
1.5337e-05
-3.65537e-08
1.53375e-05
-4.7273e-08
1.53378e-05
-6.04929e-08
1.53378e-05
-7.6522e-08
1.53376e-05
-9.57165e-08
1.53369e-05
-1.18563e-07
1.53358e-05
-1.45752e-07
1.53341e-05
-1.78224e-07
1.53316e-05
-2.17192e-07
1.53282e-05
-2.64168e-07
1.53237e-05
-3.21012e-07
1.53176e-05
-3.90006e-07
1.53097e-05
-4.73954e-07
1.52993e-05
-5.76296e-07
1.52855e-05
-7.01238e-07
1.52675e-05
-8.53894e-07
1.52436e-05
-1.04049e-06
1.52117e-05
-1.26859e-06
1.51688e-05
-1.54749e-06
1.51107e-05
-1.88871e-06
1.50309e-05
-2.30659e-06
1.492e-05
-2.82142e-06
1.47643e-05
-3.45011e-06
-4.27357e-06
1.45404e-05
1.53334e-05
-2.41538e-09
1.53337e-05
-7.01952e-09
1.53342e-05
-1.15442e-08
1.53348e-05
-1.63008e-08
1.53353e-05
-2.17556e-08
1.53357e-05
-2.8437e-08
1.5336e-05
-3.6823e-08
1.5336e-05
-4.73003e-08
1.53357e-05
-6.01904e-08
1.5335e-05
-7.57972e-08
1.53337e-05
-9.44702e-08
1.53318e-05
-1.16682e-07
1.53292e-05
-1.431e-07
1.53256e-05
-1.74634e-07
1.53209e-05
-2.12455e-07
1.53147e-05
-2.58014e-07
1.53068e-05
-3.13097e-07
1.52967e-05
-3.79883e-07
1.52838e-05
-4.61042e-07
1.52673e-05
-5.59828e-07
1.52463e-05
-6.80195e-07
1.52193e-05
-8.26908e-07
1.51845e-05
-1.00569e-06
1.51393e-05
-1.22341e-06
1.50801e-05
-1.48832e-06
1.50018e-05
-1.81039e-06
1.48968e-05
-2.20159e-06
1.47539e-05
-2.67852e-06
1.4557e-05
-3.2532e-06
-3.99187e-06
1.42753e-05
1.53334e-05
-2.51278e-09
1.53337e-05
-7.30723e-09
1.53341e-05
-1.19568e-08
1.53346e-05
-1.67341e-08
1.53349e-05
-2.21095e-08
1.53351e-05
-2.8627e-08
1.5335e-05
-3.67612e-08
1.53346e-05
-4.68832e-08
1.53337e-05
-5.9303e-08
1.53323e-05
-7.43192e-08
1.53301e-05
-9.22711e-08
1.5327e-05
-1.13611e-07
1.53229e-05
-1.38979e-07
1.53175e-05
-1.69243e-07
1.53105e-05
-2.05518e-07
1.53017e-05
-2.49186e-07
1.52906e-05
-3.01937e-07
1.52765e-05
-3.65829e-07
1.52588e-05
-4.43371e-07
1.52366e-05
-5.37603e-07
1.52086e-05
-6.52188e-07
1.51732e-05
-7.91498e-07
1.51282e-05
-9.60712e-07
1.50707e-05
-1.16591e-06
1.49966e-05
-1.41421e-06
1.49001e-05
-1.71392e-06
1.4773e-05
-2.07442e-06
1.46026e-05
-2.50818e-06
1.43715e-05
-3.02204e-06
-3.6639e-06
1.40435e-05
1.53334e-05
-2.61017e-09
1.53337e-05
-7.59239e-09
1.53341e-05
-1.234e-08
1.53344e-05
-1.70834e-08
1.53347e-05
-2.23125e-08
1.53346e-05
-2.85935e-08
1.53342e-05
-3.6388e-08
1.53334e-05
-4.60433e-08
1.5332e-05
-5.78569e-08
1.53298e-05
-7.21205e-08
1.53266e-05
-8.91595e-08
1.53224e-05
-1.09402e-07
1.53169e-05
-1.3345e-07
1.53098e-05
-1.62127e-07
1.53008e-05
-1.9648e-07
1.52894e-05
-2.37807e-07
1.52751e-05
-2.87688e-07
1.52573e-05
-3.48042e-07
1.52352e-05
-4.21194e-07
1.52075e-05
-5.09948e-07
1.5173e-05
-6.17648e-07
1.51297e-05
-7.48243e-07
1.50753e-05
-9.06328e-07
1.50066e-05
-1.09717e-06
1.49191e-05
-1.32672e-06
1.48067e-05
-1.60155e-06
1.46607e-05
-1.92844e-06
1.44681e-05
-2.31553e-06
1.42106e-05
-2.76455e-06
-3.30293e-06
1.38496e-05
1.53334e-05
-2.71787e-09
1.53338e-05
-7.90206e-09
1.53341e-05
-1.27221e-08
1.53344e-05
-1.73691e-08
1.53345e-05
-2.23822e-08
1.53342e-05
-2.83546e-08
1.53336e-05
-3.57233e-08
1.53323e-05
-4.48059e-08
1.53304e-05
-5.58855e-08
1.53275e-05
-6.92444e-08
1.53235e-05
-8.51882e-08
1.53182e-05
-1.04115e-07
1.53114e-05
-1.26591e-07
1.53026e-05
-1.53381e-07
1.52916e-05
-1.85459e-07
1.52778e-05
-2.24024e-07
1.52607e-05
-2.70535e-07
1.52394e-05
-3.26753e-07
1.5213e-05
-3.94807e-07
1.51803e-05
-4.77241e-07
1.51397e-05
-5.77066e-07
1.50893e-05
-6.97785e-07
1.50263e-05
-8.43399e-07
1.49475e-05
-1.01837e-06
1.48483e-05
-1.22747e-06
1.47223e-05
-1.47563e-06
1.4561e-05
-1.76713e-06
1.43514e-05
-2.1059e-06
1.40758e-05
-2.48898e-06
-2.92299e-06
1.36959e-05
1.53335e-05
-2.85104e-09
1.53338e-05
-8.27391e-09
1.53343e-05
-1.31368e-08
1.53345e-05
-1.76112e-08
1.53344e-05
-2.23341e-08
1.5334e-05
-2.79343e-08
1.53331e-05
-3.47989e-08
1.53315e-05
-4.32046e-08
1.5329e-05
-5.34266e-08
1.53255e-05
-6.57342e-08
1.53208e-05
-8.0411e-08
1.53145e-05
-9.78218e-08
1.53064e-05
-1.18488e-07
1.52961e-05
-1.43116e-07
1.52832e-05
-1.72592e-07
1.52672e-05
-2.08008e-07
1.52474e-05
-2.50688e-07
1.52228e-05
-3.02228e-07
1.51926e-05
-3.6454e-07
1.51552e-05
-4.399e-07
1.51091e-05
-5.30972e-07
1.50522e-05
-6.40812e-07
1.49816e-05
-7.72832e-07
1.48939e-05
-9.30706e-07
1.47846e-05
-1.11813e-06
1.46475e-05
-1.33849e-06
1.44742e-05
-1.59388e-06
1.42528e-05
-1.88445e-06
1.39671e-05
-2.20335e-06
-2.5378e-06
1.3582e-05
1.53335e-05
-3.03302e-09
1.5334e-05
-8.76255e-09
1.53345e-05
-1.36227e-08
1.53347e-05
-1.78271e-08
1.53346e-05
-2.2194e-08
1.5334e-05
-2.73621e-08
1.53328e-05
-3.364e-08
1.53309e-05
-4.12693e-08
1.5328e-05
-5.05176e-08
1.53239e-05
-6.16417e-08
1.53184e-05
-7.48962e-08
1.53112e-05
-9.06062e-08
1.53019e-05
-1.09249e-07
1.52903e-05
-1.31461e-07
1.52757e-05
-1.58037e-07
1.52577e-05
-1.89951e-07
1.52354e-05
-2.28385e-07
1.52079e-05
-2.74755e-07
1.51741e-05
-3.30754e-07
1.51326e-05
-3.98375e-07
1.50815e-05
-4.79933e-07
1.50188e-05
-5.78042e-07
1.49415e-05
-6.9555e-07
1.48462e-05
-8.35402e-07
1.47284e-05
-1.00032e-06
1.45822e-05
-1.19237e-06
1.44002e-05
-1.41187e-06
1.41717e-05
-1.6559e-06
1.38832e-05
-1.91486e-06
-2.15959e-06
1.3505e-05
1.53336e-05
-3.30286e-09
1.53343e-05
-9.44542e-09
1.53349e-05
-1.42199e-08
1.53351e-05
-1.80354e-08
1.53349e-05
-2.19853e-08
1.53342e-05
-2.66639e-08
1.53328e-05
-3.22743e-08
1.53306e-05
-3.90335e-08
1.53273e-05
-4.72041e-08
1.53227e-05
-5.7025e-08
1.53165e-05
-6.87156e-08
1.53084e-05
-8.25567e-08
1.52982e-05
-9.89817e-08
1.52852e-05
-1.18554e-07
1.52692e-05
-1.41963e-07
1.52493e-05
-1.70061e-07
1.52248e-05
-2.03881e-07
1.51947e-05
-2.44651e-07
1.51578e-05
-2.93834e-07
1.51125e-05
-3.53142e-07
1.50571e-05
-4.2454e-07
1.49893e-05
-5.10213e-07
1.49062e-05
-6.12482e-07
1.48045e-05
-7.33634e-07
1.46797e-05
-8.75569e-07
1.45266e-05
-1.03927e-06
1.43386e-05
-1.22384e-06
1.41069e-05
-1.42418e-06
1.38213e-05
-1.62934e-06
-1.79815e-06
1.34599e-05
1.53338e-05
-3.7335e-09
1.53348e-05
-1.04328e-08
1.53355e-05
-1.4951e-08
1.53357e-05
-1.82505e-08
1.53355e-05
-2.1747e-08
1.53347e-05
-2.58771e-08
1.53331e-05
-3.07365e-08
1.53306e-05
-3.654e-08
1.5327e-05
-4.35394e-08
1.53219e-05
-5.19514e-08
1.53151e-05
-6.19531e-08
1.53064e-05
-7.37751e-08
1.52952e-05
-8.78114e-08
1.52812e-05
-1.04544e-07
1.52638e-05
-1.24553e-07
1.52423e-05
-1.48563e-07
1.52158e-05
-1.77448e-07
1.51834e-05
-2.12246e-07
1.51438e-05
-2.54185e-07
1.50953e-05
-3.04692e-07
1.50362e-05
-3.65391e-07
1.4964e-05
-4.38056e-07
1.48761e-05
-5.24526e-07
1.47689e-05
-6.26515e-07
1.46386e-05
-7.45248e-07
1.44802e-05
-8.80891e-07
1.42884e-05
-1.03198e-06
1.40564e-05
-1.19223e-06
1.37781e-05
-1.351e-06
-1.46035e-06
1.34403e-05
1.53341e-05
-4.46781e-09
1.53355e-05
-1.18929e-08
1.53364e-05
-1.58016e-08
1.53366e-05
-1.8472e-08
1.53364e-05
-2.14989e-08
1.53355e-05
-2.50139e-08
1.53338e-05
-2.90469e-08
1.53311e-05
-3.38273e-08
1.53271e-05
-3.95772e-08
1.53217e-05
-4.64893e-08
1.53144e-05
-5.46903e-08
1.5305e-05
-6.43644e-08
1.5293e-05
-7.58723e-08
1.52781e-05
-8.95967e-08
1.52596e-05
-1.06007e-07
1.52367e-05
-1.25697e-07
1.52086e-05
-1.4938e-07
1.51743e-05
-1.77895e-07
1.51323e-05
-2.12235e-07
1.50812e-05
-2.53544e-07
1.50189e-05
-3.0311e-07
1.49432e-05
-3.62322e-07
1.48512e-05
-4.32588e-07
1.47398e-05
-5.15139e-07
1.46053e-05
-6.10663e-07
1.44431e-05
-7.18746e-07
1.42492e-05
-8.38113e-07
1.40193e-05
-9.6231e-07
1.37516e-05
-1.08326e-06
-1.14975e-06
1.3441e-05
1.53346e-05
-5.76275e-09
1.53368e-05
-1.4044e-08
1.53378e-05
-1.67757e-08
1.53381e-05
-1.87853e-08
1.53379e-05
-2.12965e-08
1.53369e-05
-2.4093e-08
1.53351e-05
-2.72298e-08
1.53322e-05
-3.09329e-08
1.5328e-05
-3.537e-08
1.53223e-05
-4.07251e-08
1.53146e-05
-4.70261e-08
1.53047e-05
-5.44308e-08
1.52921e-05
-6.33011e-08
1.52764e-05
-7.38846e-08
1.52569e-05
-8.6542e-08
1.52329e-05
-1.01733e-07
1.52036e-05
-1.20003e-07
1.51677e-05
-1.41997e-07
1.51239e-05
-1.68471e-07
1.50707e-05
-2.00292e-07
1.5006e-05
-2.38427e-07
1.49276e-05
-2.83905e-07
1.48327e-05
-3.37762e-07
1.47185e-05
-4.00865e-07
1.45813e-05
-4.73522e-07
1.44176e-05
-5.55029e-07
1.42245e-05
-6.45019e-07
1.39996e-05
-7.37404e-07
1.37461e-05
-8.29757e-07
-8.66039e-07
1.34624e-05
1.53357e-05
-8.13894e-09
1.53384e-05
-1.67741e-08
1.53394e-05
-1.77762e-08
1.534e-05
-1.93129e-08
1.53399e-05
-2.11792e-08
1.53389e-05
-2.31486e-08
1.5337e-05
-2.53458e-08
1.5334e-05
-2.79246e-08
1.53296e-05
-3.09602e-08
1.53236e-05
-3.47216e-08
1.53157e-05
-3.90786e-08
1.53053e-05
-4.41186e-08
1.52923e-05
-5.02667e-08
1.5276e-05
-5.76012e-08
1.52559e-05
-6.63926e-08
1.52311e-05
-7.69608e-08
1.52008e-05
-8.96822e-08
1.51638e-05
-1.05008e-07
1.51188e-05
-1.23467e-07
1.50642e-05
-1.45665e-07
1.4998e-05
-1.72278e-07
1.49181e-05
-2.04033e-07
1.4822e-05
-2.41669e-07
1.4707e-05
-2.85809e-07
1.45701e-05
-3.3662e-07
1.44086e-05
-3.93581e-07
1.42206e-05
-4.5697e-07
1.40036e-05
-5.20446e-07
1.37614e-05
-5.87477e-07
-5.92867e-07
1.34882e-05
1.53393e-05
-1.4139e-08
1.53421e-05
-1.95896e-08
1.53431e-05
-1.86996e-08
1.53431e-05
-1.93424e-08
1.53423e-05
-2.04203e-08
1.53407e-05
-2.14623e-08
1.53379e-05
-2.2594e-08
1.53339e-05
-2.39318e-08
1.53285e-05
-2.55037e-08
1.53212e-05
-2.75088e-08
1.5312e-05
-2.97909e-08
1.53002e-05
-3.24015e-08
1.52856e-05
-3.56647e-08
1.52676e-05
-3.95673e-08
1.52455e-05
-4.42707e-08
1.52185e-05
-4.99618e-08
1.51857e-05
-5.68589e-08
1.51459e-05
-6.52267e-08
1.50978e-05
-7.53773e-08
1.50398e-05
-8.76701e-08
1.497e-05
-1.02508e-07
1.48863e-05
-1.20326e-07
1.47862e-05
-1.41554e-07
1.46669e-05
-1.66545e-07
1.45257e-05
-1.95414e-07
1.43599e-05
-2.27711e-07
1.41648e-05
-2.61874e-07
1.39363e-05
-2.91942e-07
1.36687e-05
-3.19967e-07
-2.60156e-07
1.3336e-05
1.53192e-05
1.52996e-05
1.52809e-05
1.52616e-05
1.52411e-05
1.52197e-05
1.51971e-05
1.51732e-05
1.51477e-05
1.51201e-05
1.50904e-05
1.50579e-05
1.50223e-05
1.49827e-05
1.49384e-05
1.48885e-05
1.48316e-05
1.47664e-05
1.4691e-05
1.46034e-05
1.45008e-05
1.43805e-05
1.4239e-05
1.40724e-05
1.3877e-05
1.36493e-05
1.33874e-05
1.30955e-05
1.27755e-05
1.25154e-05
1.76114e-05
-8.20639e-06
8.45677e-06
1.73777e-05
-8.35697e-06
8.59068e-06
1.71087e-05
-8.50578e-06
8.77478e-06
1.68055e-05
-8.64573e-06
8.94888e-06
1.64745e-05
-8.78549e-06
9.11651e-06
1.61219e-05
-8.92969e-06
9.28232e-06
1.57514e-05
-9.07992e-06
9.45038e-06
1.53654e-05
-9.2371e-06
9.62313e-06
1.49649e-05
-9.40201e-06
9.80246e-06
1.45502e-05
-9.57509e-06
9.98981e-06
1.41206e-05
-9.75649e-06
1.01861e-05
1.36751e-05
-9.94641e-06
1.03919e-05
1.32126e-05
-1.01453e-05
1.06078e-05
1.2732e-05
-1.03539e-05
1.08345e-05
1.22324e-05
-1.05734e-05
1.10731e-05
1.17125e-05
-1.08053e-05
1.13251e-05
1.11711e-05
-1.10512e-05
1.15926e-05
1.06066e-05
-1.13134e-05
1.1878e-05
1.00169e-05
-1.15946e-05
1.21844e-05
9.3993e-06
-1.1898e-05
1.25156e-05
8.75058e-06
-1.22278e-05
1.28765e-05
8.06642e-06
-1.25892e-05
1.32734e-05
7.34118e-06
-1.29888e-05
1.37141e-05
6.56748e-06
-1.34353e-05
1.4209e-05
5.73469e-06
-1.3939e-05
1.47718e-05
4.82996e-06
-1.4515e-05
1.54198e-05
3.84037e-06
-1.5178e-05
1.61676e-05
2.68728e-06
-1.59796e-05
1.71327e-05
1.50981e-06
-1.67768e-05
1.79543e-05
-1.82489e-05
1.97587e-05
1.77941e-05
-7.93404e-06
1.74855e-05
-8.0484e-06
1.71496e-05
-8.1698e-06
1.67969e-05
-8.29303e-06
1.64322e-05
-8.42082e-06
1.60576e-05
-8.55511e-06
1.56736e-05
-8.69595e-06
1.52797e-05
-8.84313e-06
1.48744e-05
-8.99675e-06
1.44563e-05
-9.15696e-06
1.40238e-05
-9.32404e-06
1.35758e-05
-9.49843e-06
1.31114e-05
-9.68081e-06
1.26295e-05
-9.87209e-06
1.21295e-05
-1.00733e-05
1.161e-05
-1.02858e-05
1.10698e-05
-1.0511e-05
1.05071e-05
-1.07508e-05
9.91979e-06
-1.10073e-05
9.30516e-06
-1.12834e-05
8.65983e-06
-1.15825e-05
7.97946e-06
-1.19088e-05
7.25841e-06
-1.22678e-05
6.48929e-06
-1.26661e-05
5.66228e-06
-1.3112e-05
4.7646e-06
-1.36173e-05
3.77848e-06
-1.41919e-05
2.66779e-06
-1.48689e-05
1.46706e-06
-1.55761e-05
-1.67818e-05
1.76846e-05
-7.61716e-06
1.73531e-05
-7.71693e-06
1.70088e-05
-7.82549e-06
1.66561e-05
-7.94033e-06
1.62957e-05
-8.0604e-06
1.59261e-05
-8.18553e-06
1.55458e-05
-8.31568e-06
1.51536e-05
-8.45095e-06
1.47485e-05
-8.59159e-06
1.43295e-05
-8.73802e-06
1.38962e-05
-8.89068e-06
1.34478e-05
-9.0501e-06
1.29839e-05
-9.2169e-06
1.25036e-05
-9.39181e-06
1.2006e-05
-9.57566e-06
1.14897e-05
-9.76949e-06
1.09532e-05
-9.97452e-06
1.03947e-05
-1.01923e-05
9.81198e-06
-1.04246e-05
9.2023e-06
-1.06737e-05
8.56217e-06
-1.09424e-05
7.88722e-06
-1.12339e-05
7.17181e-06
-1.15524e-05
6.40863e-06
-1.1903e-05
5.5882e-06
-1.22916e-05
4.69785e-06
-1.2727e-05
3.72101e-06
-1.32151e-05
2.63176e-06
-1.37797e-05
1.42821e-06
-1.43725e-05
-1.53536e-05
1.75819e-05
-7.29009e-06
1.72457e-05
-7.38072e-06
1.68993e-05
-7.47909e-06
1.65437e-05
-7.58474e-06
1.61787e-05
-7.69548e-06
1.58034e-05
-7.81022e-06
1.54169e-05
-7.92918e-06
1.50188e-05
-8.05283e-06
1.46087e-05
-8.18148e-06
1.41861e-05
-8.31544e-06
1.37505e-05
-8.45503e-06
1.3301e-05
-8.60066e-06
1.28369e-05
-8.75281e-06
1.23572e-05
-8.91206e-06
1.18606e-05
-9.07911e-06
1.1346e-05
-9.25481e-06
1.08116e-05
-9.44018e-06
1.02558e-05
-9.63644e-06
9.67621e-06
-9.845e-06
9.0701e-06
-1.00676e-05
8.434e-06
-1.03063e-05
7.76358e-06
-1.05635e-05
7.05333e-06
-1.08421e-05
6.29621e-06
-1.11458e-05
5.48318e-06
-1.14786e-05
4.60239e-06
-1.18462e-05
3.63862e-06
-1.22513e-05
2.57085e-06
-1.27119e-05
1.38352e-06
-1.31852e-05
-1.39701e-05
1.74469e-05
-6.95455e-06
1.71033e-05
-7.0371e-06
1.67505e-05
-7.12629e-06
1.63888e-05
-7.22308e-06
1.60182e-05
-7.32487e-06
1.56381e-05
-7.43008e-06
1.52478e-05
-7.53892e-06
1.48469e-05
-7.65195e-06
1.44349e-05
-7.76946e-06
1.40111e-05
-7.89161e-06
1.35747e-05
-8.01865e-06
1.3125e-05
-8.15093e-06
1.2661e-05
-8.28887e-06
1.21819e-05
-8.43294e-06
1.16865e-05
-8.58372e-06
1.11736e-05
-8.74186e-06
1.06415e-05
-8.90813e-06
1.00885e-05
-9.08341e-06
9.51226e-06
-9.26875e-06
8.91001e-06
-9.46535e-06
8.27836e-06
-9.67461e-06
7.61308e-06
-9.89819e-06
6.90888e-06
-1.01379e-05
6.15908e-06
-1.03961e-05
5.35523e-06
-1.06747e-05
4.48639e-06
-1.09774e-05
3.5388e-06
-1.13037e-05
2.49387e-06
-1.1667e-05
1.33243e-06
-1.20238e-05
-1.26377e-05
1.72831e-05
-6.61216e-06
1.69334e-05
-6.68737e-06
1.65754e-05
-6.7683e-06
1.62092e-05
-6.85683e-06
1.58344e-05
-6.95012e-06
1.54506e-05
-7.04626e-06
1.50571e-05
-7.14543e-06
1.46534e-05
-7.24827e-06
1.4239e-05
-7.35503e-06
1.38132e-05
-7.46582e-06
1.33754e-05
-7.58084e-06
1.29248e-05
-7.70035e-06
1.24606e-05
-7.82469e-06
1.19819e-05
-7.95421e-06
1.14875e-05
-8.08931e-06
1.09761e-05
-8.23045e-06
1.04461e-05
-8.37816e-06
9.89571e-06
-8.53302e-06
9.32267e-06
-8.69571e-06
8.72428e-06
-8.86696e-06
8.09725e-06
-9.04758e-06
7.43754e-06
-9.23847e-06
6.74015e-06
-9.44053e-06
5.99883e-06
-9.65474e-06
5.20582e-06
-9.88169e-06
4.35122e-06
-1.01228e-05
3.42269e-06
-1.03752e-05
2.40385e-06
-1.06481e-05
1.27569e-06
-1.08956e-05
-1.1362e-05
1.70903e-05
-6.26364e-06
1.6735e-05
-6.3321e-06
1.63721e-05
-6.40539e-06
1.60014e-05
-6.4861e-06
1.56225e-05
-6.57123e-06
1.52349e-05
-6.65871e-06
1.48382e-05
-6.74871e-06
1.44318e-05
-6.84187e-06
1.40152e-05
-6.93844e-06
1.35879e-05
-7.03845e-06
1.3149e-05
-7.142e-06
1.2698e-05
-7.24931e-06
1.22339e-05
-7.36059e-06
1.17558e-05
-7.47608e-06
1.12625e-05
-7.59603e-06
1.07527e-05
-7.72071e-06
1.0225e-05
-7.85043e-06
9.67748e-06
-7.98549e-06
9.10798e-06
-8.1262e-06
8.51391e-06
-8.27289e-06
7.89214e-06
-8.42582e-06
7.23887e-06
-8.5852e-06
6.54945e-06
-8.75111e-06
5.81816e-06
-8.92345e-06
5.03796e-06
-9.1015e-06
4.20003e-06
-9.28483e-06
3.29353e-06
-9.46867e-06
2.30425e-06
-9.65885e-06
1.21532e-06
-9.80668e-06
-1.01467e-05
1.6869e-05
-5.90959e-06
1.65087e-05
-5.9718e-06
1.61413e-05
-6.03803e-06
1.57665e-05
-6.11132e-06
1.5384e-05
-6.1887e-06
1.49933e-05
-6.26796e-06
1.45938e-05
-6.34925e-06
1.41852e-05
-6.43323e-06
1.37668e-05
-6.52008e-06
1.33381e-05
-6.60979e-06
1.28985e-05
-6.70237e-06
1.24472e-05
-6.79797e-06
1.19833e-05
-6.89671e-06
1.15059e-05
-6.9987e-06
1.10139e-05
-7.10405e-06
1.05061e-05
-7.21286e-06
9.98087e-06
-7.32522e-06
9.43655e-06
-7.44117e-06
8.87105e-06
-7.56071e-06
8.28192e-06
-7.68376e-06
7.66622e-06
-7.81011e-06
7.02041e-06
-7.9394e-06
6.34027e-06
-8.07096e-06
5.62062e-06
-8.2038e-06
4.85522e-06
-8.3361e-06
4.03632e-06
-8.46593e-06
3.15465e-06
-8.587e-06
2.19811e-06
-8.70231e-06
1.15283e-06
-8.76141e-06
-8.99382e-06
1.66206e-05
-5.55058e-06
1.62558e-05
-5.60702e-06
1.58845e-05
-5.6667e-06
1.55062e-05
-5.73299e-06
1.51204e-05
-5.80297e-06
1.47269e-05
-5.87442e-06
1.43251e-05
-5.94746e-06
1.39146e-05
-6.02269e-06
1.34948e-05
-6.10029e-06
1.30652e-05
-6.18016e-06
1.26251e-05
-6.26228e-06
1.21738e-05
-6.34668e-06
1.17105e-05
-6.4334e-06
1.12342e-05
-6.52245e-06
1.07439e-05
-6.61379e-06
1.02384e-05
-6.70736e-06
9.71625e-06
-6.80304e-06
9.17574e-06
-6.90066e-06
8.61496e-06
-6.99992e-06
8.0316e-06
-7.1004e-06
7.42297e-06
-7.20148e-06
6.78585e-06
-7.30228e-06
6.11643e-06
-7.40155e-06
5.41014e-06
-7.49751e-06
4.66153e-06
-7.58749e-06
3.86391e-06
-7.66831e-06
3.00958e-06
-7.73268e-06
2.08837e-06
-7.7811e-06
1.08973e-06
-7.76276e-06
-7.9041e-06
1.63475e-05
-5.18721e-06
1.59788e-05
-5.23832e-06
1.5604e-05
-5.29196e-06
1.52227e-05
-5.35162e-06
1.48343e-05
-5.41456e-06
1.44384e-05
-5.4786e-06
1.40348e-05
-5.54381e-06
1.36229e-05
-5.61075e-06
1.32021e-05
-5.67955e-06
1.2772e-05
-5.75006e-06
1.23319e-05
-5.82218e-06
1.18811e-05
-5.89589e-06
1.14189e-05
-5.97114e-06
1.09442e-05
-6.04781e-06
1.04562e-05
-6.12576e-06
9.95362e-06
-6.20477e-06
9.43512e-06
-6.28455e-06
8.89916e-06
-6.3647e-06
8.34393e-06
-6.44469e-06
7.76732e-06
-6.52379e-06
7.16689e-06
-6.60105e-06