/*--------------------------------*- C++ -*----------------------------------*\
  =========                 |
  \\      /  F ield         | OpenFOAM: The Open Source CFD Toolbox
   \\    /   O peration     | Website:  https://openfoam.org
    \\  /    A nd           | Version:  11
     \\/     M anipulation  |
\*---------------------------------------------------------------------------*/
FoamFile
{
    format      ascii;
    class       surfaceScalarField;
    location    "1.1";
    object      phi;
}
// * * * * * * * * * * * * * * * * * * * * * * * * * * * * * * * * * * * * * //

dimensions      [0 3 -1 0 0 0 0];

internalField   nonuniform List<scalar> 
24840
(
1.92407e-05
7.41433e-09
1.92328e-05
7.87647e-09
1.92267e-05
6.11021e-09
1.92227e-05
4.02322e-09
1.92211e-05
1.6081e-09
1.92222e-05
-1.14896e-09
1.92266e-05
-4.37857e-09
1.92346e-05
-7.99591e-09
1.92466e-05
-1.19765e-08
1.9263e-05
-1.63918e-08
1.92843e-05
-2.13386e-08
1.93112e-05
-2.69098e-08
1.93445e-05
-3.32301e-08
1.93849e-05
-4.0446e-08
1.94336e-05
-4.87295e-08
1.94919e-05
-5.82816e-08
1.95613e-05
-6.93369e-08
1.96434e-05
-8.21642e-08
1.97405e-05
-9.70634e-08
1.98549e-05
-1.14358e-07
1.99892e-05
-1.34389e-07
2.01467e-05
-1.57485e-07
2.03307e-05
-1.84025e-07
2.05451e-05
-2.14398e-07
2.07942e-05
-2.49016e-07
2.10821e-05
-2.87918e-07
2.14143e-05
-3.32171e-07
2.17904e-05
-3.76182e-07
2.22322e-05
-4.41758e-07
-4.15732e-07
2.26479e-05
1.92525e-05
3.03863e-09
1.92573e-05
3.08104e-09
1.9263e-05
4.59557e-10
1.92707e-05
-3.71908e-09
1.92806e-05
-8.33507e-09
1.92933e-05
-1.37938e-08
1.9309e-05
-2.01266e-08
1.93282e-05
-2.72015e-08
1.93513e-05
-3.49934e-08
1.93785e-05
-4.3633e-08
1.94104e-05
-5.32853e-08
1.94477e-05
-6.41231e-08
1.94908e-05
-7.63558e-08
1.95406e-05
-9.02396e-08
1.95979e-05
-1.06088e-07
1.96639e-05
-1.2428e-07
1.97399e-05
-1.45266e-07
1.98273e-05
-1.69554e-07
1.99279e-05
-1.97673e-07
2.00437e-05
-2.30181e-07
2.0177e-05
-2.67716e-07
2.03306e-05
-3.1107e-07
2.05078e-05
-3.61225e-07
2.07127e-05
-4.19282e-07
2.095e-05
-4.86322e-07
2.12249e-05
-5.6286e-07
2.1543e-05
-6.50246e-07
2.1909e-05
-7.42146e-07
2.2331e-05
-8.63776e-07
-8.872e-07
2.28025e-05
1.92507e-05
5.16602e-10
1.92546e-05
-8.79393e-10
1.92601e-05
-5.03112e-09
1.92674e-05
-1.10533e-08
1.92772e-05
-1.81008e-08
1.92896e-05
-2.62327e-08
1.9305e-05
-3.55155e-08
1.93237e-05
-4.59036e-08
1.93461e-05
-5.74002e-08
1.93726e-05
-7.01371e-08
1.94037e-05
-8.43264e-08
1.94398e-05
-1.00223e-07
1.94816e-05
-1.18136e-07
1.95298e-05
-1.38441e-07
1.95853e-05
-1.61596e-07
1.96492e-05
-1.88153e-07
1.97227e-05
-2.18767e-07
1.98073e-05
-2.54189e-07
1.99049e-05
-2.95246e-07
2.00175e-05
-3.42835e-07
2.01478e-05
-3.9796e-07
2.02985e-05
-4.61798e-07
2.0473e-05
-5.35723e-07
2.0675e-05
-6.21259e-07
2.09086e-05
-7.20005e-07
2.11788e-05
-8.32996e-07
2.1491e-05
-9.62433e-07
2.18507e-05
-1.10187e-06
2.22652e-05
-1.27824e-06
-1.36675e-06
2.27447e-05
1.92497e-05
-1.02505e-09
1.92531e-05
-4.31955e-09
1.92582e-05
-1.0139e-08
1.92652e-05
-1.80179e-08
1.92745e-05
-2.73919e-08
1.92864e-05
-3.81451e-08
1.93012e-05
-5.03233e-08
1.93192e-05
-6.39342e-08
1.93408e-05
-7.90138e-08
1.93664e-05
-9.57078e-08
1.93964e-05
-1.14266e-07
1.94311e-05
-1.35017e-07
1.94714e-05
-1.58369e-07
1.95178e-05
-1.84821e-07
1.95711e-05
-2.14976e-07
1.96325e-05
-2.49548e-07
1.97031e-05
-2.89375e-07
1.97844e-05
-3.35428e-07
1.9878e-05
-3.88819e-07
1.99859e-05
-4.50808e-07
2.01108e-05
-5.22828e-07
2.02555e-05
-6.06508e-07
2.04235e-05
-7.03686e-07
2.06186e-05
-8.16356e-07
2.08452e-05
-9.46648e-07
2.11084e-05
-1.09621e-06
2.14139e-05
-1.26795e-06
2.17685e-05
-1.45643e-06
2.2178e-05
-1.68777e-06
-1.84546e-06
2.26568e-05
1.92492e-05
-2.09131e-09
1.92521e-05
-7.22087e-09
1.92567e-05
-1.47628e-08
1.92632e-05
-2.45182e-08
1.9272e-05
-3.61343e-08
1.92833e-05
-4.94361e-08
1.92974e-05
-6.44168e-08
1.93145e-05
-8.11079e-08
1.93351e-05
-9.95839e-08
1.93594e-05
-1.20022e-07
1.93879e-05
-1.42716e-07
1.94209e-05
-1.68064e-07
1.94591e-05
-1.96565e-07
1.95031e-05
-2.28828e-07
1.95537e-05
-2.65589e-07
1.96119e-05
-3.07722e-07
1.96788e-05
-3.5626e-07
1.97558e-05
-4.12401e-07
1.98445e-05
-4.77516e-07
1.99468e-05
-5.53168e-07
2.00651e-05
-6.4115e-07
2.02022e-05
-7.43531e-07
2.03612e-05
-8.62679e-07
2.0546e-05
-1.00122e-06
2.07614e-05
-1.162e-06
2.10127e-05
-1.34752e-06
2.13062e-05
-1.56147e-06
2.16497e-05
-1.79995e-06
2.20496e-05
-2.08762e-06
-2.31884e-06
2.25229e-05
1.92489e-05
-2.90333e-09
1.92514e-05
-9.71612e-09
1.92556e-05
-1.89682e-08
1.92617e-05
-3.057e-08
1.92699e-05
-4.43061e-08
1.92804e-05
-6.00062e-08
1.92937e-05
-7.76292e-08
1.93098e-05
-9.72159e-08
1.93291e-05
-1.18874e-07
1.93518e-05
-1.42815e-07
1.93785e-05
-1.69371e-07
1.94094e-05
-1.99002e-07
1.94452e-05
-2.32291e-07
1.94863e-05
-2.69951e-07
1.95335e-05
-3.12841e-07
1.95878e-05
-3.61981e-07
1.96501e-05
-4.18571e-07
1.97217e-05
-4.84014e-07
1.98041e-05
-5.59935e-07
1.98992e-05
-6.48216e-07
2.00091e-05
-7.51038e-07
2.01365e-05
-8.70924e-07
2.02846e-05
-1.01077e-06
2.04572e-05
-1.17382e-06
2.06588e-05
-1.36367e-06
2.08951e-05
-1.58383e-06
2.11727e-05
-1.83902e-06
2.15002e-05
-2.12743e-06
2.18849e-05
-2.47236e-06
-2.78159e-06
2.23477e-05
1.92488e-05
-3.58101e-09
1.9251e-05
-1.18873e-08
1.92548e-05
-2.27506e-08
1.92603e-05
-3.61055e-08
1.92678e-05
-5.1817e-08
1.92775e-05
-6.97393e-08
1.92897e-05
-8.98145e-08
1.93046e-05
-1.12082e-07
1.93224e-05
-1.36673e-07
1.93434e-05
-1.63827e-07
1.9368e-05
-1.93921e-07
1.93964e-05
-2.27469e-07
1.94293e-05
-2.65127e-07
1.9467e-05
-3.077e-07
1.95103e-05
-3.56158e-07
1.956e-05
-4.11653e-07
1.9617e-05
-4.75545e-07
1.96824e-05
-5.49428e-07
1.97576e-05
-6.35159e-07
1.98443e-05
-7.34898e-07
1.99444e-05
-8.51171e-07
2.00604e-05
-9.86925e-07
2.01953e-05
-1.14559e-06
2.03526e-05
-1.33112e-06
2.05369e-05
-1.54799e-06
2.07539e-05
-1.80087e-06
2.10106e-05
-2.09576e-06
2.13167e-05
-2.43346e-06
2.16804e-05
-2.83606e-06
-3.22791e-06
2.21267e-05
1.92487e-05
-4.16685e-09
1.92506e-05
-1.3777e-08
1.9254e-05
-2.6111e-08
1.9259e-05
-4.10887e-08
1.92657e-05
-5.8612e-08
1.92746e-05
-7.85569e-08
1.92856e-05
-1.00859e-07
1.92991e-05
-1.25557e-07
1.93152e-05
-1.52794e-07
1.93342e-05
-1.82841e-07
1.93564e-05
-2.16109e-07
1.93821e-05
-2.5316e-07
1.94117e-05
-2.94715e-07
1.94456e-05
-3.41658e-07
1.94845e-05
-3.95054e-07
1.95291e-05
-4.56168e-07
1.958e-05
-5.26497e-07
1.96384e-05
-6.07798e-07
1.97054e-05
-7.02134e-07
1.97824e-05
-8.11926e-07
1.98712e-05
-9.40022e-07
1.99741e-05
-1.08978e-06
2.00936e-05
-1.26515e-06
2.02333e-05
-1.47076e-06
2.03973e-05
-1.71201e-06
2.05913e-05
-1.99485e-06
2.08223e-05
-2.32679e-06
2.11006e-05
-2.71173e-06
2.14355e-05
-3.17094e-06
-3.64852e-06
2.18561e-05
1.92486e-05
-4.67337e-09
1.92503e-05
-1.54129e-08
1.92532e-05
-2.90543e-08
1.92576e-05
-4.54911e-08
1.92636e-05
-6.46365e-08
1.92715e-05
-8.63801e-08
1.92813e-05
-1.10657e-07
1.92932e-05
-1.37503e-07
1.93075e-05
-1.67072e-07
1.93243e-05
-1.99657e-07
1.93439e-05
-2.35697e-07
1.93665e-05
-2.75797e-07
1.93925e-05
-3.20729e-07
1.94223e-05
-3.71441e-07
1.94564e-05
-4.29077e-07
1.94952e-05
-4.94998e-07
1.95395e-05
-5.70812e-07
1.95901e-05
-6.58416e-07
1.9648e-05
-7.60046e-07
1.97144e-05
-8.78334e-07
1.97908e-05
-1.0164e-06
1.9879e-05
-1.17795e-06
1.99813e-05
-1.36744e-06
2.01007e-05
-1.59014e-06
2.02411e-05
-1.8524e-06
2.04077e-05
-2.16152e-06
2.06076e-05
-2.52665e-06
2.0851e-05
-2.95518e-06
2.1148e-05
-3.46791e-06
-4.03183e-06
2.15313e-05
1.92486e-05
-5.10522e-09
1.925e-05
-1.68085e-08
1.92525e-05
-3.15805e-08
1.92563e-05
-4.92883e-08
1.92615e-05
-6.98442e-08
1.92683e-05
-9.3143e-08
1.92767e-05
-1.1912e-07
1.9287e-05
-1.47807e-07
1.92993e-05
-1.79367e-07
1.93138e-05
-2.14106e-07
1.93306e-05
-2.52488e-07
1.93499e-05
-2.95148e-07
1.93721e-05
-3.42899e-07
1.93974e-05
-3.96738e-07
1.94262e-05
-4.5787e-07
1.94589e-05
-5.27724e-07
1.94961e-05
-6.07996e-07
1.95383e-05
-7.00686e-07
1.95865e-05
-8.08159e-07
1.96413e-05
-9.33214e-07
1.97041e-05
-1.07919e-06
1.97763e-05
-1.25009e-06
1.98596e-05
-1.45076e-06
1.99565e-05
-1.68709e-06
2.00704e-05
-1.96627e-06
2.02058e-05
-2.29689e-06
2.0369e-05
-2.68983e-06
2.05699e-05
-3.15613e-06
2.08185e-05
-3.7165e-06
-4.36305e-06
2.11497e-05
1.92485e-05
-5.46445e-09
1.92497e-05
-1.79696e-08
1.92518e-05
-3.36873e-08
1.92549e-05
-5.24619e-08
1.92593e-05
-7.41986e-08
1.92649e-05
-9.87916e-08
1.9272e-05
-1.26174e-07
1.92806e-05
-1.56377e-07
1.92908e-05
-1.89564e-07
1.93027e-05
-2.26051e-07
1.93165e-05
-2.66319e-07
1.93324e-05
-3.11025e-07
1.93505e-05
-3.61007e-07
1.93711e-05
-4.17297e-07
1.93943e-05
-4.81138e-07
1.94206e-05
-5.54006e-07
1.94503e-05
-6.37651e-07
1.94837e-05
-7.34142e-07
1.95215e-05
-8.45924e-07
1.95642e-05
-9.75906e-07
1.96126e-05
-1.12757e-06
1.96676e-05
-1.30511e-06
1.97305e-05
-1.5137e-06
1.98031e-05
-1.75967e-06
1.98878e-05
-2.05092e-06
1.99881e-05
-2.39721e-06
2.01092e-05
-2.81097e-06
2.02599e-05
-3.30681e-06
2.0449e-05
-3.90557e-06
-4.6252e-06
2.07111e-05
1.92484e-05
-5.7521e-09
1.92494e-05
-1.88988e-08
1.9251e-05
-3.53726e-08
1.92536e-05
-5.49984e-08
1.9257e-05
-7.76725e-08
1.92615e-05
-1.03285e-07
1.92671e-05
-1.31765e-07
1.92739e-05
-1.63141e-07
1.92819e-05
-1.97576e-07
1.92912e-05
-2.35389e-07
1.9302e-05
-2.7707e-07
1.93143e-05
-3.23286e-07
1.93281e-05
-3.74891e-07
1.93438e-05
-4.32934e-07
1.93613e-05
-4.98674e-07
1.93809e-05
-5.73609e-07
1.94028e-05
-6.5951e-07
1.94271e-05
-7.5847e-07
1.94541e-05
-8.72966e-07
1.94842e-05
-1.00594e-06
1.95176e-05
-1.16095e-06
1.95547e-05
-1.34227e-06
1.95963e-05
-1.55523e-06
1.9643e-05
-1.80646e-06
1.96964e-05
-2.10433e-06
1.97587e-05
-2.45942e-06
1.98331e-05
-2.88543e-06
1.99263e-05
-3.39997e-06
2.00448e-05
-4.02411e-06
-4.80008e-06
2.02197e-05
1.92484e-05
-5.96901e-09
1.9249e-05
-1.95979e-08
1.92503e-05
-3.66352e-08
1.92522e-05
-5.68899e-08
1.92548e-05
-8.02485e-08
1.92581e-05
-1.06595e-07
1.92622e-05
-1.35855e-07
1.92671e-05
-1.6805e-07
1.92729e-05
-2.03342e-07
1.92795e-05
-2.42047e-07
1.92871e-05
-2.84657e-07
1.92957e-05
-3.3184e-07
1.93052e-05
-3.84451e-07
1.93158e-05
-4.43537e-07
1.93275e-05
-5.10356e-07
1.93403e-05
-5.86398e-07
1.93542e-05
-6.73423e-07
1.93692e-05
-7.73506e-07
1.93854e-05
-8.89099e-07
1.94025e-05
-1.02312e-06
1.94207e-05
-1.17906e-06
1.94396e-05
-1.3612e-06
1.94592e-05
-1.57484e-06
1.94794e-05
-1.82666e-06
1.95003e-05
-2.1252e-06
1.95223e-05
-2.48142e-06
1.95466e-05
-2.90973e-06
1.95764e-05
-3.42981e-06
1.96149e-05
-4.06262e-06
-4.87043e-06
1.96853e-05
1.92483e-05
-6.11621e-09
1.92488e-05
-2.00695e-08
1.92496e-05
-3.7477e-08
1.92508e-05
-5.81342e-08
1.92525e-05
-8.19188e-08
1.92546e-05
-1.08708e-07
1.92572e-05
-1.38422e-07
1.92602e-05
-1.71078e-07
1.92637e-05
-2.0683e-07
1.92676e-05
-2.45989e-07
1.9272e-05
-2.89041e-07
1.92768e-05
-3.36643e-07
1.9282e-05
-3.8964e-07
1.92875e-05
-4.49063e-07
1.92933e-05
-5.16145e-07
1.92993e-05
-5.92345e-07
1.93052e-05
-6.79375e-07
1.9311e-05
-7.79251e-07
1.93162e-05
-8.94342e-07
1.93206e-05
-1.02746e-06
1.93235e-05
-1.18196e-06
1.93242e-05
-1.36196e-06
1.93219e-05
-1.57256e-06
1.93155e-05
-1.8202e-06
1.93035e-05
-2.11324e-06
1.92846e-05
-2.46246e-06
1.9257e-05
-2.8822e-06
1.92201e-05
-3.39288e-06
1.91722e-05
-4.01466e-06
-4.82278e-06
1.91245e-05
1.92482e-05
-6.19513e-09
1.92485e-05
-2.03175e-08
1.92489e-05
-3.79031e-08
1.92495e-05
-5.87361e-08
1.92503e-05
-8.26859e-08
1.92512e-05
-1.09624e-07
1.92522e-05
-1.39466e-07
1.92534e-05
-1.7222e-07
1.92546e-05
-2.08035e-07
1.92558e-05
-2.47211e-07
1.9257e-05
-2.90218e-07
1.9258e-05
-3.37699e-07
1.92588e-05
-3.90473e-07
1.92593e-05
-4.4954e-07
1.92593e-05
-5.16089e-07
1.92584e-05
-5.91522e-07
1.92565e-05
-6.77474e-07
1.92532e-05
-7.7586e-07
1.92477e-05
-8.88912e-07
1.92395e-05
-1.01926e-06
1.92276e-05
-1.17004e-06
1.92107e-05
-1.34505e-06
1.91871e-05
-1.549e-06
1.91548e-05
-1.78786e-06
1.91109e-05
-2.06931e-06
1.90518e-05
-2.4034e-06
1.89731e-05
-2.80346e-06
1.88692e-05
-3.28905e-06
1.8733e-05
-3.87844e-06
-4.65059e-06
1.85608e-05
1.92481e-05
-6.20805e-09
1.92482e-05
-2.03494e-08
1.92482e-05
-3.79233e-08
1.92482e-05
-5.87066e-08
1.9248e-05
-8.25619e-08
1.92478e-05
-1.09356e-07
1.92473e-05
-1.38999e-07
1.92466e-05
-1.71494e-07
1.92455e-05
-2.06978e-07
1.92441e-05
-2.45739e-07
1.92421e-05
-2.88227e-07
1.92394e-05
-3.35059e-07
1.9236e-05
-3.87019e-07
1.92315e-05
-4.4506e-07
1.92257e-05
-5.10314e-07
1.92183e-05
-5.841e-07
1.92088e-05
-6.6795e-07
1.91965e-05
-7.63639e-07
1.91809e-05
-8.73218e-07
1.91607e-05
-9.99074e-07
1.91346e-05
-1.14402e-06
1.9101e-05
-1.31142e-06
1.90574e-05
-1.50541e-06
1.90008e-05
-1.7312e-06
1.89269e-05
-1.99544e-06
1.88303e-05
-2.30681e-06
1.87035e-05
-2.67669e-06
1.85366e-05
-3.1221e-06
1.83162e-05
-3.65807e-06
-4.3571e-06
1.80227e-05
1.92481e-05
-6.15798e-09
1.92479e-05
-2.01717e-08
1.92475e-05
-3.75514e-08
1.92469e-05
-5.8065e-08
1.92459e-05
-8.15699e-08
1.92445e-05
-1.07931e-07
1.92425e-05
-1.37054e-07
1.924e-05
-1.68938e-07
1.92367e-05
-2.03708e-07
1.92326e-05
-2.41634e-07
1.92275e-05
-2.83142e-07
1.92213e-05
-3.28816e-07
1.92136e-05
-3.79397e-07
1.92044e-05
-4.3578e-07
1.91931e-05
-4.9902e-07
1.91793e-05
-5.70339e-07
1.91625e-05
-6.51141e-07
1.91419e-05
-7.43032e-07
1.91165e-05
-8.47841e-07
1.90851e-05
-9.67659e-07
1.9046e-05
-1.1049e-06
1.8997e-05
-1.2624e-06
1.89351e-05
-1.44357e-06
1.88566e-05
-1.65263e-06
1.8756e-05
-1.89485e-06
1.86261e-05
-2.17699e-06
1.84572e-05
-2.50771e-06
1.8235e-05
-2.8999e-06
1.7941e-05
-3.36413e-06
-3.95679e-06
1.75407e-05
1.9248e-05
-6.04829e-09
1.92476e-05
-1.97981e-08
1.92469e-05
-3.68067e-08
1.92457e-05
-5.68368e-08
1.92438e-05
-7.97421e-08
1.92413e-05
-1.05387e-07
1.92379e-05
-1.33679e-07
1.92336e-05
-1.64611e-07
1.92282e-05
-1.98295e-07
1.92215e-05
-2.34982e-07
1.92135e-05
-2.7507e-07
1.92038e-05
-3.19105e-07
1.91921e-05
-3.67775e-07
1.91783e-05
-4.21909e-07
1.91617e-05
-4.82473e-07
1.9142e-05
-5.50579e-07
1.91183e-05
-6.27483e-07
1.90899e-05
-7.146e-07
1.90555e-05
-8.1351e-07
1.90138e-05
-9.25971e-07
1.89629e-05
-1.05395e-06
1.89002e-05
-1.19967e-06
1.88223e-05
-1.36573e-06
1.87249e-05
-1.55518e-06
1.86017e-05
-1.77169e-06
1.84444e-05
-2.01971e-06
1.82413e-05
-2.30461e-06
1.79754e-05
-2.63397e-06
1.76243e-05
-3.01305e-06
-3.47482e-06
1.71423e-05
1.9248e-05
-5.8841e-09
1.92474e-05
-1.92426e-08
1.92463e-05
-3.57139e-08
1.92445e-05
-5.50559e-08
1.92419e-05
-7.71207e-08
1.92383e-05
-1.01778e-07
1.92336e-05
-1.28938e-07
1.92275e-05
-1.5859e-07
1.92201e-05
-1.90833e-07
1.9211e-05
-2.25898e-07
1.92001e-05
-2.64152e-07
1.91871e-05
-3.06096e-07
1.91717e-05
-3.52363e-07
1.91535e-05
-4.03706e-07
1.9132e-05
-4.60997e-07
1.91066e-05
-5.25223e-07
1.90766e-05
-5.97486e-07
1.9041e-05
-6.78997e-07
1.89986e-05
-7.7107e-07
1.89477e-05
-8.7511e-07
1.88864e-05
-9.92611e-07
1.88119e-05
-1.12516e-06
1.87206e-05
-1.27447e-06
1.86078e-05
-1.44238e-06
1.84669e-05
-1.63082e-06
1.8289e-05
-1.84178e-06
1.80615e-05
-2.07705e-06
1.77659e-05
-2.33842e-06
1.73784e-05
-2.6255e-06
-2.94416e-06
1.68477e-05
1.92479e-05
-5.67137e-09
1.92472e-05
-1.85243e-08
1.92458e-05
-3.43044e-08
1.92435e-05
-5.2764e-08
1.92401e-05
-7.37575e-08
1.92355e-05
-9.7166e-08
1.92295e-05
-1.22907e-07
1.92219e-05
-1.50969e-07
1.92125e-05
-1.81436e-07
1.92011e-05
-2.1452e-07
1.91875e-05
-2.50552e-07
1.91714e-05
-2.89991e-07
1.91524e-05
-3.33405e-07
1.91302e-05
-3.8147e-07
1.91042e-05
-4.34958e-07
1.90737e-05
-4.94729e-07
1.90379e-05
-5.61723e-07
1.89959e-05
-6.36945e-07
1.89462e-05
-7.2144e-07
1.88874e-05
-8.16263e-07
1.88172e-05
-9.22439e-07
1.8733e-05
-1.04092e-06
1.8631e-05
-1.17256e-06
1.85066e-05
-1.31798e-06
1.83533e-05
-1.47743e-06
1.8162e-05
-1.65048e-06
1.79204e-05
-1.83547e-06
1.76104e-05
-2.02848e-06
1.72089e-05
-2.22401e-06
-2.40108e-06
1.66659e-05
1.92479e-05
-5.41772e-09
1.9247e-05
-1.76673e-08
1.92453e-05
-3.26166e-08
1.92426e-05
-5.00107e-08
1.92385e-05
-6.97128e-08
1.9233e-05
-9.16249e-08
1.92258e-05
-1.15678e-07
1.92167e-05
-1.41857e-07
1.92055e-05
-1.70237e-07
1.91919e-05
-2.01005e-07
1.91758e-05
-2.34462e-07
1.91569e-05
-2.71017e-07
1.91346e-05
-3.11176e-07
1.91087e-05
-3.55533e-07
1.90785e-05
-4.04759e-07
1.90434e-05
-4.59588e-07
1.90024e-05
-5.208e-07
1.89547e-05
-5.892e-07
1.88988e-05
-6.65575e-07
1.88332e-05
-7.5065e-07
1.87558e-05
-8.4501e-07
1.86639e-05
-9.49029e-07
1.85541e-05
-1.06275e-06
1.84218e-05
-1.18573e-06
1.82611e-05
-1.31667e-06
1.80636e-05
-1.45298e-06
1.78181e-05
-1.59003e-06
1.75086e-05
-1.71894e-06
1.71147e-05
-1.83014e-06
-1.88001e-06
1.65936e-05
1.92478e-05
-5.13292e-09
1.92469e-05
-1.67031e-08
1.9245e-05
-3.06985e-08
1.92418e-05
-4.68541e-08
1.92372e-05
-6.50548e-08
1.92308e-05
-8.5238e-08
1.92224e-05
-1.07352e-07
1.9212e-05
-1.31378e-07
1.91991e-05
-1.57381e-07
1.91836e-05
-1.85529e-07
1.91653e-05
-2.1609e-07
1.91437e-05
-2.49424e-07
1.91185e-05
-2.85972e-07
1.90892e-05
-3.26248e-07
1.90552e-05
-3.70823e-07
1.9016e-05
-4.2031e-07
1.89705e-05
-4.75338e-07
1.89178e-05
-5.36526e-07
1.88567e-05
-6.04431e-07
1.87855e-05
-6.79479e-07
1.87024e-05
-7.61872e-07
1.86048e-05
-8.51482e-07
1.84898e-05
-9.47683e-07
1.83531e-05
-1.04911e-06
1.81897e-05
-1.15325e-06
1.79925e-05
-1.25578e-06
1.77523e-05
-1.34977e-06
1.7456e-05
-1.42263e-06
1.7088e-05
-1.46214e-06
-1.40879e-06
1.66167e-05
1.92478e-05
-4.83002e-09
1.92468e-05
-1.56743e-08
1.92447e-05
-2.86103e-08
1.92412e-05
-4.33604e-08
1.9236e-05
-5.98588e-08
1.92289e-05
-7.80969e-08
1.92196e-05
-9.80396e-08
1.92079e-05
-1.19665e-07
1.91935e-05
-1.4303e-07
1.91763e-05
-1.68284e-07
1.91558e-05
-1.95664e-07
1.91319e-05
-2.25479e-07
1.9104e-05
-2.58107e-07
1.90718e-05
-2.93985e-07
1.90345e-05
-3.3359e-07
1.89916e-05
-3.77419e-07
1.89423e-05
-4.25963e-07
1.88854e-05
-4.79675e-07
1.88199e-05
-5.38915e-07
1.87443e-05
-6.03868e-07
1.86568e-05
-6.74426e-07
1.85554e-05
-7.5007e-07
1.84374e-05
-8.29668e-07
1.82995e-05
-9.11183e-07
1.81374e-05
-9.91213e-07
1.79459e-05
-1.06425e-06
1.77181e-05
-1.12192e-06
1.74448e-05
-1.14939e-06
1.7116e-05
-1.1333e-06
-1.00599e-06
1.67132e-05
1.92478e-05
-4.52822e-09
1.92468e-05
-1.46427e-08
1.92446e-05
-2.64258e-08
1.92409e-05
-3.96027e-08
1.92352e-05
-5.42079e-08
1.92274e-05
-7.03029e-08
1.92172e-05
-8.78626e-08
1.92044e-05
-1.06861e-07
1.91888e-05
-1.2735e-07
1.91699e-05
-1.49468e-07
1.91477e-05
-1.73417e-07
1.91217e-05
-1.99457e-07
1.90915e-05
-2.27904e-07
1.90566e-05
-2.59119e-07
1.90165e-05
-2.93491e-07
1.89705e-05
-3.31416e-07
1.89178e-05
-3.73269e-07
1.88575e-05
-4.19369e-07
1.87885e-05
-4.69917e-07
1.87095e-05
-5.24896e-07
1.86191e-05
-5.83964e-07
1.85153e-05
-6.46337e-07
1.83962e-05
-7.10582e-07
1.82593e-05
-7.74274e-07
1.81017e-05
-8.33532e-07
1.79197e-05
-8.82249e-07
1.77092e-05
-9.11444e-07
1.74653e-05
-9.05527e-07
1.71834e-05
-8.5137e-07
-6.80825e-07
1.68582e-05
1.92479e-05
-4.261e-09
1.92469e-05
-1.37058e-08
1.92447e-05
-2.42312e-08
1.92408e-05
-3.56539e-08
1.92348e-05
-4.81887e-08
1.92264e-05
-6.19658e-08
1.92155e-05
-7.69522e-08
1.92018e-05
-9.31205e-08
1.9185e-05
-1.10528e-07
1.91648e-05
-1.29299e-07
1.9141e-05
-1.49601e-07
1.91132e-05
-1.71648e-07
1.9081e-05
-1.95696e-07
1.90439e-05
-2.22036e-07
1.90014e-05
-2.50977e-07
1.89528e-05
-2.82818e-07
1.88973e-05
-3.17831e-07
1.88342e-05
-3.5623e-07
1.87624e-05
-3.98115e-07
1.86808e-05
-4.4334e-07
1.85883e-05
-4.91419e-07
1.84834e-05
-5.41456e-07
1.83647e-05
-5.91908e-07
1.82307e-05
-6.4022e-07
1.80795e-05
-6.8239e-07
1.79095e-05
-7.1225e-07
1.77191e-05
-7.21011e-07
1.75072e-05
-6.93679e-07
1.72744e-05
-6.18491e-07
-4.33251e-07
1.70268e-05
1.9248e-05
-4.0887e-09
1.92473e-05
-1.30301e-08
1.92452e-05
-2.2138e-08
1.92411e-05
-3.15843e-08
1.92348e-05
-4.18817e-08
1.9226e-05
-5.31787e-08
1.92145e-05
-6.54172e-08
1.92e-05
-7.8581e-08
1.91822e-05
-9.2735e-08
1.91608e-05
-1.07985e-07
1.91357e-05
-1.24466e-07
1.91064e-05
-1.42343e-07
1.90725e-05
-1.61816e-07
1.90336e-05
-1.83107e-07
1.89891e-05
-2.06453e-07
1.89383e-05
-2.32081e-07
1.88807e-05
-2.60188e-07
1.88154e-05
-2.90924e-07
1.87416e-05
-3.2433e-07
1.86584e-05
-3.60132e-07
1.85647e-05
-3.97734e-07
1.84595e-05
-4.3628e-07
1.8342e-05
-4.74365e-07
1.82114e-05
-5.09614e-07
1.80673e-05
-5.38275e-07
1.79096e-05
-5.54586e-07
1.77392e-05
-5.50597e-07
1.75585e-05
-5.12969e-07
1.73721e-05
-4.32133e-07
-2.56151e-07
1.7195e-05
1.92482e-05
-4.1971e-09
1.9248e-05
-1.28311e-08
1.92461e-05
-2.02381e-08
1.92421e-05
-2.75087e-08
1.92356e-05
-3.54302e-08
1.92265e-05
-4.40886e-08
1.92145e-05
-5.34111e-08
1.91994e-05
-6.3413e-08
1.91808e-05
-7.41648e-08
1.91585e-05
-8.57502e-08
1.91323e-05
-9.82673e-08
1.91018e-05
-1.11838e-07
1.90666e-05
-1.26606e-07
1.90263e-05
-1.42731e-07
1.89802e-05
-1.60377e-07
1.89278e-05
-1.79703e-07
1.88684e-05
-2.00833e-07
1.88014e-05
-2.23891e-07
1.8726e-05
-2.48963e-07
1.86416e-05
-2.75708e-07
1.85474e-05
-3.03486e-07
1.84427e-05
-3.3162e-07
1.83273e-05
-3.58935e-07
1.8201e-05
-3.83314e-07
1.80642e-05
-4.01481e-07
1.79181e-05
-4.08497e-07
1.77655e-05
-3.97953e-07
1.76114e-05
-3.58915e-07
1.74649e-05
-2.85602e-07
-1.3752e-07
1.73462e-05
1.9249e-05
-5.0473e-09
1.92494e-05
-1.32022e-08
1.92477e-05
-1.85678e-08
1.92437e-05
-2.34858e-08
1.92371e-05
-2.8902e-08
1.92278e-05
-3.47822e-08
1.92155e-05
-4.1074e-08
1.91999e-05
-4.78194e-08
1.91808e-05
-5.50764e-08
1.9158e-05
-6.29033e-08
1.91311e-05
-7.13678e-08
1.90998e-05
-8.05496e-08
1.90637e-05
-9.05393e-08
1.90224e-05
-1.01436e-07
1.89754e-05
-1.13344e-07
1.8922e-05
-1.26363e-07
1.88618e-05
-1.40567e-07
1.8794e-05
-1.56135e-07
1.87183e-05
-1.73267e-07
1.8634e-05
-1.91395e-07
1.85403e-05
-2.09788e-07
1.84368e-05
-2.28096e-07
1.83233e-05
-2.45466e-07
1.82003e-05
-2.60305e-07
1.80691e-05
-2.70266e-07
1.79323e-05
-2.71753e-07
1.77946e-05
-2.60226e-07
1.76624e-05
-2.26663e-07
1.75475e-05
-1.70777e-07
-6.07805e-08
1.74708e-05
1.92519e-05
-8.80393e-09
1.92525e-05
-1.37928e-08
1.925e-05
-1.61356e-08
1.92454e-05
-1.88555e-08
1.92383e-05
-2.17859e-08
1.92284e-05
-2.48349e-08
1.92153e-05
-2.80632e-08
1.9199e-05
-3.15163e-08
1.91792e-05
-3.52196e-08
1.91555e-05
-3.92093e-08
1.91277e-05
-4.35354e-08
1.90954e-05
-4.82522e-08
1.90582e-05
-5.34132e-08
1.90159e-05
-5.90717e-08
1.89678e-05
-6.52793e-08
1.89135e-05
-7.2077e-08
1.88524e-05
-7.94859e-08
1.87837e-05
-8.73898e-08
1.8706e-05
-9.5552e-08
1.86187e-05
-1.04157e-07
1.85222e-05
-1.13203e-07
1.84162e-05
-1.22125e-07
1.83011e-05
-1.30409e-07
1.81782e-05
-1.37336e-07
1.80496e-05
-1.41662e-07
1.79191e-05
-1.4133e-07
1.77924e-05
-1.33455e-07
1.76778e-05
-1.12095e-07
1.75823e-05
-7.52991e-08
1.19837e-08
1.75095e-05
1.92393e-05
1.92255e-05
1.92094e-05
1.91905e-05
1.91688e-05
1.91439e-05
1.91159e-05
1.90843e-05
1.90491e-05
1.90099e-05
1.89664e-05
1.89181e-05
1.88647e-05
1.88056e-05
1.87404e-05
1.86683e-05
1.85888e-05
1.85014e-05
1.84059e-05
1.83017e-05
1.81885e-05
1.80664e-05
1.7936e-05
1.77986e-05
1.7657e-05
1.75156e-05
1.73822e-05
1.72701e-05
1.71948e-05
1.72068e-05
2.21912e-05
-1.05103e-05
1.0967e-05
2.17379e-05
-1.0638e-05
1.10913e-05
2.1259e-05
-1.07606e-05
1.12396e-05
2.07511e-05
-1.0874e-05
1.13819e-05
2.02197e-05
-1.09856e-05
1.15171e-05
1.96699e-05
-1.10987e-05
1.16485e-05
1.91052e-05
-1.1214e-05
1.17787e-05
1.85281e-05
-1.13324e-05
1.19095e-05
1.79403e-05
-1.1455e-05
1.20427e-05
1.73428e-05
-1.15826e-05
1.21802e-05
1.67355e-05
-1.17159e-05
1.23232e-05
1.61181e-05
-1.18553e-05
1.24727e-05
1.54901e-05
-1.20015e-05
1.26296e-05
1.48507e-05
-1.21556e-05
1.27949e-05
1.41993e-05
-1.23188e-05
1.29702e-05
1.35348e-05
-1.24927e-05
1.31572e-05
1.2856e-05
-1.26792e-05
1.3358e-05
1.21613e-05
-1.28804e-05
1.35752e-05
1.14482e-05
-1.30989e-05
1.38119e-05
1.07141e-05
-1.33378e-05
1.4072e-05
9.95483e-06
-1.3601e-05
1.43603e-05
9.16543e-06
-1.38933e-05
1.46827e-05
8.33897e-06
-1.42204e-05
1.50468e-05
7.46604e-06
-1.45898e-05
1.54628e-05
6.53333e-06
-1.50094e-05
1.59421e-05
5.52175e-06
-1.54921e-05
1.65037e-05
4.4122e-06
-1.60445e-05
1.71541e-05
3.12873e-06
-1.66976e-05
1.7981e-05
1.74566e-06
-1.73691e-05
1.87521e-05
-1.84531e-05
2.01987e-05
2.23292e-05
-1.0037e-05
2.18244e-05
-1.01333e-05
2.12949e-05
-1.02311e-05
2.07496e-05
-1.03288e-05
2.01928e-05
-1.04288e-05
1.96267e-05
-1.05326e-05
1.90527e-05
-1.064e-05
1.84711e-05
-1.07509e-05
1.78817e-05
-1.08656e-05
1.72838e-05
-1.09847e-05
1.66765e-05
-1.11086e-05
1.6059e-05
-1.12378e-05
1.54308e-05
-1.13733e-05
1.47913e-05
-1.1516e-05
1.41396e-05
-1.16671e-05
1.34748e-05
-1.18279e-05
1.27953e-05
-1.19997e-05
1.20994e-05
-1.21845e-05
1.13846e-05
-1.23841e-05
1.0648e-05
-1.26012e-05
9.88549e-06
-1.28386e-05
9.09205e-06
-1.30999e-05
8.26081e-06
-1.33891e-05
7.38256e-06
-1.37116e-05
6.44481e-06
-1.40717e-05
5.43095e-06
-1.44783e-05
4.3171e-06
-1.49307e-05
3.06731e-06
-1.54478e-05
1.68033e-06
-1.59821e-05
-1.67727e-05
2.22329e-05
-9.52519e-06
2.17075e-05
-9.60792e-06
2.117e-05
-9.69361e-06
2.06245e-05
-9.78329e-06
2.00722e-05
-9.8765e-06
1.95124e-05
-9.97276e-06
1.89442e-05
-1.00718e-05
1.83672e-05
-1.01739e-05
1.77809e-05
-1.02793e-05
1.71849e-05
-1.03887e-05
1.6579e-05
-1.05026e-05
1.59628e-05
-1.06216e-05
1.53359e-05
-1.07465e-05
1.46978e-05
-1.08779e-05
1.40475e-05
-1.10168e-05
1.33837e-05
-1.11641e-05
1.2705e-05
-1.1321e-05
1.20093e-05
-1.14888e-05
1.12943e-05
-1.16691e-05
1.05568e-05
-1.18637e-05
9.79291e-06
-1.20747e-05
8.99754e-06
-1.23045e-05
8.16399e-06
-1.25556e-05
7.28343e-06
-1.2831e-05
6.34428e-06
-1.31325e-05
5.33111e-06
-1.34651e-05
4.2224e-06
-1.3822e-05
2.99343e-06
-1.42188e-05
1.61484e-06
-1.46035e-05
-1.51579e-05
2.21358e-05
-9.00427e-06
2.1606e-05
-9.07806e-06
2.10669e-05
-9.15458e-06
2.05201e-05
-9.23641e-06
1.99655e-05
-9.32191e-06
1.94025e-05
-9.40982e-06
1.88309e-05
-9.50018e-06
1.82505e-05
-9.59351e-06
1.76615e-05
-9.69026e-06
1.70636e-05
-9.7908e-06
1.64564e-05
-9.89551e-06
1.58396e-05
-1.00048e-05
1.52125e-05
-1.01193e-05
1.4574e-05
-1.02394e-05
1.39231e-05
-1.03659e-05
1.32585e-05
-1.04995e-05
1.25786e-05
-1.06411e-05
1.18814e-05
-1.07917e-05
1.11646e-05
-1.09522e-05
1.0425e-05
-1.11241e-05
9.65869e-06
-1.13084e-05
8.86077e-06
-1.15066e-05
8.02487e-06
-1.17197e-05
7.14279e-06
-1.19489e-05
6.20399e-06
-1.21937e-05
5.19465e-06
-1.24558e-05
4.09684e-06
-1.27242e-05
2.89017e-06
-1.30121e-05
1.54008e-06
-1.32534e-05
-1.36178e-05
2.19948e-05
-8.47614e-06
2.14591e-05
-8.54237e-06
2.09155e-05
-8.61093e-06
2.03645e-05
-8.68546e-06
1.98064e-05
-8.7638e-06
1.92408e-05
-8.84421e-06
1.86674e-05
-8.92679e-06
1.80861e-05
-9.01217e-06
1.74965e-05
-9.10073e-06
1.68984e-05
-9.19264e-06
1.6291e-05
-9.28816e-06
1.56738e-05
-9.38763e-06
1.5046e-05
-9.49146e-06
1.44067e-05
-9.60008e-06
1.37548e-05
-9.71399e-06
1.3089e-05
-9.83372e-06
1.24077e-05
-9.95985e-06
1.1709e-05
-1.0093e-05
1.09905e-05
-1.02337e-05
1.02491e-05
-1.03827e-05
9.48111e-06
-1.05404e-05
8.68185e-06
-1.07073e-05
7.84543e-06
-1.08833e-05
6.96441e-06
-1.10679e-05
6.0295e-06
-1.12588e-05
5.02865e-06
-1.14549e-05
3.94733e-06
-1.16428e-05
2.76752e-06
-1.18323e-05
1.45957e-06
-1.19455e-05
-1.21582e-05
2.18142e-05
-7.94265e-06
2.12741e-05
-8.00228e-06
2.0727e-05
-8.06381e-06
2.01731e-05
-8.13162e-06
1.96125e-05
-8.2032e-06
1.90448e-05
-8.27647e-06
1.84695e-05
-8.35153e-06
1.78864e-05
-8.42906e-06
1.72951e-05
-8.50941e-06
1.66951e-05
-8.59266e-06
1.60859e-05
-8.67899e-06
1.54669e-05
-8.76863e-06
1.48374e-05
-8.86189e-06
1.41963e-05
-8.95904e-06
1.35427e-05
-9.06039e-06
1.28752e-05
-9.16624e-06
1.21923e-05
-9.27688e-06
1.14919e-05
-9.3926e-06
1.07718e-05
-9.5136e-06
1.00291e-05
-9.63998e-06
9.26031e-06
-9.77163e-06
8.46112e-06
-9.90812e-06
7.62626e-06
-1.00484e-05
6.74916e-06
-1.01908e-05
5.82188e-06
-1.03315e-05
4.8343e-06
-1.04673e-05
3.77491e-06
-1.05835e-05
2.62844e-06
-1.06859e-05
1.37348e-06
-1.06905e-05
-1.07848e-05
2.15885e-05
-7.40446e-06
2.10443e-05
-7.45808e-06
2.04936e-05
-7.51308e-06
1.99364e-05
-7.57447e-06
1.93727e-05
-7.63952e-06
1.88021e-05
-7.70589e-06
1.82243e-05
-7.77365e-06
1.76388e-05
-7.84354e-06
1.70452e-05
-7.91586e-06
1.64432e-05
-7.99062e-06
1.58321e-05
-8.06789e-06
1.52112e-05
-8.14782e-06
1.45799e-05
-8.23058e-06
1.39372e-05
-8.31633e-06
1.3282e-05
-8.40518e-06
1.2613e-05
-8.49723e-06
1.19287e-05
-8.59256e-06
1.12272e-05
-8.69114e-06
1.05064e-05
-8.79281e-06
9.76369e-06
-8.89724e-06
8.99582e-06
-9.00376e-06
8.19899e-06
-9.11129e-06
7.36861e-06
-9.21801e-06
6.4991e-06
-9.32128e-06
5.58391e-06
-9.41635e-06
4.61488e-06
-9.4983e-06
3.58335e-06
-9.55193e-06
2.47709e-06
-9.57962e-06
1.28311e-06
-9.49651e-06
-9.50166e-06
2.13133e-05
-6.86169e-06
2.0765e-05
-6.90978e-06
2.02107e-05
-6.95873e-06
1.96502e-05
-7.01398e-06
1.90834e-05
-7.07271e-06
1.85099e-05
-7.13242e-06
1.79293e-05
-7.19312e-06
1.73414e-05
-7.25556e-06
1.67455e-05
-7.32002e-06
1.61413e-05
-7.38643e-06
1.55282e-05
-7.45478e-06
1.49055e-05
-7.52513e-06
1.42725e-05
-7.59755e-06
1.36283e-05
-7.67207e-06
1.29717e-05
-7.74866e-06
1.23018e-05
-7.82725e-06
1.16169e-05
-7.90769e-06
1.09154e-05
-7.98969e-06
1.01954e-05
-8.07281e-06
9.45452e-06
-8.15632e-06
8.68991e-06
-8.23915e-06
7.89833e-06
-8.31971e-06
7.07591e-06
-8.3956e-06
6.21814e-06
-8.46351e-06
5.31987e-06
-8.51808e-06
4.37487e-06
-8.5533e-06
3.37716e-06
-8.55422e-06
2.3177e-06
-8.52016e-06
1.19135e-06
-8.37016e-06
-8.31031e-06
2.09842e-05
-6.31457e-06
2.0432e-05
-6.35756e-06
1.98741e-05
-6.40089e-06
1.93104e-05
-6.45024e-06
1.87405e-05
-6.50283e-06
1.81642e-05
-6.55609e-06
1.7581e-05
-6.60996e-06
1.69906e-05
-6.66519e-06
1.63926e-05
-6.72201e-06
1.57865e-05
-6.7803e-06
1.51717e-05
-6.83997e-06
1.45476e-05
-6.90102e-06
1.39135e-05
-6.96342e-06
1.32685e-05
-7.02709e-06
1.26117e-05
-7.09187e-06
1.1942e-05
-7.15754e-06
1.1258e-05
-7.22376e-06
1.05584e-05
-7.29005e-06
9.8413e-06
-7.35572e-06
9.10474e-06
-7.41976e-06
8.34637e-06
-7.48078e-06
7.56351e-06
-7.53684e-06
6.75308e-06
-7.58518e-06
5.91161e-06
-7.62204e-06
5.03532e-06
-7.6418e-06
4.11984e-06
-7.63782e-06
3.16159e-06
-7.59597e-06
2.15459e-06
-7.51316e-06
1.10009e-06
-7.31565e-06
-7.21023e-06
2.05986e-05
-5.76339e-06
2.00427e-05
-5.8017e-06
1.94817e-05
-5.83987e-06
1.8915e-05
-5.8836e-06
1.83425e-05
-5.93027e-06
1.77637e-05
-5.97731e-06
1.71784e-05
-6.02464e-06
1.65862e-05
-6.07296e-06
1.59866e-05
-6.12245e-06
1.53793e-05
-6.17295e-06
1.47636e-05
-6.22432e-06
1.41391e-05
-6.27648e-06
1.3505e-05
-6.32933e-06
1.28606e-05
-6.3827e-06
1.22051e-05
-6.43632e-06
1.15374e-05
-6.48985e-06
1.08564e-05
-6.54281e-06
1.01609e-05
-6.59456e-06
9.44942e-06
-6.64422e-06
8.72026e-06
-6.6906e-06