/*--------------------------------*- C++ -*----------------------------------*\
  =========                 |
  \\      /  F ield         | OpenFOAM: The Open Source CFD Toolbox
   \\    /   O peration     | Website:  https://openfoam.org
    \\  /    A nd           | Version:  11
     \\/     M anipulation  |
\*---------------------------------------------------------------------------*/
FoamFile
{
    format      ascii;
    class       surfaceScalarField;
    location    "1.1";
    object      phi;
}
// * * * * * * * * * * * * * * * * * * * * * * * * * * * * * * * * * * * * * //

dimensions      [0 3 -1 0 0 0 0];

internalField   nonuniform List<scalar> 
24840
(
1.53197e-05
1.36689e-08
1.53017e-05
1.79551e-08
1.52852e-05
1.65409e-08
1.52693e-05
1.59085e-08
1.52537e-05
1.55227e-08
1.52389e-05
1.4872e-08
1.5225e-05
1.39111e-08
1.52123e-05
1.26371e-08
1.52012e-05
1.11453e-08
1.51918e-05
9.34351e-09
1.51848e-05
7.00839e-09
1.51806e-05
4.22629e-09
1.51798e-05
8.43662e-10
1.51832e-05
-3.42807e-09
1.5192e-05
-8.75936e-09
1.52073e-05
-1.53703e-08
1.52305e-05
-2.31744e-08
1.52634e-05
-3.28657e-08
1.53086e-05
-4.52607e-08
1.53676e-05
-5.89592e-08
1.54415e-05
-7.38709e-08
1.55348e-05
-9.33313e-08
1.56534e-05
-1.18585e-07
1.58034e-05
-1.50031e-07
1.59927e-05
-1.89342e-07
1.62307e-05
-2.37996e-07
1.65294e-05
-2.98685e-07
1.68978e-05
-3.68341e-07
1.73716e-05
-4.73884e-07
-4.87157e-07
1.78588e-05
1.53395e-05
7.48338e-09
1.53434e-05
1.40535e-08
1.53469e-05
1.30813e-08
1.53504e-05
1.24105e-08
1.53543e-05
1.16531e-08
1.53588e-05
1.03541e-08
1.53642e-05
8.53121e-09
1.53707e-05
6.13473e-09
1.53785e-05
3.35657e-09
1.53878e-05
-1.12621e-12
1.53991e-05
-4.27943e-09
1.54127e-05
-9.34736e-09
1.5429e-05
-1.55063e-08
1.54486e-05
-2.30361e-08
1.5472e-05
-3.21293e-08
1.54998e-05
-4.31417e-08
1.55334e-05
-5.68295e-08
1.55735e-05
-7.29205e-08
1.56183e-05
-9.0134e-08
1.5672e-05
-1.12614e-07
1.57437e-05
-1.45548e-07
1.58381e-05
-1.87804e-07
1.5958e-05
-2.38413e-07
1.61074e-05
-2.99408e-07
1.62914e-05
-3.73366e-07
1.65167e-05
-4.63276e-07
1.67921e-05
-5.74153e-07
1.71293e-05
-7.05528e-07
1.75444e-05
-8.89028e-07
-9.97096e-07
1.80544e-05
1.53362e-05
4.63227e-09
1.53398e-05
1.04548e-08
1.53425e-05
1.04184e-08
1.53456e-05
9.29929e-09
1.53491e-05
8.10218e-09
1.53532e-05
6.26488e-09
1.53581e-05
3.64881e-09
1.5364e-05
1.98147e-10
1.53712e-05
-3.78478e-09
1.53799e-05
-8.72486e-09
1.53904e-05
-1.47815e-08
1.54031e-05
-2.2077e-08
1.54186e-05
-3.09268e-08
1.54372e-05
-4.17146e-08
1.54599e-05
-5.4839e-08
1.54876e-05
-7.08283e-08
1.55213e-05
-9.04743e-08
1.55624e-05
-1.14063e-07
1.56136e-05
-1.4133e-07
1.56761e-05
-1.75112e-07
1.57505e-05
-2.19967e-07
1.584e-05
-2.77303e-07
1.59497e-05
-3.48042e-07
1.60855e-05
-4.35255e-07
1.6255e-05
-5.4285e-07
1.64667e-05
-6.75011e-07
1.67311e-05
-8.38551e-07
1.70596e-05
-1.034e-06
1.74679e-05
-1.29737e-06
-1.51177e-06
1.79826e-05
1.5335e-05
2.99235e-09
1.53381e-05
7.36054e-09
1.53407e-05
7.80992e-09
1.53435e-05
6.49954e-09
1.53468e-05
4.73695e-09
1.53508e-05
2.31443e-09
1.53555e-05
-1.08841e-09
1.53612e-05
-5.46395e-09
1.53682e-05
-1.0731e-08
1.53766e-05
-1.71538e-08
1.53868e-05
-2.49625e-08
1.53991e-05
-3.44017e-08
1.5414e-05
-4.58352e-08
1.5432e-05
-5.97506e-08
1.54539e-05
-7.67226e-08
1.54806e-05
-9.7458e-08
1.55129e-05
-1.22841e-07
1.55524e-05
-1.53577e-07
1.56014e-05
-1.90321e-07
1.5662e-05
-2.35679e-07
1.57357e-05
-2.93632e-07
1.5825e-05
-3.66641e-07
1.59339e-05
-4.56982e-07
1.60675e-05
-5.68786e-07
1.6232e-05
-7.07417e-07
1.64358e-05
-8.7878e-07
1.6689e-05
-1.09172e-06
1.70043e-05
-1.34933e-06
1.73954e-05
-1.68848e-06
-2.01082e-06
1.78944e-05
1.53344e-05
1.94637e-09
1.53368e-05
4.97528e-09
1.53392e-05
5.40402e-09
1.53417e-05
3.92933e-09
1.53449e-05
1.59069e-09
1.53487e-05
-1.48943e-09
1.53533e-05
-5.64664e-09
1.53587e-05
-1.09471e-08
1.53654e-05
-1.74035e-08
1.53735e-05
-2.52319e-08
1.53833e-05
-3.47171e-08
1.5395e-05
-4.61869e-08
1.54093e-05
-6.00894e-08
1.54266e-05
-7.70252e-08
1.54476e-05
-9.7714e-08
1.54731e-05
-1.22997e-07
1.55041e-05
-1.53873e-07
1.5542e-05
-1.91397e-07
1.55885e-05
-2.36849e-07
1.56457e-05
-2.9287e-07
1.57153e-05
-3.633e-07
1.58002e-05
-4.51513e-07
1.59042e-05
-5.60948e-07
1.60319e-05
-6.96539e-07
1.61892e-05
-8.6473e-07
1.63835e-05
-1.07304e-06
1.66241e-05
-1.33231e-06
1.69237e-05
-1.64899e-06
1.7295e-05
-2.05978e-06
-2.48655e-06
1.77708e-05
1.53341e-05
1.22647e-09
1.53359e-05
3.12249e-09
1.53381e-05
3.19522e-09
1.53406e-05
1.47451e-09
1.53435e-05
-1.35772e-09
1.53471e-05
-5.09682e-09
1.53515e-05
-9.98238e-09
1.53567e-05
-1.61676e-08
1.5363e-05
-2.37301e-08
1.53707e-05
-3.28868e-08
1.53799e-05
-4.39601e-08
1.53911e-05
-5.73483e-08
1.54046e-05
-7.3575e-08
1.54209e-05
-9.33278e-08
1.54406e-05
-1.17451e-07
1.54646e-05
-1.46951e-07
1.54937e-05
-1.83022e-07
1.55294e-05
-2.27033e-07
1.55732e-05
-2.80695e-07
1.56271e-05
-3.46742e-07
1.56927e-05
-4.28974e-07
1.57726e-05
-5.31356e-07
1.58699e-05
-6.58288e-07
1.5989e-05
-8.15643e-07
1.61354e-05
-1.01107e-06
1.63161e-05
-1.25373e-06
1.65401e-05
-1.5563e-06
1.68197e-05
-1.92864e-06
1.71667e-05
-2.40678e-06
-2.93439e-06
1.76145e-05
1.53339e-05
6.89594e-10
1.53354e-05
1.63795e-09
1.53373e-05
1.2186e-09
1.53396e-05
-8.14652e-10
1.53424e-05
-4.10659e-09
1.53458e-05
-8.46729e-09
1.53498e-05
-1.40589e-08
1.53547e-05
-2.10781e-08
1.53607e-05
-2.96646e-08
1.53678e-05
-4.00536e-08
1.53765e-05
-5.25985e-08
1.53869e-05
-6.77584e-08
1.53995e-05
-8.61321e-08
1.54146e-05
-1.08495e-07
1.5433e-05
-1.35805e-07
1.54552e-05
-1.69208e-07
1.54823e-05
-2.10066e-07
1.55152e-05
-2.59994e-07
1.55556e-05
-3.21035e-07
1.56049e-05
-3.96111e-07
1.56651e-05
-4.89134e-07
1.57383e-05
-6.0457e-07
1.58276e-05
-7.47618e-07
1.5937e-05
-9.24976e-07
1.60712e-05
-1.14531e-06
1.62367e-05
-1.41923e-06
1.64416e-05
-1.76115e-06
1.66973e-05
-2.18442e-06
1.7015e-05
-2.72441e-06
-3.34759e-06
1.74282e-05
1.53338e-05
2.60784e-10
1.5335e-05
4.17805e-10
1.53367e-05
-5.28498e-10
1.53389e-05
-2.9286e-09
1.53414e-05
-6.65596e-09
1.53445e-05
-1.15891e-08
1.53483e-05
-1.78485e-08
1.53529e-05
-2.56428e-08
1.53584e-05
-3.51632e-08
1.5365e-05
-4.6673e-08
1.5373e-05
-6.05567e-08
1.53825e-05
-7.73271e-08
1.53941e-05
-9.76514e-08
1.54079e-05
-1.22384e-07
1.54247e-05
-1.52578e-07
1.5445e-05
-1.89498e-07
1.54696e-05
-2.34658e-07
1.54995e-05
-2.89896e-07
1.5536e-05
-3.57531e-07
1.55806e-05
-4.40676e-07
1.56348e-05
-5.43391e-07
1.57008e-05
-6.7052e-07
1.5781e-05
-8.27892e-07
1.5879e-05
-1.02294e-06
1.5999e-05
-1.26528e-06
1.61466e-05
-1.56683e-06
1.6329e-05
-1.94363e-06
1.6557e-05
-2.41234e-06
1.68403e-05
-3.00774e-06
-3.71954e-06
1.72122e-05
1.53337e-05
-1.02523e-10
1.53347e-05
-6.04222e-10
1.53363e-05
-2.06395e-09
1.53382e-05
-4.85519e-09
1.53405e-05
-8.9991e-09
1.53434e-05
-1.44535e-08
1.53469e-05
-2.13253e-08
1.53511e-05
-2.98241e-08
1.53561e-05
-4.01799e-08
1.53621e-05
-5.26879e-08
1.53693e-05
-6.77638e-08
1.53779e-05
-8.59649e-08
1.53883e-05
-1.08016e-07
1.54008e-05
-1.34841e-07
1.54158e-05
-1.6758e-07
1.54339e-05
-2.07608e-07
1.54558e-05
-2.56576e-07
1.54824e-05
-3.16488e-07
1.55147e-05
-3.89863e-07
1.5554e-05
-4.79979e-07
1.56017e-05
-5.91061e-07
1.56595e-05
-7.28286e-07
1.57296e-05
-8.9801e-07
1.58149e-05
-1.10829e-06
1.59191e-05
-1.3695e-06
1.6047e-05
-1.69468e-06
1.62046e-05
-2.10123e-06
1.64012e-05
-2.6089e-06
1.66453e-05
-3.25189e-06
-4.04298e-06
1.69687e-05
1.53336e-05
-4.1363e-10
1.53345e-05
-1.47104e-09
1.53359e-05
-3.41271e-09
1.53376e-05
-6.59763e-09
1.53397e-05
-1.11369e-08
1.53424e-05
-1.70572e-08
1.53455e-05
-2.44719e-08
1.53493e-05
-3.35924e-08
1.53538e-05
-4.46769e-08
1.53591e-05
-5.80505e-08
1.53655e-05
-7.41571e-08
1.53732e-05
-9.3592e-08
1.53823e-05
-1.17131e-07
1.53932e-05
-1.45758e-07
1.54063e-05
-1.80685e-07
1.54221e-05
-2.23374e-07
1.54411e-05
-2.75579e-07
1.5464e-05
-3.39443e-07
1.54918e-05
-4.1764e-07
1.55254e-05
-5.13601e-07
1.55661e-05
-6.31698e-07
1.56151e-05
-7.77357e-07
1.56744e-05
-9.57314e-07
1.57462e-05
-1.18009e-06
1.58334e-05
-1.45668e-06
1.59397e-05
-1.80099e-06
1.607e-05
-2.23154e-06
1.62319e-05
-2.77077e-06
1.64323e-05
-3.45224e-06
-4.31071e-06
1.67e-05
1.53336e-05
-6.75864e-10
1.53343e-05
-2.21939e-09
1.53355e-05
-4.60343e-09
1.53371e-05
-8.16373e-09
1.5339e-05
-1.30652e-08
1.53414e-05
-1.93909e-08
1.53442e-05
-2.72716e-08
1.53475e-05
-3.69227e-08
1.53515e-05
-4.86214e-08
1.53561e-05
-6.27186e-08
1.53616e-05
-7.96838e-08
1.53682e-05
-1.00144e-07
1.5376e-05
-1.24914e-07
1.53853e-05
-1.55027e-07
1.53963e-05
-1.91753e-07
1.54096e-05
-2.36625e-07
1.54255e-05
-2.91483e-07
1.54446e-05
-3.58566e-07
1.54676e-05
-4.40655e-07
1.54953e-05
-5.41283e-07
1.55285e-05
-6.64932e-07
1.55684e-05
-8.17208e-07
1.56162e-05
-1.00512e-06
1.56736e-05
-1.23751e-06
1.57427e-05
-1.52579e-06
1.58261e-05
-1.88442e-06
1.59273e-05
-2.33272e-06
1.60518e-05
-2.89523e-06
1.62043e-05
-3.60474e-06
-4.51589e-06
1.64094e-05
1.53336e-05
-8.98684e-10
1.53342e-05
-2.87564e-09
1.53353e-05
-5.6542e-09
1.53367e-05
-9.55762e-09
1.53384e-05
-1.4781e-08
1.53404e-05
-2.14493e-08
1.53429e-05
-2.97136e-08
1.53458e-05
-3.97961e-08
1.53491e-05
-5.19873e-08
1.53531e-05
-6.66585e-08
1.53577e-05
-8.43004e-08
1.53631e-05
-1.05565e-07
1.53695e-05
-1.31297e-07
1.5377e-05
-1.62567e-07
1.5386e-05
-2.0069e-07
1.53966e-05
-2.47248e-07
1.54092e-05
-3.04138e-07
1.54243e-05
-3.73662e-07
1.54424e-05
-4.58669e-07
1.54638e-05
-5.62757e-07
1.54894e-05
-6.90474e-07
1.55197e-05
-8.47524e-07
1.55556e-05
-1.04105e-06
1.55982e-05
-1.28006e-06
1.56485e-05
-1.57611e-06
1.57081e-05
-1.94399e-06
1.57787e-05
-2.40334e-06
1.58636e-05
-2.98016e-06
1.5965e-05
-3.70611e-06
-4.65257e-06
1.61016e-05
1.53335e-05
-1.09232e-09
1.53341e-05
-3.45303e-09
1.5335e-05
-6.58066e-09
1.53363e-05
-1.07878e-08
1.53378e-05
-1.62856e-08
1.53396e-05
-2.32292e-08
1.53416e-05
-3.17902e-08
1.5344e-05
-4.21987e-08
1.53468e-05
-5.47548e-08
1.535e-05
-6.98441e-08
1.53537e-05
-8.79738e-08
1.53579e-05
-1.09813e-07
1.53629e-05
-1.3623e-07
1.53686e-05
-1.68317e-07
1.53753e-05
-2.07417e-07
1.53832e-05
-2.55146e-07
1.53925e-05
-3.13433e-07
1.54035e-05
-3.84612e-07
1.54164e-05
-4.7156e-07
1.54315e-05
-5.7789e-07
1.54492e-05
-7.0816e-07
1.54697e-05
-8.68088e-07
1.54935e-05
-1.06483e-06
1.55209e-05
-1.30739e-06
1.5552e-05
-1.60726e-06
1.55872e-05
-1.97916e-06
1.56265e-05
-2.44264e-06
1.56706e-05
-3.02428e-06
1.57187e-05
-3.75417e-06
-4.71624e-06
1.57823e-05
1.53335e-05
-1.263e-09
1.5334e-05
-3.9633e-09
1.53348e-05
-7.39725e-09
1.53359e-05
-1.18638e-08
1.53372e-05
-1.75822e-08
1.53387e-05
-2.47303e-08
1.53404e-05
-3.34976e-08
1.53423e-05
-4.41226e-08
1.53445e-05
-5.6911e-08
1.53469e-05
-7.22579e-08
1.53496e-05
-9.06814e-08
1.53527e-05
-1.12862e-07
1.53561e-05
-1.39677e-07
1.536e-05
-1.72233e-07
1.53645e-05
-2.11885e-07
1.53696e-05
-2.60262e-07
1.53755e-05
-3.19301e-07
1.53822e-05
-3.91337e-07
1.53899e-05
-4.79237e-07
1.53986e-05
-5.86589e-07
1.54083e-05
-7.17904e-07
1.54191e-05
-8.7883e-07
1.54307e-05
-1.07642e-06
1.54427e-05
-1.31947e-06
1.54547e-05
-1.61919e-06
1.54654e-05
-1.98989e-06
1.54732e-05
-2.45047e-06
1.54762e-05
-3.02726e-06
1.54701e-05
-3.7481e-06
-4.70442e-06
1.54583e-05
1.53335e-05
-1.41513e-09
1.53339e-05
-4.41743e-09
1.53347e-05
-8.11726e-09
1.53356e-05
-1.27962e-08
1.53367e-05
-1.8677e-08
1.53379e-05
-2.5955e-08
1.53393e-05
-3.4836e-08
1.53407e-05
-4.55647e-08
1.53422e-05
-5.84497e-08
1.53439e-05
-7.38907e-08
1.53456e-05
-9.24109e-08
1.53474e-05
-1.14694e-07
1.53494e-05
-1.41619e-07
1.53514e-05
-1.74293e-07
1.53536e-05
-2.14069e-07
1.53559e-05
-2.62567e-07
1.53583e-05
-3.21712e-07
1.53608e-05
-3.93811e-07
1.53633e-05
-4.81689e-07
1.53655e-05
-5.88863e-07
1.53674e-05
-7.1974e-07
1.53684e-05
-8.79813e-07
1.53679e-05
-1.0759e-06
1.53649e-05
-1.31647e-06
1.53578e-05
-1.61218e-06
1.53445e-05
-1.97658e-06
1.53215e-05
-2.42744e-06
1.52841e-05
-2.98984e-06
1.52246e-05
-3.68864e-06
-4.61719e-06
1.51374e-05
1.53335e-05
-1.55256e-09
1.53339e-05
-4.82605e-09
1.53345e-05
-8.7541e-09
1.53353e-05
-1.3597e-08
1.53362e-05
-1.95782e-08
1.53372e-05
-2.69092e-08
1.53382e-05
-3.58093e-08
1.53391e-05
-4.65274e-08
1.534e-05
-5.93718e-08
1.53409e-05
-7.4742e-08
1.53416e-05
-9.31609e-08
1.53423e-05
-1.15308e-07
1.53427e-05
-1.42056e-07
1.53429e-05
-1.74497e-07
1.53428e-05
-2.13968e-07
1.53423e-05
-2.62064e-07
1.53413e-05
-3.20675e-07
1.53395e-05
-3.92057e-07
1.53368e-05
-4.78958e-07
1.53327e-05
-5.84786e-07
1.53268e-05
-7.13788e-07
1.53182e-05
-8.71226e-07
1.53058e-05
-1.06358e-06
1.52882e-05
-1.29882e-06
1.52629e-05
-1.58685e-06
1.52264e-05
-1.94015e-06
1.51738e-05
-2.37482e-06
1.50978e-05
-2.91382e-06
1.49874e-05
-3.57825e-06
-4.45754e-06
1.48277e-05
1.53335e-05
-1.67911e-09
1.53338e-05
-5.20028e-09
1.53344e-05
-9.32218e-09
1.53351e-05
-1.42794e-08
1.53358e-05
-2.02965e-08
1.53365e-05
-2.76014e-08
1.53371e-05
-3.64255e-08
1.53376e-05
-4.70183e-08
1.53379e-05
-5.96843e-08
1.5338e-05
-7.48192e-08
1.53378e-05
-9.29404e-08
1.53372e-05
-1.14716e-07
1.53361e-05
-1.41001e-07
1.53345e-05
-1.72863e-07
1.53321e-05
-2.11608e-07
1.53289e-05
-2.58788e-07
1.53244e-05
-3.16239e-07
1.53185e-05
-3.86144e-07
1.53107e-05
-4.71148e-07
1.53004e-05
-5.74511e-07
1.52869e-05
-7.0027e-07
1.52691e-05
-8.53383e-07
1.52454e-05
-1.0399e-06
1.52137e-05
-1.26715e-06
1.5171e-05
-1.54411e-06
1.51128e-05
-1.88192e-06
1.50325e-05
-2.2946e-06
1.49208e-05
-2.8021e-06
1.47637e-05
-3.42109e-06
-4.23152e-06
1.45376e-05
1.53335e-05
-1.79909e-09
1.53338e-05
-5.55273e-09
1.53343e-05
-9.83783e-09
1.53349e-05
-1.48587e-08
1.53355e-05
-2.08442e-08
1.53359e-05
-2.8043e-08
1.53362e-05
-3.66963e-08
1.53362e-05
-4.70499e-08
1.53359e-05
-5.9401e-08
1.53352e-05
-7.41385e-08
1.53341e-05
-9.17687e-08
1.53323e-05
-1.12942e-07
1.53298e-05
-1.38484e-07
1.53264e-05
-1.6943e-07
1.53218e-05
-2.07037e-07
1.53158e-05
-2.52802e-07
1.5308e-05
-3.08487e-07
1.52981e-05
-3.76185e-07
1.52853e-05
-4.58414e-07
1.52691e-05
-5.58254e-07
1.52483e-05
-6.79483e-07
1.52216e-05
-8.267e-07
1.51872e-05
-1.00544e-06
1.51423e-05
-1.22229e-06
1.50834e-05
-1.48517e-06
1.50051e-05
-1.80365e-06
1.48998e-05
-2.18935e-06
1.47563e-05
-2.65854e-06
1.45581e-05
-3.22292e-06
-3.94813e-06
1.42747e-05
1.53335e-05
-1.91774e-09
1.53338e-05
-5.89875e-09
1.53343e-05
-1.03201e-08
1.53348e-05
-1.53515e-08
1.53352e-05
-2.12357e-08
1.53354e-05
-2.82483e-08
1.53353e-05
-3.66374e-08
1.53349e-05
-4.66396e-08
1.53341e-05
-5.85418e-08
1.53326e-05
-7.27236e-08
1.53305e-05
-8.96754e-08
1.53276e-05
-1.10021e-07
1.53237e-05
-1.34551e-07
1.53185e-05
-1.64254e-07
1.53118e-05
-2.00328e-07
1.53032e-05
-2.44197e-07
1.52923e-05
-2.97539e-07
1.52784e-05
-3.62335e-07
1.5261e-05
-4.4096e-07
1.5239e-05
-5.36288e-07
1.52113e-05
-6.51804e-07
1.51763e-05
-7.91693e-07
1.51318e-05
-9.60909e-07
1.50747e-05
-1.16524e-06
1.5001e-05
-1.41144e-06
1.49047e-05
-1.70739e-06
1.47775e-05
-2.06211e-06
1.46067e-05
-2.48775e-06
1.43745e-05
-2.99076e-06
-3.61887e-06
1.40453e-05
1.53335e-05
-2.04193e-09
1.53338e-05
-6.25807e-09
1.53343e-05
-1.07918e-08
1.53347e-05
-1.57765e-08
1.5335e-05
-2.14867e-08
1.5335e-05
-2.82344e-08
1.53346e-05
-3.62682e-08
1.53338e-05
-4.58092e-08
1.53324e-05
-5.71322e-08
1.53302e-05
-7.06058e-08
1.53273e-05
-8.66992e-08
1.53232e-05
-1.06003e-07
1.5318e-05
-1.29264e-07
1.53111e-05
-1.57412e-07
1.53024e-05
-1.91572e-07
1.52913e-05
-2.33085e-07
1.52772e-05
-2.83534e-07
1.52597e-05
-3.44785e-07
1.52378e-05
-4.19049e-07
1.52105e-05
-5.08968e-07
1.51764e-05
-6.17696e-07
1.51336e-05
-7.48967e-07
1.50798e-05
-9.07122e-07
1.50117e-05
-1.09711e-06
1.49247e-05
-1.32448e-06
1.48127e-05
-1.59539e-06
1.46669e-05
-1.91622e-06
1.44739e-05
-2.29483e-06
1.42157e-05
-2.7325e-06
-3.25694e-06
1.38537e-05
1.53335e-05
-2.18131e-09
1.53339e-05
-6.65713e-09
1.53344e-05
-1.12802e-08
1.53347e-05
-1.61533e-08
1.53349e-05
-2.16147e-08
1.53347e-05
-2.80203e-08
1.5334e-05
-3.56102e-08
1.53328e-05
-4.45843e-08
1.53309e-05
-5.52044e-08
1.53281e-05
-6.78258e-08
1.53243e-05
-8.28895e-08
1.53192e-05
-1.00946e-07
1.53126e-05
-1.22693e-07
1.53042e-05
-1.48993e-07
1.52935e-05
-1.80888e-07
1.52801e-05
-2.19621e-07
1.52632e-05
-2.66666e-07
1.52422e-05
-3.23761e-07
1.52161e-05
-3.92953e-07
1.51838e-05
-4.7664e-07
1.51437e-05
-5.77629e-07
1.50939e-05
-6.99171e-07
1.50317e-05
-8.44964e-07
1.49537e-05
-1.0191e-06
1.48552e-05
-1.22596e-06
1.47298e-05
-1.47001e-06
1.45688e-05
-1.75517e-06
1.4359e-05
-2.08509e-06
1.40829e-05
-2.45639e-06
-2.87632e-06
1.37023e-05
1.53335e-05
-2.35076e-09
1.5334e-05
-7.13234e-09
1.53345e-05
-1.18186e-08
1.53349e-05
-1.65004e-08
1.53349e-05
-2.16321e-08
1.53345e-05
-2.76301e-08
1.53336e-05
-3.46963e-08
1.5332e-05
-4.29978e-08
1.53296e-05
-5.27947e-08
1.53262e-05
-6.44265e-08
1.53216e-05
-7.83008e-08
1.53156e-05
-9.49218e-08
1.53078e-05
-1.14929e-07
1.52979e-05
-1.39106e-07
1.52854e-05
-1.68399e-07
1.52698e-05
-2.03949e-07
1.52502e-05
-2.47122e-07
1.5226e-05
-2.99526e-07
1.51961e-05
-3.63025e-07
1.51592e-05
-4.39756e-07
1.51137e-05
-5.32161e-07
1.50575e-05
-6.42999e-07
1.49879e-05
-7.75328e-07
1.49012e-05
-9.32415e-07
1.47928e-05
-1.11752e-06
1.46563e-05
-1.33359e-06
1.44835e-05
-1.58237e-06
1.42622e-05
-1.86372e-06
1.39762e-05
-2.17041e-06
-2.49061e-06
1.35905e-05
1.53336e-05
-2.5752e-09
1.53342e-05
-7.73595e-09
1.53348e-05
-1.24427e-08
1.53351e-05
-1.68365e-08
1.53351e-05
-2.15699e-08
1.53345e-05
-2.70902e-08
1.53334e-05
-3.35438e-08
1.53315e-05
-4.10762e-08
1.53286e-05
-4.99423e-08
1.53246e-05
-6.04616e-08
1.53193e-05
-7.29984e-08
1.53124e-05
-8.80056e-08
1.53036e-05
-1.06066e-07
1.52923e-05
-1.2788e-07
1.52782e-05
-1.54284e-07
1.52606e-05
-1.86297e-07
1.52386e-05
-2.25158e-07
1.52114e-05
-2.72344e-07
1.5178e-05
-3.29556e-07
1.51369e-05
-3.98686e-07
1.50865e-05
-4.81808e-07
1.50247e-05
-5.81165e-07
1.49485e-05
-6.99164e-07
1.48544e-05
-8.38277e-07
1.47376e-05
-1.00077e-06
1.45924e-05
-1.18831e-06
1.44109e-05
-1.40094e-06
1.41826e-05
-1.63539e-06
1.38939e-05
-1.88172e-06
-2.11191e-06
1.35152e-05
1.53337e-05
-2.89541e-09
1.53345e-05
-8.5449e-09
1.53352e-05
-1.31907e-08
1.53356e-05
-1.71766e-08
1.53354e-05
-2.14479e-08
1.53348e-05
-2.64281e-08
1.53334e-05
-3.21841e-08
1.53312e-05
-3.88535e-08
1.53279e-05
-4.66894e-08
1.53235e-05
-5.59856e-08
1.53175e-05
-6.70544e-08
1.53098e-05
-8.02911e-08
1.53e-05
-9.62155e-08
1.52875e-05
-1.15434e-07
1.52719e-05
-1.38671e-07
1.52524e-05
-1.66823e-07
1.52283e-05
-2.01003e-07
1.51985e-05
-2.42546e-07
1.51619e-05
-2.92977e-07
1.51172e-05
-3.53941e-07
1.50625e-05
-4.27145e-07
1.49957e-05
-5.14335e-07
1.49138e-05
-6.17297e-07
1.48133e-05
-7.37771e-07
1.46897e-05
-8.77168e-07
1.45375e-05
-1.03614e-06
1.43501e-05
-1.21358e-06
1.41187e-05
-1.40396e-06
1.3833e-05
-1.59605e-06
-1.74984e-06
1.3471e-05
1.53338e-05
-3.38356e-09
1.5335e-05
-9.67166e-09
1.53358e-05
-1.40836e-08
1.53362e-05
-1.7532e-08
1.53361e-05
-2.13001e-08
1.53353e-05
-2.56767e-08
1.53338e-05
-3.06503e-08
1.53313e-05
-3.63735e-08
1.53277e-05
-4.30913e-08
1.53228e-05
-5.1065e-08
1.53163e-05
-6.0545e-08
1.53079e-05
-7.18695e-08
1.52971e-05
-8.54983e-08
1.52836e-05
-1.01933e-07
1.52667e-05
-1.21774e-07
1.52457e-05
-1.45789e-07
1.52197e-05
-1.74955e-07
1.51876e-05
-2.10461e-07
1.51483e-05
-2.53657e-07
1.51003e-05
-3.05945e-07
1.50418e-05
-3.68682e-07
1.49706e-05
-4.43141e-07
1.48838e-05
-5.30516e-07
1.47779e-05
-6.31866e-07
1.46486e-05
-7.47877e-07
1.4491e-05
-8.78497e-07
1.42997e-05
-1.02225e-06
1.4068e-05
-1.17231e-06
1.37897e-05
-1.31778e-06
-1.41167e-06
1.34515e-05
1.53341e-05
-4.1778e-09
1.53357e-05
-1.12846e-08
1.53368e-05
-1.51084e-08
1.53371e-05
-1.79076e-08
1.5337e-05
-2.11504e-08
1.53362e-05
-2.48485e-08
1.53345e-05
-2.89594e-08
1.53318e-05
-3.36682e-08
1.53279e-05
-3.91968e-08
1.53226e-05
-4.5769e-08
1.53156e-05
-5.35544e-08
1.53066e-05
-6.28395e-08
1.52951e-05
-7.40298e-08
1.52807e-05
-8.75272e-08
1.52627e-05
-1.03811e-07
1.52404e-05
-1.23474e-07
1.52127e-05
-1.4728e-07
1.51785e-05
-1.76238e-07
1.51365e-05
-2.11591e-07
1.50852e-05
-2.54646e-07
1.5023e-05
-3.06524e-07
1.49479e-05
-3.67998e-07
1.48569e-05
-4.39562e-07
1.47466e-05
-5.21541e-07
1.46128e-05
-6.1406e-07
1.44511e-05
-7.16861e-07
1.4258e-05
-8.29121e-07
1.40292e-05
-9.43484e-07
1.37628e-05
-1.05142e-06
-1.10193e-06
1.34531e-05
1.53347e-05
-5.53159e-09
1.5337e-05
-1.35883e-08
1.53381e-05
-1.62593e-08
1.53386e-05
-1.83853e-08
1.53385e-05
-2.10531e-08
1.53376e-05
-2.39668e-08
1.53358e-05
-2.71445e-08
1.5333e-05
-3.07817e-08
1.53288e-05
-3.50605e-08
1.53232e-05
-4.01718e-08
1.53158e-05
-4.61649e-08
1.53063e-05
-5.33176e-08
1.52943e-05
-6.19717e-08
1.52791e-05
-7.23838e-08
1.52602e-05
-8.4917e-08
1.52368e-05
-1.00022e-07
1.52078e-05
-1.18293e-07
1.51721e-05
-1.40557e-07
1.51283e-05
-1.67831e-07
1.50748e-05
-2.01133e-07
1.50095e-05
-2.41242e-07
1.49301e-05
-2.88598e-07
1.48341e-05
-3.43484e-07
1.47186e-05
-4.06107e-07
1.4581e-05
-4.76416e-07
1.44182e-05
-5.54079e-07
1.42282e-05
-6.3913e-07
1.4008e-05
-7.23261e-07
1.37596e-05
-8.03089e-07
-8.21752e-07
1.34795e-05
1.53358e-05
-8.00823e-09
1.53387e-05
-1.64401e-08
1.53399e-05
-1.74531e-08
1.53406e-05
-1.90903e-08
1.53406e-05
-2.10405e-08
1.53396e-05
-2.30509e-08
1.53377e-05
-2.52495e-08
1.53347e-05
-2.77685e-08
1.53304e-05
-3.07318e-08
1.53246e-05
-3.43668e-08
1.53169e-05
-3.85018e-08
1.53071e-05
-4.343e-08
1.52946e-05
-4.94689e-08
1.52789e-05
-5.67075e-08
1.52594e-05
-6.54114e-08
1.52352e-05
-7.58905e-08
1.52055e-05
-8.85361e-08
1.51688e-05
-1.03852e-07
1.51234e-05
-1.2246e-07
1.50674e-05
-1.45084e-07
1.49986e-05
-1.72498e-07
1.49155e-05
-2.05441e-07
1.48165e-05
-2.44498e-07
1.47002e-05
-2.89854e-07
1.45648e-05
-3.40966e-07
1.44077e-05
-3.97022e-07
1.42266e-05
-4.57988e-07
1.40176e-05
-5.14318e-07
1.37832e-05
-5.68679e-07
-5.53643e-07
1.35151e-05
1.53395e-05
-1.41896e-08
1.53425e-05
-1.94078e-08
1.53436e-05
-1.85658e-08
1.53437e-05
-1.92342e-08
1.53431e-05
-2.03542e-08
1.53414e-05
-2.14171e-08
1.53387e-05
-2.25504e-08
1.53348e-05
-2.38507e-08
1.53295e-05
-2.53866e-08
1.53224e-05
-2.73159e-08
1.53134e-05
-2.94368e-08
1.53019e-05
-3.19659e-08
1.52875e-05
-3.51032e-08
1.52697e-05
-3.88376e-08
1.52476e-05
-4.3317e-08
1.52204e-05
-4.872e-08
1.51872e-05
-5.53049e-08
1.51468e-05
-6.34529e-08
1.5098e-05
-7.36698e-08
1.50394e-05
-8.65358e-08
1.49695e-05
-1.026e-07
1.48863e-05
-1.22251e-07
1.47874e-05
-1.45605e-07
1.467e-05
-1.72455e-07
1.45313e-05
-2.02221e-07
1.43679e-05
-2.33592e-07
1.4174e-05
-2.64104e-07
1.39484e-05
-2.88697e-07
1.3688e-05
-3.08286e-07
-2.31015e-07
1.33653e-05
1.53191e-05
1.52997e-05
1.52812e-05
1.52619e-05
1.52416e-05
1.52202e-05
1.51976e-05
1.51738e-05
1.51484e-05
1.51211e-05
1.50916e-05
1.50597e-05
1.50246e-05
1.49857e-05
1.49424e-05
1.48937e-05
1.48384e-05
1.47749e-05
1.47013e-05
1.46147e-05
1.45121e-05
1.43899e-05
1.42443e-05
1.40718e-05
1.38696e-05
1.3636e-05
1.33719e-05
1.30832e-05
1.27749e-05
1.25439e-05
1.75999e-05
-8.20032e-06
8.45919e-06
1.73602e-05
-8.34821e-06
8.58795e-06
1.70889e-05
-8.4959e-06
8.76714e-06
1.67853e-05
-8.6362e-06
8.93982e-06
1.64551e-05
-8.77685e-06
9.10711e-06
1.61037e-05
-8.92201e-06
9.27338e-06
1.57345e-05
-9.07305e-06
9.44221e-06
1.53495e-05
-9.23076e-06
9.61576e-06
1.49497e-05
-9.39591e-06
9.79573e-06
1.45352e-05
-9.56894e-06
9.98346e-06
1.41053e-05
-9.75004e-06
1.01799e-05
1.36592e-05
-9.93942e-06
1.03855e-05
1.31957e-05
-1.01375e-05
1.0601e-05
1.27139e-05
-1.0345e-05
1.08269e-05
1.22126e-05
-1.05631e-05
1.10644e-05
1.16909e-05
-1.07931e-05
1.13148e-05
1.11474e-05
-1.10367e-05
1.15802e-05
1.05806e-05
-1.12961e-05
1.18629e-05
9.9885e-06
-1.15737e-05
1.21658e-05
9.36862e-06
-1.18729e-05
1.24927e-05
8.71778e-06
-1.21975e-05
1.28483e-05
8.03184e-06
-1.25527e-05
1.32386e-05
7.3054e-06
-1.2945e-05
1.36714e-05
6.53133e-06
-1.33826e-05
1.41567e-05
5.69933e-06
-1.38761e-05
1.47081e-05
4.79718e-06
-1.44396e-05
1.53418e-05
3.81e-06
-1.50886e-05
1.60758e-05
2.66898e-06
-1.5868e-05
1.70091e-05
1.49039e-06
-1.66559e-05
1.78344e-05
-1.80691e-05
1.95595e-05
1.77789e-05
-7.92486e-06
1.74702e-05
-8.03947e-06
1.71357e-05
-8.16138e-06
1.67847e-05
-8.28524e-06
1.64215e-05
-8.41364e-06
1.60479e-05
-8.54838e-06
1.56643e-05
-8.68945e-06
1.52702e-05
-8.83664e-06
1.48643e-05
-8.99006e-06
1.44453e-05
-9.14989e-06
1.40116e-05
-9.3164e-06
1.35622e-05
-9.49e-06
1.30961e-05
-9.67138e-06
1.26124e-05
-9.86137e-06
1.21104e-05
-1.0061e-05
1.15888e-05
-1.02715e-05
1.10464e-05
-1.04943e-05
1.04815e-05
-1.07312e-05
9.89203e-06
-1.09842e-05
9.2754e-06
-1.12562e-05
8.62834e-06
-1.15504e-05
7.94667e-06
-1.1871e-05
7.22494e-06
-1.22232e-05
6.45597e-06
-1.26137e-05
5.6302e-06
-1.30503e-05
4.73502e-06
-1.35444e-05
3.75279e-06
-1.41064e-05
2.6499e-06
-1.47652e-05
1.45305e-06
-1.5459e-05
-1.66161e-05
1.76668e-05
-7.60904e-06
1.73371e-05
-7.70983e-06
1.69947e-05
-7.81891e-06
1.66433e-05
-7.93388e-06
1.62836e-05
-8.05394e-06
1.59142e-05
-8.17902e-06
1.55338e-05
-8.30904e-06
1.51412e-05
-8.44403e-06
1.47354e-05
-8.58426e-06
1.43156e-05
-8.73011e-06
1.38812e-05
-8.88201e-06
1.34317e-05
-9.04048e-06
1.29664e-05
-9.2061e-06
1.24846e-05
-9.37958e-06
1.19853e-05
-9.56171e-06
1.14673e-05
-9.75348e-06
1.0929e-05
-9.95607e-06
1.03688e-05
-1.01709e-05
9.7844e-06
-1.03999e-05
9.17324e-06
-1.0645e-05
8.53193e-06
-1.09091e-05
7.85622e-06
-1.11953e-05
7.14063e-06
-1.15077e-05
6.37802e-06
-1.18511e-05
5.55909e-06
-1.22314e-05
4.67135e-06
-1.26567e-05
3.69855e-06
-1.31336e-05
2.61521e-06
-1.36818e-05
1.41766e-06
-1.42614e-05
-1.51984e-05
1.75685e-05
-7.28314e-06
1.72333e-05
-7.37459e-06
1.68876e-05
-7.47324e-06
1.65324e-05
-7.57868e-06
1.61676e-05
-7.68906e-06
1.5792e-05
-7.80348e-06
1.54051e-05
-7.9221e-06
1.50063e-05
-8.04529e-06
1.45954e-05
-8.17336e-06
1.41719e-05
-8.30657e-06
1.37352e-05
-8.44526e-06
1.32845e-05
-8.5898e-06
1.2819e-05
-8.74065e-06
1.23378e-05
-8.89837e-06
1.18397e-05
-9.06363e-06
1.13235e-05
-9.23724e-06
1.07876e-05
-9.42019e-06
1.02303e-05
-9.61364e-06
9.6494e-06
-9.81896e-06
9.04218e-06
-1.00378e-05
8.4053e-06
-1.02722e-05
7.73452e-06
-1.05245e-05
7.02445e-06
-1.07976e-05
6.26819e-06
-1.10948e-05
5.45684e-06
-1.14201e-05
4.57869e-06
-1.17786e-05
3.61874e-06
-1.21736e-05
2.55598e-06
-1.2619e-05
1.37479e-06
-1.30803e-05
-1.38236e-05
1.74355e-05
-6.94788e-06
1.7092e-05
-7.03104e-06
1.67391e-05
-7.12041e-06
1.63773e-05
-7.21686e-06
1.60064e-05
-7.31813e-06
1.56258e-05
-7.42287e-06
1.52349e-05
-7.53123e-06
1.48333e-05
-7.64369e-06
1.44204e-05
-7.7605e-06
1.39957e-05
-7.8818e-06
1.35582e-05
-8.00784e-06
1.31074e-05
-8.13894e-06
1.26422e-05
-8.2755e-06
1.21618e-05
-8.41799e-06
1.16652e-05
-8.56696e-06
1.11509e-05
-8.72302e-06
1.06177e-05
-8.88691e-06
1.00635e-05
-9.05948e-06
9.4863e-06
-9.24174e-06
8.88332e-06
-9.43485e-06
8.25125e-06
-9.64017e-06
7.58597e-06
-9.85925e-06
6.88225e-06
-1.00939e-05
6.13355e-06
-1.03461e-05
5.33146e-06
-1.0618e-05
4.46523e-06
-1.09123e-05
3.52114e-06
-1.12296e-05
2.48059e-06
-1.15785e-05
1.32467e-06
-1.19243e-05
-1.2499e-05
1.7272e-05
-6.6054e-06
1.69221e-05
-6.68111e-06
1.65639e-05
-6.76215e-06
1.61973e-05
-6.85026e-06
1.58221e-05
-6.94294e-06
1.54377e-05
-7.03851e-06
1.50436e-05
-7.13711e-06
1.46392e-05
-7.23927e-06
1.42239e-05
-7.34524e-06
1.37972e-05
-7.4551e-06
1.33584e-05
-7.56904e-06
1.29068e-05
-7.68731e-06
1.24415e-05
-7.81024e-06
1.19617e-05
-7.93816e-06
1.14662e-05
-8.07145e-06
1.09537e-05
-8.21055e-06
1.04228e-05
-8.35597e-06
9.87155e-06
-8.50825e-06
9.29785e-06
-8.66805e-06
8.69904e-06
-8.83605e-06
8.0719e-06
-9.01302e-06
7.41244e-06
-9.1998e-06
6.71575e-06
-9.39718e-06
5.97566e-06
-9.60602e-06
5.18445e-06
-9.82677e-06
4.33235e-06
-1.00602e-05
3.40701e-06
-1.03042e-05
2.39214e-06
-1.05636e-05
1.26915e-06
-1.08013e-05
-1.12298e-05
1.70793e-05
-6.25653e-06
1.67236e-05
-6.32542e-06
1.63603e-05
-6.39881e-06
1.59891e-05
-6.47906e-06
1.56097e-05
-6.56353e-06
1.52215e-05
-6.65038e-06
1.48242e-05
-6.73973e-06
1.4417e-05
-6.83215e-06
1.39997e-05
-6.92786e-06
1.35714e-05
-7.02687e-06
1.31317e-05
-7.12931e-06
1.26797e-05
-7.23535e-06
1.22147e-05
-7.34521e-06
1.17356e-05
-7.45911e-06
1.12415e-05
-7.57728e-06
1.07309e-05
-7.69999e-06
1.02025e-05
-7.82752e-06
9.65436e-06
-7.96014e-06
9.08446e-06
-8.09815e-06
8.49024e-06
-8.24182e-06
7.8686e-06
-8.39139e-06
7.21579e-06
-8.54699e-06
6.52722e-06
-8.70861e-06
5.79723e-06
-8.87602e-06
5.0188e-06
-9.04834e-06
4.18323e-06
-9.22464e-06
3.27962e-06
-9.40062e-06
2.29398e-06
-9.57799e-06
1.20974e-06
-9.71709e-06
-1.00201e-05
1.68578e-05
-5.90208e-06
1.6497e-05
-5.96467e-06
1.61292e-05
-6.03097e-06
1.57539e-05
-6.10379e-06
1.53708e-05
-6.18046e-06
1.49795e-05
-6.25905e-06
1.45794e-05
-6.33965e-06
1.41701e-05
-6.42283e-06
1.3751e-05
-6.50878e-06
1.33216e-05
-6.59745e-06
1.28812e-05
-6.68889e-06
1.24291e-05
-6.78321e-06
1.19644e-05
-6.88053e-06
1.14862e-05
-6.98096e-06
1.09936e-05
-7.0846e-06
1.04851e-05
-7.19153e-06
9.95938e-06
-7.3018e-06
9.41471e-06
-7.41547e-06
8.84904e-06
-7.53248e-06
8.25995e-06
-7.65274e-06
7.64455e-06
-7.77599e-06
6.99935e-06
-7.90179e-06
6.32014e-06
-8.0294e-06
5.6018e-06
-8.15768e-06
4.83811e-06
-8.28465e-06
4.0214e-06
-8.40793e-06
3.14233e-06
-8.52155e-06
2.18914e-06
-8.62481e-06
1.14803e-06
-8.67597e-06
-8.87205e-06
1.66093e-05
-5.54266e-06
1.62441e-05
-5.59943e-06
1.58723e-05
-5.65917e-06
1.54934e-05
-5.72495e-06
1.51072e-05
-5.79421e-06
1.47131e-05
-5.86496e-06
1.43107e-05
-5.93727e-06
1.38996e-05
-6.01168e-06
1.34791e-05
-6.08834e-06
1.30488e-05
-6.16716e-06
1.26081e-05
-6.24811e-06
1.21561e-05
-6.33124e-06
1.16921e-05
-6.41657e-06
1.12153e-05
-6.50411e-06
1.07245e-05
-6.5938e-06
1.02185e-05
-6.68558e-06
9.69604e-06
-6.77931e-06
9.15536e-06
-6.87478e-06
8.59457e-06
-6.97169e-06
8.01141e-06
-7.06958e-06
7.40321e-06
-7.16778e-06
6.76678e-06
-7.26536e-06
6.09833e-06
-7.36095e-06
5.39331e-06
-7.45266e-06
4.64629e-06
-7.53763e-06
3.85068e-06
-7.61232e-06
2.99866e-06
-7.66953e-06
2.08056e-06
-7.7067e-06
1.0855e-06
-7.68092e-06
-7.78655e-06
1.63362e-05
-5.17891e-06
1.59671e-05
-5.2303e-06
1.55919e-05
-5.28397e-06
1.52101e-05
-5.34312e-06
1.48212e-05
-5.40532e-06
1.44249e-05
-5.46864e-06
1.40207e-05
-5.5331e-06
1.36082e-05
-5.5992e-06
1.31869e-05
-5.66703e-06
1.27562e-05
-5.73648e-06
1.23155e-05
-5.80745e-06
1.18642e-05
-5.87991e-06
1.14014e-05
-5.9538e-06
1.09263e-05
-6.02902e-06
1.04379e-05
-6.10539e-06
9.93506e-06
-6.1827e-06
9.41639e-06
-6.26064e-06
8.88039e-06
-6.33878e-06
8.32528e-06
-6.41658e-06
7.74897e-06
-6.49328e-06