/*--------------------------------*- C++ -*----------------------------------*\
  =========                 |
  \\      /  F ield         | OpenFOAM: The Open Source CFD Toolbox
   \\    /   O peration     | Website:  https://openfoam.org
    \\  /    A nd           | Version:  11
     \\/     M anipulation  |
\*---------------------------------------------------------------------------*/
FoamFile
{
    format      ascii;
    class       volVectorField;
    location    "1.1";
    object      U;
}
// * * * * * * * * * * * * * * * * * * * * * * * * * * * * * * * * * * * * * //

dimensions      [0 1 -1 0 0 0 0];

internalField   nonuniform List<vector> 
12600
(
(0.412112 0.000105503 0)
(0.41184 0.000179417 0)
(0.411426 0.000190579 0)
(0.410954 0.000193824 0)
(0.410486 0.000198121 0)
(0.410029 0.000200898 0)
(0.409575 0.000202266 0)
(0.409123 0.000202967 0)
(0.408674 0.000203125 0)
(0.40823 0.000202607 0)
(0.407794 0.000201206 0)
(0.407369 0.000198573 0)
(0.406957 0.000194196 0)
(0.406563 0.000187358 0)
(0.406194 0.000177608 0)
(0.405854 0.00016493 0)
(0.405551 0.000149675 0)
(0.405293 0.000133335 0)
(0.405086 0.000118352 0)
(0.404934 0.000109293 0)
(0.404842 0.000106908 0)
(0.404813 0.000105759 0)
(0.404852 0.000100537 0)
(0.404973 8.58879e-05 0)
(0.405203 5.32747e-05 0)
(0.405586 -5.83128e-06 0)
(0.406195 -0.000102804 0)
(0.407113 -0.000220684 0)
(0.408549 -0.000392124 0)
(0.409558 -0.000974636 0)
(0.412492 0.000153804 0)
(0.412639 0.000281809 0)
(0.412772 0.00026385 0)
(0.412823 0.000255699 0)
(0.412869 0.000257708 0)
(0.412922 0.000257429 0)
(0.412979 0.000254946 0)
(0.413038 0.00025146 0)
(0.413099 0.000247014 0)
(0.413164 0.000241283 0)
(0.413236 0.000233988 0)
(0.413316 0.000224855 0)
(0.413405 0.000213394 0)
(0.413504 0.000199086 0)
(0.413617 0.000181652 0)
(0.413745 0.000160287 0)
(0.413891 0.000133801 0)
(0.414061 0.000100673 0)
(0.414263 6.28708e-05 0)
(0.414512 1.23913e-05 0)
(0.414823 -4.73612e-05 0)
(0.415215 -0.000113094 0)
(0.415706 -0.00018341 0)
(0.416314 -0.000260981 0)
(0.417067 -0.000355131 0)
(0.417954 -0.000479962 0)
(0.419106 -0.000649423 0)
(0.420238 -0.000905932 0)
(0.422135 -0.00125012 0)
(0.422733 -0.00208339 0)
(0.41248 8.55175e-05 0)
(0.412554 0.000153681 0)
(0.412644 0.00015765 0)
(0.412709 0.000158263 0)
(0.41276 0.000163211 0)
(0.412812 0.000164733 0)
(0.41287 0.000162643 0)
(0.41293 0.000158836 0)
(0.412993 0.000153532 0)
(0.41306 0.000146318 0)
(0.413133 0.000136669 0)
(0.413212 0.000124187 0)
(0.413299 0.000108999 0)
(0.413399 8.94945e-05 0)
(0.413515 6.38396e-05 0)
(0.41365 3.51081e-05 0)
(0.413811 -1.76389e-06 0)
(0.414002 -4.80992e-05 0)
(0.414226 -0.000103017 0)
(0.414485 -0.000166212 0)
(0.414776 -0.00024017 0)
(0.415106 -0.000331617 0)
(0.415486 -0.000449257 0)
(0.415944 -0.000602406 0)
(0.416519 -0.000796331 0)
(0.417262 -0.0010454 0)
(0.418235 -0.001349 0)
(0.419474 -0.00175405 0)
(0.420972 -0.00227092 0)
(0.42281 -0.00269009 0)
(0.412472 5.59858e-05 0)
(0.412521 0.000131793 0)
(0.412594 0.000159665 0)
(0.412656 0.000166502 0)
(0.412706 0.00017372 0)
(0.412755 0.000175567 0)
(0.41281 0.000173236 0)
(0.412869 0.000168551 0)
(0.41293 0.000161836 0)
(0.412995 0.000152813 0)
(0.413065 0.000140836 0)
(0.413142 0.000125201 0)
(0.413228 0.000103732 0)
(0.413327 7.57703e-05 0)
(0.413439 4.13319e-05 0)
(0.413568 -1.14695e-06 0)
(0.413721 -5.45781e-05 0)
(0.413901 -0.000119687 0)
(0.414115 -0.000195341 0)
(0.41437 -0.000281562 0)
(0.414674 -0.000380024 0)
(0.41504 -0.000494074 0)
(0.41548 -0.000629539 0)
(0.416008 -0.000801289 0)
(0.416644 -0.00103348 0)
(0.417413 -0.00135459 0)
(0.418351 -0.00177984 0)
(0.419504 -0.00231996 0)
(0.420879 -0.00299529 0)
(0.422693 -0.00350158 0)
(0.412468 4.02847e-05 0)
(0.412501 0.000102216 0)
(0.412558 0.000127278 0)
(0.412613 0.000131362 0)
(0.412661 0.000131172 0)
(0.412709 0.000129432 0)
(0.412761 0.000124515 0)
(0.412818 0.000116565 0)
(0.412878 0.000106267 0)
(0.412941 9.33029e-05 0)
(0.413009 7.66976e-05 0)
(0.413084 5.56436e-05 0)
(0.413168 2.89103e-05 0)
(0.413263 -5.41313e-06 0)
(0.413372 -4.88363e-05 0)
(0.413499 -0.000101401 0)
(0.413648 -0.00016479 0)
(0.413823 -0.000240755 0)
(0.414028 -0.000330928 0)
(0.414269 -0.000438214 0)
(0.414554 -0.000567014 0)
(0.414898 -0.000725112 0)
(0.415321 -0.000923966 0)
(0.415844 -0.00117749 0)
(0.41649 -0.00150013 0)
(0.417278 -0.00190798 0)
(0.418223 -0.00241773 0)
(0.419366 -0.00304025 0)
(0.42069 -0.00382244 0)
(0.422492 -0.00454506 0)
(0.412466 2.97759e-05 0)
(0.412489 7.85219e-05 0)
(0.412534 0.000103038 0)
(0.412583 0.000109414 0)
(0.41263 0.000110361 0)
(0.412676 0.000109191 0)
(0.412727 0.000104809 0)
(0.412781 9.71361e-05 0)
(0.412839 8.66591e-05 0)
(0.412901 7.30422e-05 0)
(0.412967 5.51471e-05 0)
(0.41304 3.14487e-05 0)
(0.41312 1.12705e-06 0)
(0.413211 -3.80411e-05 0)
(0.413316 -8.79398e-05 0)
(0.413436 -0.00015018 0)
(0.413576 -0.000226812 0)
(0.413741 -0.000319873 0)
(0.413936 -0.000430317 0)
(0.414171 -0.000559994 0)
(0.414455 -0.000713774 0)
(0.414799 -0.000899873 0)
(0.415216 -0.00112907 0)
(0.41572 -0.00141644 0)
(0.416327 -0.00178284 0)
(0.417055 -0.00225271 0)
(0.417926 -0.00285051 0)
(0.418993 -0.00358719 0)
(0.420236 -0.00451889 0)
(0.42199 -0.0054558 0)
(0.412464 2.24937e-05 0)
(0.412482 6.05377e-05 0)
(0.412518 8.21357e-05 0)
(0.412562 8.84174e-05 0)
(0.412606 8.75633e-05 0)
(0.41265 8.3592e-05 0)
(0.412698 7.65437e-05 0)
(0.41275 6.62159e-05 0)
(0.412806 5.27639e-05 0)
(0.412865 3.57282e-05 0)
(0.412928 1.38755e-05 0)
(0.412998 -1.47708e-05 0)
(0.413075 -5.13299e-05 0)
(0.413162 -9.74689e-05 0)
(0.413261 -0.0001553 0)
(0.413375 -0.0002269 0)
(0.413508 -0.000314176 0)
(0.413664 -0.000419327 0)
(0.413847 -0.000545059 0)
(0.414065 -0.000695716 0)
(0.414327 -0.000878047 0)
(0.414644 -0.00110157 0)
(0.415029 -0.00137897 0)
(0.415495 -0.00172635 0)
(0.416059 -0.00216254 0)
(0.416741 -0.00270813 0)
(0.417556 -0.00338749 0)
(0.418557 -0.00421822 0)
(0.419715 -0.00526455 0)
(0.421378 -0.00639177 0)
(0.412463 1.71164e-05 0)
(0.412477 4.62412e-05 0)
(0.412507 6.36038e-05 0)
(0.412546 6.84397e-05 0)
(0.412587 6.58993e-05 0)
(0.412629 5.99434e-05 0)
(0.412675 5.1315e-05 0)
(0.412725 3.97693e-05 0)
(0.412778 2.51079e-05 0)
(0.412835 6.66547e-06 0)
(0.412895 -1.69774e-05 0)
(0.412961 -4.76278e-05 0)
(0.413035 -8.75444e-05 0)
(0.413116 -0.000138507 0)
(0.41321 -0.000202472 0)
(0.413316 -0.000281696 0)
(0.41344 -0.000378692 0)
(0.413584 -0.000496506 0)
(0.413753 -0.000638627 0)
(0.413955 -0.00080953 0)
(0.414197 -0.00101571 0)
(0.41449 -0.00126652 0)
(0.414844 -0.00157459 0)
(0.415272 -0.00195652 0)
(0.415786 -0.00243376 0)
(0.416404 -0.00303214 0)
(0.417139 -0.00378256 0)
(0.418046 -0.00471023 0)
(0.419092 -0.00588047 0)
(0.420627 -0.00720136 0)
(0.412463 1.29009e-05 0)
(0.412474 3.45161e-05 0)
(0.4125 4.72988e-05 0)
(0.412534 4.99895e-05 0)
(0.412572 4.5737e-05 0)
(0.412612 3.78731e-05 0)
(0.412656 2.74594e-05 0)
(0.412703 1.42769e-05 0)
(0.412753 -2.15494e-06 0)
(0.412807 -2.27567e-05 0)
(0.412865 -4.9143e-05 0)
(0.412927 -8.32511e-05 0)
(0.412996 -0.000127415 0)
(0.413072 -0.000183605 0)
(0.413159 -0.000253984 0)
(0.413257 -0.000341074 0)
(0.413371 -0.000447599 0)
(0.413503 -0.000576652 0)
(0.413657 -0.000732122 0)
(0.41384 -0.000919561 0)
(0.414058 -0.00114707 0)
(0.414319 -0.00142569 0)
(0.414633 -0.00176947 0)
(0.415011 -0.00219581 0)
(0.415465 -0.00272606 0)
(0.416012 -0.00338546 0)
(0.416664 -0.00420542 0)
(0.417471 -0.00521703 0)
(0.418397 -0.00648718 0)
(0.41978 -0.00797538 0)
(0.412462 9.44236e-06 0)
(0.412472 2.46445e-05 0)
(0.412494 3.28953e-05 0)
(0.412525 3.29792e-05 0)
(0.41256 2.68133e-05 0)
(0.412598 1.70215e-05 0)
(0.412639 4.76678e-06 0)
(0.412684 -1.00664e-05 0)
(0.412732 -2.81021e-05 0)
(0.412783 -5.0444e-05 0)
(0.412837 -7.88492e-05 0)
(0.412895 -0.000115494 0)
(0.412959 -0.000162809 0)
(0.41303 -0.000223076 0)
(0.413109 -0.000298575 0)
(0.413199 -0.000391848 0)
(0.413302 -0.000505855 0)
(0.41342 -0.000644288 0)
(0.413558 -0.000811917 0)
(0.41372 -0.00101501 0)
(0.413911 -0.00126182 0)
(0.41414 -0.0015631 0)
(0.414415 -0.00193268 0)
(0.414743 -0.00238834 0)
(0.415136 -0.00295293 0)
(0.415606 -0.00365471 0)
(0.416164 -0.00452933 0)
(0.416853 -0.00561511 0)
(0.417638 -0.00697875 0)
(0.418837 -0.0086233 0)
(0.412462 6.49602e-06 0)
(0.412471 1.6121e-05 0)
(0.41249 2.00501e-05 0)
(0.412518 1.72839e-05 0)
(0.41255 9.04406e-06 0)
(0.412586 -2.63919e-06 0)
(0.412625 -1.66442e-05 0)
(0.412667 -3.3005e-05 0)
(0.412712 -5.24701e-05 0)
(0.41276 -7.63563e-05 0)
(0.412811 -0.000106605 0)
(0.412865 -0.000145578 0)
(0.412924 -0.000195793 0)
(0.412988 -0.00025969 0)
(0.41306 -0.000339713 0)
(0.41314 -0.000438602 0)
(0.413231 -0.000559559 0)
(0.413335 -0.000706457 0)
(0.413455 -0.000884231 0)
(0.413595 -0.00109949 0)
(0.413759 -0.00136118 0)
(0.413952 -0.0016811 0)
(0.414182 -0.00207422 0)
(0.414456 -0.0025592 0)
(0.414781 -0.00315931 0)
(0.415169 -0.00390325 0)
(0.415628 -0.00482751 0)
(0.416194 -0.005975 0)
(0.416828 -0.00741141 0)
(0.417821 -0.00918397 0)
(0.412462 3.90009e-06 0)
(0.412469 8.54264e-06 0)
(0.412487 8.39601e-06 0)
(0.412512 2.71739e-06 0)
(0.412543 -7.65087e-06 0)
(0.412577 -2.11376e-05 0)
(0.412613 -3.67598e-05 0)
(0.412653 -5.45457e-05 0)
(0.412695 -7.53264e-05 0)
(0.412739 -0.000100577 0)
(0.412786 -0.000132381 0)
(0.412836 -0.000173235 0)
(0.41289 -0.000225778 0)
(0.412948 -0.000292601 0)
(0.413011 -0.000376277 0)
(0.413082 -0.000479607 0)
(0.41316 -0.000605875 0)
(0.413249 -0.000759181 0)
(0.413351 -0.000944891 0)
(0.413467 -0.00117016 0)
(0.413603 -0.00144436 0)
(0.413761 -0.00177945 0)
(0.413947 -0.00219039 0)
(0.414165 -0.00269589 0)
(0.414421 -0.0033197 0)
(0.414723 -0.00409177 0)
(0.415075 -0.00505056 0)
(0.415506 -0.00624372 0)
(0.415976 -0.00773554 0)
(0.41674 -0.00961096 0)
(0.412462 1.54269e-06 0)
(0.412469 1.74017e-06 0)
(0.412485 -2.25905e-06 0)
(0.412508 -1.0852e-05 0)
(0.412537 -2.33548e-05 0)
(0.412569 -3.85585e-05 0)
(0.412603 -5.5656e-05 0)
(0.41264 -7.47099e-05 0)
(0.412679 -9.66178e-05 0)
(0.412721 -0.000122984 0)
(0.412764 -0.000156022 0)
(0.412809 -0.000198347 0)
(0.412857 -0.000252693 0)
(0.412908 -0.000321733 0)
(0.412963 -0.000408121 0)
(0.413023 -0.000514747 0)
(0.413089 -0.000645056 0)
(0.413163 -0.000803365 0)
(0.413244 -0.000995249 0)
(0.413337 -0.001228 0)
(0.413442 -0.00151112 0)
(0.413563 -0.00185674 0)
(0.413702 -0.00228016 0)
(0.413863 -0.00280059 0)
(0.414049 -0.00344221 0)
(0.414264 -0.00423541 0)
(0.414508 -0.005219 0)
(0.414801 -0.00644308 0)
(0.415101 -0.00796913 0)
(0.415617 -0.0099144 0)
(0.412462 -6.64316e-07 0)
(0.412468 -4.5911e-06 0)
(0.412483 -1.21327e-05 0)
(0.412505 -2.35187e-05 0)
(0.412532 -3.81054e-05 0)
(0.412562 -5.49256e-05 0)
(0.412595 -7.33508e-05 0)
(0.412629 -9.35066e-05 0)
(0.412665 -0.000116346 0)
(0.412703 -0.000143572 0)
(0.412743 -0.000177507 0)
(0.412783 -0.000220853 0)
(0.412825 -0.000276411 0)
(0.41287 -0.000346926 0)
(0.412916 -0.000435133 0)
(0.412966 -0.000543992 0)
(0.413019 -0.000676981 0)
(0.413076 -0.000838446 0)
(0.413138 -0.00103405 0)
(0.413206 -0.00127129 0)
(0.413281 -0.00155991 0)
(0.413365 -0.00191226 0)
(0.413458 -0.00234367 0)
(0.413561 -0.00287311 0)
(0.413676 -0.00352439 0)
(0.413801 -0.00432768 0)
(0.413934 -0.00532169 0)
(0.414085 -0.00655806 0)
(0.414211 -0.00809516 0)
(0.414469 -0.0100744 0)
(0.412461 -2.80835e-06 0)
(0.412468 -1.04019e-05 0)
(0.412482 -2.14757e-05 0)
(0.412503 -3.55783e-05 0)
(0.412529 -5.21058e-05 0)
(0.412557 -7.03587e-05 0)
(0.412588 -8.99069e-05 0)
(0.41262 -0.000110956 0)
(0.412653 -0.000134504 0)
(0.412688 -0.00016232 0)
(0.412723 -0.000196799 0)
(0.412759 -0.000240708 0)
(0.412796 -0.0002969 0)
(0.412833 -0.000368159 0)
(0.412871 -0.000457241 0)
(0.41291 -0.000567108 0)
(0.412949 -0.000701265 0)
(0.41299 -0.00086416 0)
(0.413032 -0.00106158 0)
(0.413075 -0.00130107 0)
(0.41312 -0.00159224 0)
(0.413166 -0.00194719 0)
(0.413213 -0.00238095 0)
(0.413259 -0.0029123 0)
(0.413303 -0.00356483 0)
(0.413341 -0.00436828 0)
(0.413364 -0.0053604 0)
(0.413372 -0.00659236 0)
(0.413324 -0.00811799 0)
(0.413319 -0.0100933 0)
(0.412461 -4.74881e-06 0)
(0.412468 -1.61657e-05 0)
(0.412482 -3.05043e-05 0)
(0.412502 -4.70978e-05 0)
(0.412526 -6.53951e-05 0)
(0.412553 -8.49031e-05 0)
(0.412582 -0.000105381 0)
(0.412612 -0.000127116 0)
(0.412643 -0.000151131 0)
(0.412674 -0.000179239 0)
(0.412706 -0.000213893 0)
(0.412737 -0.000257899 0)
(0.412768 -0.000314127 0)
(0.412798 -0.000385363 0)
(0.412827 -0.000474367 0)
(0.412855 -0.000584102 0)
(0.412882 -0.000718063 0)
(0.412906 -0.000880646 0)
(0.412927 -0.00107757 0)
(0.412946 -0.00131632 0)
(0.41296 -0.00160649 0)
(0.412969 -0.00196004 0)
(0.412971 -0.00239172 0)
(0.412961 -0.00291962 0)
(0.412935 -0.00356631 0)
(0.412887 -0.00436009 0)
(0.412802 -0.00533683 0)
(0.412671 -0.00654582 0)
(0.412454 -0.0080359 0)
(0.412189 -0.0099676 0)
(0.412461 -6.70118e-06 0)
(0.412468 -2.18393e-05 0)
(0.412481 -3.9328e-05 0)
(0.412502 -5.82684e-05 0)
(0.412525 -7.81363e-05 0)
(0.412551 -9.86744e-05 0)
(0.412578 -0.000119848 0)
(0.412606 -0.000142021 0)
(0.412634 -0.000166238 0)
(0.412662 -0.000194341 0)
(0.41269 -0.000228807 0)
(0.412716 -0.000272451 0)
(0.412742 -0.000328134 0)
(0.412765 -0.000398619 0)
(0.412786 -0.000486606 0)
(0.412803 -0.000594976 0)
(0.412816 -0.000727174 0)
(0.412824 -0.000887633 0)
(0.412826 -0.00108212 0)
(0.41282 -0.00131801 0)
(0.412805 -0.00160449 0)
(0.412777 -0.00195288 0)
(0.412734 -0.00237722 0)
(0.41267 -0.0028949 0)
(0.412578 -0.00352752 0)
(0.412446 -0.00430187 0)
(0.412258 -0.00525121 0)
(0.411994 -0.00642109 0)
(0.411616 -0.00785412 0)
(0.411103 -0.00970469 0)
(0.412461 -8.68079e-06 0)
(0.412468 -2.75937e-05 0)
(0.412482 -4.81729e-05 0)
(0.412502 -6.92636e-05 0)
(0.412526 -9.04444e-05 0)
(0.412551 -0.000111762 0)
(0.412576 -0.000133394 0)
(0.412602 -0.000155757 0)
(0.412628 -0.000179902 0)
(0.412653 -0.000207687 0)
(0.412676 -0.000241596 0)
(0.412699 -0.000284412 0)
(0.412718 -0.000338946 0)
(0.412735 -0.000407908 0)
(0.412747 -0.000493947 0)
(0.412754 -0.000599871 0)
(0.412754 -0.000729013 0)
(0.412746 -0.00088565 0)
(0.412728 -0.0010754 0)
(0.412699 -0.00130548 0)
(0.412654 -0.0015849 0)
(0.412592 -0.00192461 0)
(0.412507 -0.00233785 0)
(0.412391 -0.00284073 0)
(0.412236 -0.00345298 0)
(0.412025 -0.0041989 0)
(0.41174 -0.00510846 0)
(0.411351 -0.00622248 0)
(0.410822 -0.00757735 0)
(0.410081 -0.00931165 0)
(0.412462 -1.07555e-05 0)
(0.412468 -3.36038e-05 0)
(0.412483 -5.72415e-05 0)
(0.412504 -8.02578e-05 0)
(0.412527 -0.000102454 0)
(0.412552 -0.000124277 0)
(0.412576 -0.000146112 0)
(0.4126 -0.000168399 0)
(0.412623 -0.000192184 0)
(0.412645 -0.000219335 0)
(0.412666 -0.000252317 0)
(0.412683 -0.000293856 0)
(0.412698 -0.000346686 0)
(0.412708 -0.000413413 0)
(0.412712 -0.000496542 0)
(0.412709 -0.000598752 0)
(0.412696 -0.000723338 0)
(0.412673 -0.000874612 0)
(0.412637 -0.00105812 0)
(0.412584 -0.0012807 0)
(0.412512 -0.00155061 0)
(0.412416 -0.00187789 0)
(0.412291 -0.00227488 0)
(0.412126 -0.00275672 0)
(0.411911 -0.00334165 0)
(0.411627 -0.00405133 0)
(0.411252 -0.00491162 0)
(0.410749 -0.00595704 0)
(0.410084 -0.00721707 0)
(0.409142 -0.00880618 0)
(0.412462 -1.30091e-05 0)
(0.412469 -4.00819e-05 0)
(0.412485 -6.67745e-05 0)
(0.412507 -9.14389e-05 0)
(0.412531 -0.000114302 0)
(0.412555 -0.000136337 0)
(0.412578 -0.000158112 0)
(0.4126 -0.000180041 0)
(0.412621 -0.000203169 0)
(0.412641 -0.000229378 0)
(0.412658 -0.00026108 0)
(0.412671 -0.000300887 0)
(0.412681 -0.00035142 0)
(0.412684 -0.000415195 0)
(0.412681 -0.000494612 0)
(0.412668 -0.000592176 0)
(0.412644 -0.000710923 0)
(0.412605 -0.000854915 0)
(0.41255 -0.00102959 0)
(0.412475 -0.00124182 0)
(0.412377 -0.00149972 0)
(0.412249 -0.00181256 0)
(0.412087 -0.00219106 0)
(0.411878 -0.00264809 0)
(0.411608 -0.00319927 0)
(0.411258 -0.00386343 0)
(0.410802 -0.00466296 0)
(0.410197 -0.0056265 0)
(0.409413 -0.00677748 0)
(0.408303 -0.00819995 0)
(0.412462 -1.55514e-05 0)
(0.41247 -4.73029e-05 0)
(0.412488 -7.70573e-05 0)
(0.412512 -0.000103001 0)
(0.412537 -0.000126121 0)
(0.41256 -0.000148069 0)
(0.412582 -0.000169518 0)
(0.412603 -0.000190791 0)
(0.412622 -0.000212941 0)
(0.412639 -0.000237875 0)
(0.412653 -0.00026794 0)
(0.412663 -0.000305612 0)
(0.412667 -0.000353346 0)
(0.412665 -0.000413474 0)
(0.412654 -0.00048824 0)
(0.412632 -0.000580063 0)
(0.412596 -0.000691939 0)
(0.412544 -0.000827785 0)
(0.412472 -0.000992643 0)
(0.412377 -0.00119274 0)
(0.412254 -0.00143552 0)
(0.412098 -0.00172967 0)
(0.411901 -0.00208532 0)
(0.411651 -0.00251403 0)
(0.411333 -0.00302887 0)
(0.410922 -0.00364463 0)
(0.410393 -0.00437855 0)
(0.409698 -0.00525218 0)
(0.408812 -0.00628361 0)
(0.407568 -0.00752398 0)
(0.412462 -1.8545e-05 0)
(0.412472 -5.56545e-05 0)
(0.412493 -8.84258e-05 0)
(0.412519 -0.000115129 0)
(0.412545 -0.000138033 0)
(0.412568 -0.000159592 0)
(0.41259 -0.000180444 0)
(0.412609 -0.00020078 0)
(0.412627 -0.000221685 0)
(0.412642 -0.000245057 0)
(0.412652 -0.000273105 0)
(0.412659 -0.000308124 0)
(0.412659 -0.00035243 0)
(0.412651 -0.00040821 0)
(0.412633 -0.000477473 0)
(0.412602 -0.000562299 0)
(0.412556 -0.000665396 0)
(0.41249 -0.000790668 0)
(0.412402 -0.000943476 0)
(0.412288 -0.00113031 0)
(0.412142 -0.00135797 0)
(0.41196 -0.00163318 0)
(0.411731 -0.0019631 0)
(0.411443 -0.00235643 0)
(0.411079 -0.00282415 0)
(0.410615 -0.00337939 0)
(0.410022 -0.00403717 0)
(0.409253 -0.00481366 0)
(0.408287 -0.00572257 0)
(0.406947 -0.00678048 0)
(0.412463 -2.22946e-05 0)
(0.412475 -6.56125e-05 0)
(0.4125 -0.000101261 0)
(0.41253 -0.000128032 0)
(0.412557 -0.000150206 0)
(0.41258 -0.000171023 0)
(0.412601 -0.000190895 0)
(0.41262 -0.000209928 0)
(0.412636 -0.000229344 0)
(0.412648 -0.000251042 0)
(0.412656 -0.000277042 0)
(0.412659 -0.000309391 0)
(0.412655 -0.000350153 0)
(0.412642 -0.000401306 0)
(0.412618 -0.000464741 0)
(0.41258 -0.000542469 0)
(0.412524 -0.000636958 0)
(0.412446 -0.000751517 0)
(0.412343 -0.000890727 0)
(0.41221 -0.00106064 0)
(0.412043 -0.0012683 0)
(0.411837 -0.0015209 0)
(0.411582 -0.00182531 0)
(0.411265 -0.00218805 0)
(0.410865 -0.00261572 0)
(0.410355 -0.00311571 0)
(0.409706 -0.0036975 0)
(0.408871 -0.0043713 0)
(0.407835 -0.00514982 0)
(0.406426 -0.00602088 0)
(0.412464 -2.71493e-05 0)
(0.41248 -7.79597e-05 0)
(0.41251 -0.000115946 0)
(0.412544 -0.000141862 0)
(0.412572 -0.000162964 0)
(0.412596 -0.00018284 0)
(0.412616 -0.000201264 0)
(0.412635 -0.0002183 0)
(0.41265 -0.0002354 0)
(0.41266 -0.000254457 0)
(0.412666 -0.000277288 0)
(0.412666 -0.00030573 0)
(0.412658 -0.000341663 0)
(0.41264 -0.000386823 0)
(0.41261 -0.000442746 0)
(0.412565 -0.000511082 0)
(0.4125 -0.000594229 0)
(0.412412 -0.000695892 0)
(0.412296 -0.000821269 0)
(0.412147 -0.000976368 0)
(0.41196 -0.00116639 0)
(0.411729 -0.0013949 0)
(0.411445 -0.00166483 0)
(0.411094 -0.00198033 0)
(0.410658 -0.00234782 0)
(0.410109 -0.00277545 0)
(0.409417 -0.00327262 0)
(0.408536 -0.0038454 0)
(0.407453 -0.00450529 0)
(0.406007 -0.00521201 0)
(0.412465 -3.38652e-05 0)
(0.412487 -9.38489e-05 0)
(0.412525 -0.000132676 0)
(0.412564 -0.000156196 0)
(0.412594 -0.000175958 0)
(0.412618 -0.000195293 0)
(0.412638 -0.000213004 0)
(0.412656 -0.000229122 0)
(0.41267 -0.000245222 0)
(0.412679 -0.00026303 0)
(0.412683 -0.000284056 0)
(0.41268 -0.000309845 0)
(0.41267 -0.00034202 0)
(0.412648 -0.000382107 0)
(0.412613 -0.000431457 0)
(0.412561 -0.000491386 0)
(0.412488 -0.000563619 0)
(0.41239 -0.00065095 0)
(0.412261 -0.000758162 0)
(0.412097 -0.000892057 0)
(0.411894 -0.00105961 0)
(0.411645 -0.00126594 0)
(0.411342 -0.00151341 0)
(0.410968 -0.00180187 0)
(0.410501 -0.00213023 0)
(0.409913 -0.00249848 0)
(0.409176 -0.00291114 0)
(0.408246 -0.00337186 0)
(0.407117 -0.00389972 0)
(0.405646 -0.00443948 0)
(0.412467 -4.37554e-05 0)
(0.412499 -0.000115275 0)
(0.412549 -0.000152744 0)
(0.412593 -0.000171244 0)
(0.412623 -0.000186843 0)
(0.412647 -0.000202125 0)
(0.412668 -0.000215529 0)
(0.412685 -0.000227495 0)
(0.412698 -0.000239661 0)
(0.412706 -0.000253479 0)
(0.412708 -0.000270156 0)
(0.412703 -0.00029098 0)
(0.412689 -0.000317265 0)
(0.412664 -0.000350114 0)
(0.412625 -0.000390605 0)
(0.412568 -0.000440189 0)
(0.41249 -0.000500933 0)
(0.412387 -0.000575425 0)
(0.412248 -0.000667815 0)
(0.412066 -0.000783854 0)
(0.411834 -0.000928038 0)
(0.411549 -0.00110176 0)
(0.411206 -0.00130377 0)
(0.410798 -0.00153302 0)
(0.410304 -0.00179113 0)
(0.409697 -0.00208165 0)
(0.408943 -0.00241069 0)
(0.407992 -0.00277634 0)
(0.40684 -0.00320166 0)
(0.405344 -0.00361099 0)
(0.412472 -5.86989e-05 0)
(0.412518 -0.000142662 0)
(0.412585 -0.000179367 0)
(0.412635 -0.000198932 0)
(0.412666 -0.000217015 0)
(0.41269 -0.000233007 0)
(0.412712 -0.000245787 0)
(0.412729 -0.000256927 0)
(0.412741 -0.000268149 0)
(0.412748 -0.000280496 0)
(0.412748 -0.000294859 0)
(0.412741 -0.000312247 0)
(0.412726 -0.000333762 0)
(0.412698 -0.000360282 0)
(0.412656 -0.000392566 0)
(0.412594 -0.000431446 0)
(0.412509 -0.000478056 0)
(0.412396 -0.00053343 0)
(0.412249 -0.000601071 0)
(0.412059 -0.000689333 0)
(0.411818 -0.000807327 0)
(0.411515 -0.000960551 0)
(0.411142 -0.00114766 0)
(0.410686 -0.00136033 0)
(0.41013 -0.00158701 0)
(0.409452 -0.0018178 0)
(0.408633 -0.00205319 0)
(0.407633 -0.00229221 0)
(0.406466 -0.00257922 0)
(0.404968 -0.00285309 0)
(0.412479 -8.74654e-05 0)
(0.41255 -0.000161024 0)
(0.412634 -0.000174392 0)
(0.412688 -0.000183815 0)
(0.41272 -0.000196323 0)
(0.412746 -0.000207468 0)
(0.412768 -0.000216198 0)
(0.412786 -0.000223838 0)
(0.412798 -0.000231758 0)
(0.412803 -0.000241026 0)
(0.412803 -0.00025205 0)
(0.412795 -0.000265499 0)
(0.412778 -0.000281885 0)
(0.412748 -0.000301847 0)
(0.412704 -0.000326359 0)
(0.41264 -0.000356395 0)
(0.412553 -0.000392331 0)
(0.412437 -0.000435073 0)
(0.412285 -0.000487246 0)
(0.412086 -0.00055306 0)
(0.411824 -0.000637429 0)
(0.411474 -0.00074207 0)
(0.411018 -0.000864249 0)
(0.410453 -0.00100022 0)
(0.40979 -0.00114777 0)
(0.409043 -0.00130759 0)
(0.40822 -0.00148271 0)
(0.407269 -0.00165499 0)
(0.406197 -0.00185487 0)
(0.404681 -0.00191521 0)
(0.41249 -0.000155025 0)
(0.412641 -0.000289162 0)
(0.41276 -0.000274069 0)
(0.412793 -0.000271152 0)
(0.412816 -0.000277875 0)
(0.412839 -0.000283857 0)
(0.412859 -0.000287741 0)
(0.412872 -0.000291294 0)
(0.412877 -0.000295386 0)
(0.412876 -0.00030021 0)
(0.412867 -0.000305916 0)
(0.412847 -0.000313031 0)
(0.412814 -0.000322585 0)
(0.412765 -0.000334106 0)
(0.412694 -0.000346887 0)
(0.412597 -0.000361671 0)
(0.412469 -0.000382087 0)
(0.412305 -0.000405551 0)
(0.412099 -0.00043223 0)
(0.41185 -0.000466729 0)
(0.411554 -0.000507611 0)
(0.411207 -0.0005612 0)
(0.410799 -0.000637806 0)
(0.410314 -0.000743376 0)
(0.409729 -0.000873635 0)
(0.409022 -0.0010151 0)
(0.408169 -0.00115379 0)
(0.407135 -0.00125518 0)
(0.405908 -0.00136835 0)
(0.403577 -0.000868984 0)
(0.412111 -0.000106603 0)
(0.411834 -0.000180942 0)
(0.41141 -0.000193656 0)
(0.410923 -0.00019856 0)
(0.410432 -0.000204629 0)
(0.409945 -0.000209364 0)
(0.409453 -0.000212995 0)
(0.408953 -0.000216318 0)
(0.408447 -0.000219518 0)
(0.407933 -0.000222606 0)
(0.407413 -0.000225645 0)
(0.406884 -0.000228569 0)
(0.406345 -0.000231052 0)
(0.405794 -0.000233071 0)
(0.40523 -0.000234925 0)
(0.404651 -0.000236508 0)
(0.404054 -0.000236407 0)
(0.403435 -0.000235605 0)
(0.402788 -0.000240537 0)
(0.4021 -0.000259057 0)
(0.401349 -0.00029546 0)
(0.400512 -0.00034462 0)
(0.399561 -0.000395571 0)
(0.398473 -0.000443898 0)
(0.397227 -0.000484837 0)
(0.395814 -0.000511579 0)
(0.394243 -0.00052846 0)
(0.392549 -0.000509293 0)
(0.390833 -0.000555515 0)
(0.387604 0.000119537 0)
(0.415127 -0.00187993 -9.23405e-19)
(0.420284 -0.00249674 -7.0531e-21)
(0.424086 -0.00300694 9.45616e-19)
(0.426152 -0.00370191 1.89915e-18)
(0.427325 -0.00461707 9.68798e-19)
(0.428127 -0.00570495 -9.61385e-19)
(0.428758 -0.00693307 9.78629e-19)
(0.429308 -0.00830096 0)
(0.429829 -0.00981408 9.90904e-19)
(0.430341 -0.0114743 -5.44834e-21)
(0.430835 -0.0132872 6.96018e-20)
(0.431298 -0.0152675 0)
(0.431723 -0.0174386 -1.17072e-18)
(0.432106 -0.0198309 0)
(0.432449 -0.0224816 0)
(0.432749 -0.0254382 -1.29084e-18)
(0.433003 -0.0287614 -1.23757e-18)
(0.433202 -0.0325311 -1.30834e-23)
(0.433337 -0.0368528 1.23502e-18)
(0.433394 -0.0418687 1.83905e-19)
(0.433356 -0.0477722 -1.70779e-18)
(0.433196 -0.0548467 1.98063e-19)
(0.43289 -0.0634376 -1.02834e-19)
(0.432355 -0.0743461 1.57678e-18)
(0.431691 -0.0876908 2.18614e-19)
(0.430389 -0.107687 -1.12051e-19)
(0.429719 -0.12868 0)
(0.426695 -0.178417 -1.42186e-18)
(0.429 -0.209983 -1.54287e-18)
(0.423875 -0.381762 0)
(0.424378 -0.00257543 9.26081e-19)
(0.426064 -0.00302529 -2.17956e-20)
(0.427131 -0.00378928 1.94675e-20)
(0.42733 -0.00477517 -9.61215e-19)
(0.427469 -0.0058951 -3.07904e-20)
(0.427767 -0.00711341 1.03751e-18)
(0.428184 -0.00843575 9.6896e-19)
(0.428646 -0.00987611 1.31935e-19)
(0.429112 -0.0114417 -6.76688e-20)
(0.429561 -0.0131395 1.10529e-18)
(0.429971 -0.0149848 1.21399e-18)
(0.430335 -0.0169999 1.10193e-18)
(0.430651 -0.0192114 1.28507e-18)
(0.430922 -0.02165 1.16947e-18)
(0.431144 -0.0243531 1.28723e-18)
(0.43131 -0.027369 2.72868e-18)
(0.43141 -0.03076 1.29188e-18)
(0.431431 -0.0346074 -1.51688e-18)
(0.431354 -0.0390185 1.57511e-18)
(0.431156 -0.0441371 -9.57349e-20)
(0.430804 -0.0501594 9.93982e-20)
(0.430251 -0.0573651 1.67678e-18)
(0.429431 -0.0661255 0)
(0.428248 -0.0771534 -1.12554e-19)
(0.426619 -0.0908535 2.02202e-18)
(0.424108 -0.110629 0)
(0.421306 -0.132758 2.03395e-18)
(0.415297 -0.18067 -1.75422e-18)
(0.411683 -0.214739 -3.33006e-20)
(0.39765 -0.379811 -5.19585e-20)
(0.423926 -0.00309162 -7.21085e-21)
(0.424692 -0.00372923 -7.28736e-21)
(0.425325 -0.00476372 -9.42564e-19)
(0.425769 -0.00592936 -3.06153e-20)
(0.426231 -0.00711871 3.13768e-20)
(0.426775 -0.00835067 -3.20369e-20)
(0.427312 -0.00966626 -1.01557e-18)
(0.42778 -0.0110897 0)
(0.428178 -0.0126357 0)
(0.428521 -0.0143196 0)
(0.428817 -0.0161599 -1.16165e-18)
(0.429068 -0.0181769 -6.49345e-20)
(0.429273 -0.0203937 -1.07649e-18)
(0.429426 -0.0228396 -1.26972e-18)
(0.429518 -0.0255524 -1.3938e-18)
(0.429537 -0.0285813 -1.3565e-18)
(0.429469 -0.0319896 1.06792e-19)
(0.429293 -0.0358591 1.36657e-18)
(0.428987 -0.0402975 -1.42009e-18)
(0.428514 -0.0454488 -9.9276e-20)
(0.427826 -0.05151 0)
(0.426858 -0.0587572 -3.58557e-18)
(0.425511 -0.0675803 1.13379e-19)
(0.423638 -0.0786124 -1.93533e-18)
(0.421075 -0.0925334 6.9476e-20)
(0.417251 -0.11187 0)
(0.412484 -0.135185 -4.38212e-18)
(0.40333 -0.180423 4.03944e-18)
(0.394104 -0.218387 -2.24831e-18)
(0.370263 -0.374352 3.18399e-20)
(0.42394 -0.00441582 0)
(0.424555 -0.00523734 -9.72173e-19)
(0.425098 -0.00626316 3.10007e-23)
(0.425524 -0.00733344 1.56139e-20)
(0.425906 -0.0084277 0)
(0.426279 -0.00960199 0)
(0.426618 -0.0108959 -1.07535e-18)
(0.426912 -0.0123196 0)
(0.42717 -0.0138762 7.05557e-20)
(0.4274 -0.0155745 -1.4514e-19)
(0.427595 -0.0174288 2.9468e-23)
(0.427746 -0.0194575 -1.14887e-18)
(0.427842 -0.0216847 7.94359e-20)
(0.427872 -0.0241418 1.23818e-18)
(0.427825 -0.0268684 8.5003e-20)
(0.427687 -0.0299144 1.32993e-18)
(0.427438 -0.0333432 -1.45296e-18)
(0.427055 -0.0372366 -1.53423e-18)
(0.426502 -0.0417023 0)
(0.425736 -0.0468841 1.5707e-18)
(0.424691 -0.0529783 1.08229e-19)
(0.423278 -0.0602589 1.91772e-18)
(0.421365 -0.0691172 -1.19408e-19)
(0.418763 -0.0801541 1.99188e-18)
(0.415184 -0.0941552 -2.09524e-18)
(0.41003 -0.113163 0)
(0.403065 -0.13711 2.36618e-18)
(0.390908 -0.17994 -2.25343e-18)
(0.375663 -0.220503 2.30415e-18)
(0.342404 -0.366097 4.90135e-20)
(0.423632 -0.00558531 0)
(0.424045 -0.006375 9.69416e-19)
(0.424392 -0.00732255 0)
(0.424701 -0.00835775 0)
(0.424995 -0.00947252 0)
(0.425282 -0.0106895 0)
(0.425547 -0.0120212 1.09136e-18)
(0.425778 -0.0134684 3.51194e-20)
(0.425972 -0.0150354 -3.61243e-20)
(0.426124 -0.0167359 0)
(0.426226 -0.0185887 0)
(0.426268 -0.0206158 7.90803e-20)
(0.426241 -0.0228433 1.08673e-22)
(0.426137 -0.0253028 -1.42936e-18)
(0.42594 -0.0280335 0)
(0.425633 -0.0310849 -1.44652e-18)
(0.425192 -0.0345199 0)
(0.424585 -0.0384201 1.66697e-18)
(0.42377 -0.0428924 -2.06569e-19)
(0.422689 -0.0480794 -1.6072e-18)
(0.421262 -0.0541754 9.20222e-19)
(0.419377 -0.0614502 0)
(0.416865 -0.070291 0)
(0.413491 -0.0812735 0)
(0.408855 -0.095229 1.16553e-18)
(0.402312 -0.113863 -1.24322e-18)
(0.393081 -0.138043 0)
(0.37797 -0.178434 -1.36676e-18)
(0.35656 -0.220785 -1.47883e-18)
(0.314398 -0.35502 9.08328e-19)
(0.423053 -0.00662484 4.76217e-19)
(0.423357 -0.00744596 5.02671e-19)
(0.423603 -0.00840827 5.2278e-19)
(0.423849 -0.00946153 4.87085e-19)
(0.424089 -0.0105939 5.82319e-19)
(0.424302 -0.0118158 5.12441e-19)
(0.424481 -0.0131391 5.61386e-19)
(0.424618 -0.014573 -5.77298e-19)
(0.42471 -0.0161285 3.69937e-20)
(0.424753 -0.0178212 5.36379e-19)
(0.42474 -0.0196693 6.32247e-19)
(0.424662 -0.0216934 6.12816e-19)
(0.424507 -0.0239181 8.4005e-20)
(0.424262 -0.0263742 -7.01632e-19)
(0.423908 -0.0291007 9.06937e-20)
(0.423424 -0.0321468 -1.88402e-19)
(0.422779 -0.0355751 -6.94018e-19)
(0.421936 -0.0394662 -8.28529e-19)
(0.420842 -0.0439256 0)
(0.419429 -0.0490936 -1.13776e-19)
(0.417599 -0.0551605 2.03519e-20)
(0.415217 -0.0623902 1.25511e-19)
(0.412077 -0.0711604 9.54632e-19)
(0.407895 -0.0820237 2.14402e-19)
(0.402167 -0.0958115 -2.82674e-20)
(0.394185 -0.114002 1.37271e-18)
(0.382648 -0.138011 -8.76656e-20)
(0.364636 -0.175933 1.43168e-18)
(0.337019 -0.219229 1.64507e-18)
(0.286788 -0.340967 -1.06063e-18)
(0.422341 -0.00763498 -4.89841e-19)
(0.422554 -0.00846324 -4.93511e-19)
(0.422707 -0.009419 -5.21807e-19)
(0.422875 -0.0104636 1.97231e-20)
(0.423037 -0.0115899 -1.06683e-18)
(0.423164 -0.0128067 -5.54493e-19)
(0.42325 -0.0141257 -1.21559e-18)
(0.423293 -0.0155564 6.8737e-20)
(0.42329 -0.0171092 -3.78931e-20)
(0.423233 -0.0187976 -1.2516e-18)
(0.423111 -0.0206386 6.61943e-21)
(0.422914 -0.0226527 -6.23382e-19)
(0.422628 -0.0248649 6.54096e-19)
(0.422236 -0.0273065 -9.18836e-21)
(0.421717 -0.0300164 9.38257e-20)
(0.421046 -0.0330429 -9.73119e-20)
(0.420186 -0.0364477 8.09308e-19)
(0.419094 -0.0403096 8.47506e-19)
(0.417708 -0.0447316 1.12952e-19)
(0.415946 -0.0498503 7.20945e-19)
(0.413695 -0.0558507 -8.03978e-19)