/*--------------------------------*- C++ -*----------------------------------*\
  =========                 |
  \\      /  F ield         | OpenFOAM: The Open Source CFD Toolbox
   \\    /   O peration     | Website:  https://openfoam.org
    \\  /    A nd           | Version:  11
     \\/     M anipulation  |
\*---------------------------------------------------------------------------*/
FoamFile
{
    format      ascii;
    class       volVectorField;
    location    "1.1";
    object      U;
}
// * * * * * * * * * * * * * * * * * * * * * * * * * * * * * * * * * * * * * //

dimensions      [0 1 -1 0 0 0 0];

internalField   nonuniform List<vector> 
12600
(
(0.412281 5.04972e-05 0)
(0.412193 0.000106504 0)
(0.412073 9.90766e-05 0)
(0.411957 8.6516e-05 0)
(0.411886 7.28493e-05 0)
(0.411877 5.27938e-05 0)
(0.411935 2.41457e-05 0)
(0.412066 -7.02969e-06 0)
(0.412278 -3.68736e-05 0)
(0.41258 -6.88145e-05 0)
(0.412982 -0.000106151 0)
(0.413496 -0.000149406 0)
(0.414136 -0.000199384 0)
(0.414921 -0.00025721 0)
(0.415871 -0.000324281 0)
(0.417012 -0.000402243 0)
(0.418371 -0.000493009 0)
(0.419986 -0.000598925 0)
(0.421896 -0.000723096 0)
(0.424149 -0.000869469 0)
(0.426801 -0.00104209 0)
(0.429915 -0.0012437 0)
(0.433557 -0.00147493 0)
(0.437807 -0.00173235 0)
(0.442752 -0.00201579 0)
(0.448483 -0.00232374 0)
(0.455103 -0.00267496 0)
(0.462685 -0.00299543 0)
(0.471345 -0.00361459 0)
(0.482447 -0.0029674 0)
(0.41248 0.000105884 0)
(0.412583 0.000109293 0)
(0.412712 7.847e-05 0)
(0.412858 3.31296e-05 0)
(0.413039 -2.4303e-05 0)
(0.413276 -9.18847e-05 0)
(0.413579 -0.000168565 0)
(0.413953 -0.000254051 0)
(0.414404 -0.000349502 0)
(0.41494 -0.000456088 0)
(0.415572 -0.000574994 0)
(0.41631 -0.000708238 0)
(0.417168 -0.000858635 0)
(0.41816 -0.00102963 0)
(0.419303 -0.00122526 0)
(0.42062 -0.00145026 0)
(0.422134 -0.00171011 0)
(0.423877 -0.00201103 0)
(0.425883 -0.0023596 0)
(0.428192 -0.00276249 0)
(0.430851 -0.00322704 0)
(0.433912 -0.00376193 0)
(0.437439 -0.00437833 0)
(0.441512 -0.00509025 0)
(0.446226 -0.00591114 0)
(0.451689 -0.00684487 0)
(0.458016 -0.00791036 0)
(0.465329 -0.00900128 0)
(0.473707 -0.0105384 0)
(0.483467 -0.010365 0)
(0.412477 1.85492e-05 0)
(0.412539 6.76911e-06 0)
(0.412646 -5.413e-05 0)
(0.412787 -0.000137076 0)
(0.412968 -0.000232273 0)
(0.413202 -0.00034126 0)
(0.413498 -0.000466042 0)
(0.413863 -0.000606152 0)
(0.414301 -0.00076108 0)
(0.414823 -0.000932521 0)
(0.415438 -0.00112368 0)
(0.416155 -0.0013382 0)
(0.416986 -0.00158013 0)
(0.417947 -0.00185431 0)
(0.419053 -0.00216677 0)
(0.420327 -0.00252502 0)
(0.421793 -0.00293809 0)
(0.42348 -0.00341607 0)
(0.425423 -0.00396937 0)
(0.427665 -0.00460881 0)
(0.430256 -0.00534706 0)
(0.433253 -0.0062003 0)
(0.436722 -0.00718885 0)
(0.440738 -0.00833545 0)
(0.445384 -0.00966256 0)
(0.450764 -0.0111826 0)
(0.45696 -0.0129224 0)
(0.464191 -0.0147774 0)
(0.472279 -0.0171565 0)
(0.48255 -0.0180648 0)
(0.412471 -3.32324e-06 0)
(0.412516 -4.29405e-05 0)
(0.412608 -0.000121072 0)
(0.412741 -0.000228788 0)
(0.412914 -0.000357884 0)
(0.413139 -0.000507608 0)
(0.413423 -0.000678658 0)
(0.413773 -0.000870501 0)
(0.414197 -0.00108319 0)
(0.414701 -0.00131879 0)
(0.415293 -0.00158095 0)
(0.415985 -0.00187434 0)
(0.416786 -0.00220479 0)
(0.41771 -0.00257948 0)
(0.418775 -0.003007 0)
(0.419999 -0.00349746 0)
(0.421408 -0.00406264 0)
(0.423028 -0.00471641 0)
(0.424893 -0.0054748 0)
(0.427042 -0.00635596 0)
(0.429525 -0.00737985 0)
(0.432399 -0.0085683 0)
(0.435733 -0.00994531 0)
(0.439605 -0.0115368 0)
(0.444101 -0.013371 0)
(0.449332 -0.0154688 0)
(0.455379 -0.017873 0)
(0.46249 -0.0204876 0)
(0.470441 -0.0237433 0)
(0.480765 -0.0256936 0)
(0.412468 -2.52081e-05 0)
(0.412503 -9.37678e-05 0)
(0.412582 -0.000201029 0)
(0.412702 -0.000342611 0)
(0.412866 -0.000511936 0)
(0.413079 -0.000706133 0)
(0.413349 -0.000924929 0)
(0.413683 -0.00116861 0)
(0.414086 -0.00143827 0)
(0.414565 -0.00173665 0)
(0.415128 -0.00206816 0)
(0.415785 -0.00243863 0)
(0.416546 -0.00285529 0)
(0.417423 -0.00332695 0)
(0.418433 -0.00386427 0)
(0.419594 -0.00448002 0)
(0.420928 -0.00518928 0)
(0.422463 -0.00600942 0)
(0.42423 -0.00696001 0)
(0.426268 -0.00806314 0)
(0.428621 -0.00934439 0)
(0.431344 -0.0108338 0)
(0.4345 -0.0125662 0)
(0.438167 -0.0145797 0)
(0.442431 -0.016915 0)
(0.447413 -0.0196046 0)
(0.453197 -0.0226996 0)
(0.46007 -0.026122 0)
(0.467759 -0.0302754 0)
(0.47805 -0.0333792 0)
(0.412466 -3.94084e-05 0)
(0.412495 -0.000136401 0)
(0.412564 -0.000271625 0)
(0.412674 -0.000442686 0)
(0.412827 -0.000645562 0)
(0.413027 -0.000877695 0)
(0.41328 -0.00113865 0)
(0.413593 -0.00142909 0)
(0.413971 -0.00175056 0)
(0.41442 -0.00210615 0)
(0.414948 -0.00250079 0)
(0.415563 -0.00294134 0)
(0.416275 -0.00343648 0)
(0.417096 -0.00399689 0)
(0.418039 -0.00463539 0)
(0.419122 -0.00536721 0)
(0.420366 -0.00621025 0)
(0.421795 -0.00718542 0)
(0.423438 -0.00831698 0)
(0.425331 -0.0096329 0)
(0.427516 -0.0111653 0)
(0.430046 -0.0129507 0)
(0.432983 -0.0150305 0)
(0.436402 -0.0174507 0)
(0.440388 -0.020262 0)
(0.445064 -0.0235121 0)
(0.450512 -0.0272682 0)
(0.457051 -0.0314841 0)
(0.464368 -0.0365452 0)
(0.474491 -0.040856 0)
(0.412465 -5.14163e-05 0)
(0.41249 -0.000173478 0)
(0.412551 -0.000335119 0)
(0.412651 -0.000535142 0)
(0.412791 -0.000771174 0)
(0.412975 -0.0010409 0)
(0.413208 -0.00134342 0)
(0.413497 -0.00167931 0)
(0.413845 -0.00205045 0)
(0.41426 -0.00246049 0)
(0.414747 -0.00291513 0)
(0.415313 -0.00342221 0)
(0.415967 -0.00399168 0)
(0.416721 -0.0046357 0)
(0.417586 -0.00536894 0)
(0.418579 -0.00620883 0)
(0.419717 -0.00717591 0)
(0.421023 -0.00829416 0)
(0.422523 -0.00959139 0)
(0.42425 -0.0110999 0)
(0.426242 -0.0128572 0)
(0.428547 -0.0149074 0)
(0.431221 -0.0173016 0)
(0.434335 -0.0200979 0)
(0.437972 -0.0233614 0)
(0.442256 -0.0271572 0)
(0.44727 -0.0315701 0)
(0.453364 -0.0365896 0)
(0.460192 -0.0425784 0)
(0.470007 -0.0481814 0)
(0.412465 -6.15993e-05 0)
(0.412486 -0.000205738 0)
(0.412539 -0.00039207 0)
(0.412629 -0.000619383 0)
(0.412755 -0.000885931 0)
(0.412922 -0.00118965 0)
(0.413133 -0.00152955 0)
(0.413395 -0.00190621 0)
(0.413711 -0.00232186 0)
(0.414086 -0.00278062 0)
(0.414526 -0.00328879 0)
(0.415038 -0.00385502 0)
(0.415628 -0.00449032 0)
(0.416307 -0.00520828 0)
(0.417084 -0.00602521 0)
(0.417975 -0.00696052 0)
(0.418994 -0.00803714 0)
(0.42016 -0.00928201 0)
(0.421498 -0.0107267 0)
(0.423034 -0.0124082 0)
(0.424803 -0.0143696 0)
(0.426847 -0.0166616 0)
(0.429218 -0.0193431 0)
(0.431981 -0.0224824 0)
(0.435213 -0.0261583 0)
(0.439035 -0.0304557 0)
(0.443525 -0.0354825 0)
(0.449054 -0.0412755 0)
(0.455246 -0.0481827 0)
(0.464554 -0.0551377 0)
(0.412464 -7.03651e-05 0)
(0.412482 -0.000233858 0)
(0.412529 -0.00044243 0)
(0.412607 -0.000694494 0)
(0.412719 -0.000988598 0)
(0.412867 -0.00132295 0)
(0.413055 -0.00169656 0)
(0.413287 -0.00210998 0)
(0.413567 -0.00256564 0)
(0.413899 -0.00306803 0)
(0.414288 -0.00362399 0)
(0.414739 -0.0042429 0)
(0.415259 -0.00493673 0)
(0.415855 -0.00572021 0)
(0.416536 -0.00661107 0)
(0.417314 -0.0076304 0)
(0.418201 -0.00880315 0)
(0.419215 -0.0101586 0)
(0.420373 -0.0117313 0)
(0.421699 -0.0135616 0)
(0.423223 -0.0156975 0)
(0.424978 -0.0181957 0)
(0.427008 -0.0211237 0)
(0.429372 -0.0245614 0)
(0.432135 -0.0286031 0)
(0.435415 -0.0333551 0)
(0.439278 -0.0389506 0)
(0.444107 -0.0454791 0)
(0.449502 -0.0532771 0)
(0.458054 -0.0616226 0)
(0.412463 -7.78799e-05 0)
(0.412479 -0.000258077 0)
(0.412519 -0.000486145 0)
(0.412586 -0.000760103 0)
(0.412683 -0.00107856 0)
(0.412811 -0.00143984 0)
(0.412973 -0.00184292 0)
(0.413173 -0.00228836 0)
(0.413415 -0.00277868 0)
(0.413701 -0.00331869 0)
(0.414034 -0.00391566 0)
(0.414421 -0.00457952 0)
(0.414864 -0.005323 0)
(0.415371 -0.00616172 0)
(0.415949 -0.00711452 0)
(0.416606 -0.00820378 0)
(0.417352 -0.00945602 0)
(0.418201 -0.0109026 0)
(0.419166 -0.0125804 0)
(0.420265 -0.0145332 0)
(0.421521 -0.0168129 0)
(0.422961 -0.0194815 0)
(0.424618 -0.0226137 0)
(0.426541 -0.026299 0)
(0.428784 -0.0306461 0)
(0.431448 -0.0357826 0)
(0.434587 -0.0418693 0)
(0.438574 -0.0490542 0)
(0.442995 -0.05767 0)
(0.450482 -0.0673833 0)
(0.412463 -8.42099e-05 0)
(0.412476 -0.000278515 0)
(0.412509 -0.000523192 0)
(0.412565 -0.000815889 0)
(0.412646 -0.00115514 0)
(0.412753 -0.00153928 0)
(0.412888 -0.00196727 0)
(0.413055 -0.00243963 0)
(0.413256 -0.00295897 0)
(0.413492 -0.00353027 0)
(0.413768 -0.00416114 0)
(0.414085 -0.00486194 0)
(0.414449 -0.00564591 0)
(0.414862 -0.00652936 0)
(0.41533 -0.00753192 0)
(0.41586 -0.00867695 0)
(0.416457 -0.00999211 0)
(0.417131 -0.0115101 0)
(0.417892 -0.0132696 0)
(0.418752 -0.0153163 0)
(0.419724 -0.0177051 0)
(0.420829 -0.020502 0)
(0.422088 -0.0237875 0)
(0.423535 -0.0276598 0)
(0.425208 -0.0322406 0)
(0.427188 -0.0376777 0)
(0.42951 -0.0441586 0)
(0.432511 -0.05189 0)
(0.435778 -0.0612047 0)
(0.441848 -0.0721857 0)
(0.412462 -8.93846e-05 0)
(0.412473 -0.000295229 0)
(0.412499 -0.00055352 0)
(0.412544 -0.000861585 0)
(0.412609 -0.00121783 0)
(0.412694 -0.00162052 0)
(0.412801 -0.0020686 0)
(0.412933 -0.00256251 0)
(0.413091 -0.0031049 0)
(0.413277 -0.00370086 0)
(0.413492 -0.00435818 0)
(0.413738 -0.00508748 0)
(0.414017 -0.00590235 0)
(0.414333 -0.00681949 0)
(0.414688 -0.007859 0)
(0.415085 -0.00904474 0)
(0.415528 -0.010405 0)
(0.416022 -0.0119732 0)
(0.416572 -0.0137888 0)
(0.417182 -0.015899 0)
(0.417861 -0.0183603 0)
(0.418615 -0.021241 0)
(0.419457 -0.0246254 0)
(0.420402 -0.028618 0)
(0.42147 -0.0333498 0)
(0.422714 -0.0389848 0)
(0.424141 -0.0457336 0)
(0.426026 -0.0538568 0)
(0.427971 -0.0636905 0)
(0.432252 -0.0757296 0)
(0.412462 -9.34215e-05 0)
(0.41247 -0.000308248 0)
(0.41249 -0.000577095 0)
(0.412523 -0.000897012 0)
(0.412571 -0.00126626 0)
(0.412634 -0.00168302 0)
(0.412713 -0.00214614 0)
(0.412809 -0.00265603 0)
(0.412923 -0.00321529 0)
(0.413056 -0.00382903 0)
(0.413209 -0.00450512 0)
(0.413382 -0.00525427 0)
(0.413576 -0.0060902 0)
(0.413791 -0.00702973 0)
(0.41403 -0.00809307 0)
(0.414292 -0.00930421 0)
(0.414578 -0.0106915 0)
(0.414888 -0.0122884 0)
(0.415223 -0.0141346 0)
(0.41558 -0.0162772 0)
(0.415959 -0.0187727 0)
(0.416358 -0.0216902 0)
(0.416773 -0.0251152 0)
(0.417203 -0.0291547 0)
(0.417644 -0.0339453 0)
(0.418115 -0.0396611 0)
(0.418591 -0.0465287 0)
(0.419257 -0.0548509 0)
(0.419745 -0.0649643 0)
(0.421888 -0.0777302 0)
(0.412461 -9.63368e-05 0)
(0.412467 -0.000317606 0)
(0.41248 -0.000593919 0)
(0.412502 -0.000922091 0)
(0.412533 -0.00130023 0)
(0.412574 -0.00172643 0)
(0.412624 -0.00219944 0)
(0.412684 -0.00271959 0)
(0.412754 -0.0032894 0)
(0.412834 -0.00391393 0)
(0.412923 -0.00460098 0)
(0.413021 -0.00536123 0)
(0.413129 -0.00620829 0)
(0.413244 -0.00715884 0)
(0.413365 -0.00823289 0)
(0.413491 -0.0094541 0)
(0.41362 -0.0108504 0)
(0.413746 -0.0124545 0)
(0.413865 -0.0143053 0)
(0.41397 -0.0164488 0)
(0.414051 -0.0189401 0)
(0.414095 -0.0218468 0)
(0.414084 -0.0252526 0)
(0.413998 -0.0292632 0)
(0.41381 -0.0340151 0)
(0.413496 -0.0396839 0)
(0.413001 -0.0465019 0)
(0.41239 -0.0547949 0)
(0.411337 -0.0648924 0)
(0.411074 -0.0779297 0)
(0.412461 -9.81519e-05 0)
(0.412463 -0.000323354 0)
(0.41247 -0.000604039 0)
(0.412481 -0.000936831 0)
(0.412496 -0.0013197 0)
(0.412514 -0.00175064 0)
(0.412536 -0.00222831 0)
(0.412559 -0.00275293 0)
(0.412584 -0.00332693 0)
(0.412611 -0.00395521 0)
(0.412637 -0.00464543 0)
(0.412661 -0.00540804 0)
(0.412682 -0.00625637 0)
(0.412696 -0.00720672 0)
(0.412702 -0.00827853 0)
(0.412693 -0.00949476 0)
(0.412666 -0.0108823 0)
(0.412611 -0.0124727 0)
(0.412519 -0.0143029 0)
(0.412377 -0.0164167 0)
(0.412167 -0.0188663 0)
(0.411865 -0.0217154 0)
(0.41144 -0.0250429 0)
(0.410854 -0.028949 0)
(0.410053 -0.0335629 0)
(0.408973 -0.0390533 0)
(0.407521 -0.0456436 0)
(0.405636 -0.053659 0)
(0.403036 -0.0634074 0)
(0.400241 -0.0761626 0)
(0.41246 -9.88957e-05 0)
(0.412461 -0.000325582 0)
(0.412461 -0.00060758 0)
(0.412461 -0.000941362 0)
(0.41246 -0.00132479 0)
(0.412456 -0.00175575 0)
(0.412448 -0.00223284 0)
(0.412436 -0.00275617 0)
(0.412417 -0.00332801 0)
(0.41239 -0.00395307 0)
(0.412354 -0.00463875 0)
(0.412305 -0.00539515 0)
(0.41224 -0.00623511 0)
(0.412156 -0.00717432 0)
(0.412048 -0.00823139 0)
(0.411908 -0.00942816 0)
(0.411729 -0.0107901 0)
(0.411499 -0.0123467 0)
(0.411204 -0.0141325 0)
(0.410824 -0.0161877 0)
(0.410336 -0.0185602 0)
(0.409706 -0.0213076 0)
(0.40889 -0.0245011 0)
(0.407833 -0.0282308 0)
(0.406457 -0.0326124 0)
(0.404661 -0.037797 0)
(0.402314 -0.0439847 0)
(0.399228 -0.0514725 0)
(0.395163 -0.0605271 0)
(0.389905 -0.0723988 0)
(0.41246 -9.86112e-05 0)
(0.412458 -0.000324402 0)
(0.412452 -0.000604724 0)
(0.412442 -0.000935925 0)
(0.412425 -0.00131576 0)
(0.412399 -0.00174209 0)
(0.412363 -0.00221341 0)
(0.412316 -0.00272975 0)
(0.412254 -0.00329319 0)
(0.412175 -0.00390822 0)
(0.412078 -0.00458185 0)
(0.411957 -0.00532371 0)
(0.41181 -0.00614604 0)
(0.41163 -0.00706367 0)
(0.411411 -0.00809412 0)
(0.411145 -0.00925778 0)
(0.41082 -0.0105782 0)
(0.410423 -0.0120825 0)
(0.409935 -0.0138019 0)
(0.409333 -0.0157723 0)
(0.408585 -0.0180356 0)
(0.407652 -0.0206418 0)
(0.406479 -0.0236517 0)
(0.404994 -0.0271409 0)
(0.403102 -0.0312058 0)
(0.400669 -0.0359708 0)
(0.397529 -0.0415979 0)
(0.393391 -0.0483298 0)
(0.38804 -0.0563711 0)
(0.380609 -0.0667833 0)
(0.412459 -9.73514e-05 0)
(0.412455 -0.000319972 0)
(0.412444 -0.00059573 0)
(0.412423 -0.000920871 0)
(0.412391 -0.00129308 0)
(0.412345 -0.00171018 0)
(0.412282 -0.00217067 0)
(0.4122 -0.00267446 0)
(0.412096 -0.00322345 0)
(0.411968 -0.00382182 0)
(0.411811 -0.00447618 0)
(0.411621 -0.00519558 0)
(0.411394 -0.00599148 0)
(0.411123 -0.0068777 0)
(0.410799 -0.00787045 0)
(0.410413 -0.00898843 0)
(0.409951 -0.010253 0)
(0.409397 -0.0116884 0)
(0.40873 -0.0133219 0)
(0.407923 -0.0151844 0)
(0.406939 -0.017311 0)
(0.405734 -0.0197425 0)
(0.404244 -0.0225271 0)
(0.402388 -0.0257232 0)
(0.400056 -0.0294027 0)
(0.397089 -0.033656 0)
(0.393301 -0.0385961 0)
(0.38832 -0.0443887 0)
(0.381953 -0.0511596 0)
(0.372844 -0.0596413 0)
(0.412459 -9.51837e-05 0)
(0.412453 -0.000312514 0)
(0.412436 -0.000580957 0)
(0.412406 -0.000896678 0)
(0.412359 -0.00125733 0)
(0.412293 -0.00166076 0)
(0.412205 -0.0021055 0)
(0.41209 -0.00259138 0)
(0.411946 -0.0031201 0)
(0.41177 -0.00369551 0)
(0.411557 -0.00432375 0)
(0.411302 -0.0050132 0)
(0.410999 -0.00577446 0)
(0.41064 -0.00662019 0)
(0.410218 -0.00756514 0)
(0.409719 -0.00862612 0)
(0.40913 -0.00982203 0)
(0.408432 -0.0111739 0)
(0.407601 -0.012705 0)
(0.406609 -0.0144405 0)
(0.405417 -0.0164082 0)
(0.403975 -0.0186388 0)
(0.402216 -0.0211666 0)
(0.400053 -0.0240307 0)
(0.397368 -0.0272762 0)
(0.393991 -0.0309547 0)
(0.389723 -0.0351233 0)
(0.384157 -0.0398574 0)
(0.377112 -0.0451949 0)
(0.366967 -0.0514494 0)
(0.412458 -9.21982e-05 0)
(0.41245 -0.000302293 0)
(0.412429 -0.000560842 0)
(0.41239 -0.000863943 0)
(0.41233 -0.00120926 0)
(0.412246 -0.00159476 0)
(0.412133 -0.00201903 0)
(0.411987 -0.00248188 0)
(0.411806 -0.0029848 0)
(0.411584 -0.0035313 0)
(0.411318 -0.00412699 0)
(0.411001 -0.00477956 0)
(0.410627 -0.00549863 0)
(0.410188 -0.00629564 0)
(0.409673 -0.00718377 0)
(0.409071 -0.0081778 0)
(0.408365 -0.00929408 0)
(0.407536 -0.0105503 0)
(0.40656 -0.0119654 0)
(0.405406 -0.0135591 0)
(0.404034 -0.0153513 0)
(0.402393 -0.0173626 0)
(0.400416 -0.0196131 0)
(0.398014 -0.0221225 0)
(0.39507 -0.0249079 0)
(0.391414 -0.0279812 0)
(0.386851 -0.031343 0)
(0.380976 -0.0349748 0)
(0.373621 -0.0388285 0)
(0.363142 -0.0427734 0)
(0.412458 -8.85057e-05 0)
(0.412449 -0.000289649 0)
(0.412423 -0.000535936 0)
(0.412377 -0.000823391 0)
(0.412305 -0.00114976 0)
(0.412203 -0.00151326 0)
(0.412067 -0.00191262 0)
(0.411893 -0.00234762 0)
(0.411676 -0.00281954 0)
(0.411413 -0.00333156 0)
(0.411097 -0.00388877 0)
(0.410723 -0.00449809 0)
(0.410283 -0.00516813 0)
(0.409769 -0.00590906 0)
(0.40917 -0.00673244 0)
(0.408474 -0.00765102 0)
(0.407663 -0.00867858 0)
(0.406718 -0.00982956 0)
(0.405615 -0.0111186 0)
(0.404321 -0.0125598 0)
(0.402799 -0.0141659 0)
(0.400997 -0.0159474 0)
(0.398853 -0.0179112 0)
(0.396281 -0.0200584 0)
(0.393171 -0.0223802 0)
(0.389368 -0.0248515 0)
(0.384689 -0.0274208 0)
(0.378772 -0.0299831 0)
(0.37147 -0.0324169 0)
(0.36132 -0.0341865 0)
(0.412458 -8.42496e-05 0)
(0.412447 -0.000275018 0)
(0.412418 -0.00050692 0)
(0.412365 -0.00077588 0)
(0.412283 -0.00107987 0)
(0.412165 -0.00141752 0)
(0.412009 -0.00178779 0)
(0.411808 -0.00219044 0)
(0.411559 -0.00262658 0)
(0.411257 -0.00309904 0)
(0.410896 -0.00361236 0)
(0.410469 -0.00417269 0)
(0.40997 -0.00478762 0)
(0.409388 -0.00546603 0)
(0.408714 -0.00621785 0)
(0.407933 -0.00705383 0)
(0.407029 -0.00798521 0)
(0.405983 -0.00902335 0)
(0.40477 -0.010179 0)
(0.40336 -0.0114613 0)
(0.401717 -0.0128765 0)
(0.399793 -0.0144262 0)
(0.39753 -0.0161053 0)
(0.394852 -0.0178987 0)
(0.391664 -0.019775 0)
(0.387831 -0.0216779 0)
(0.383198 -0.0235134 0)
(0.377475 -0.0251063 0)
(0.37054 -0.0262819 0)
(0.361259 -0.0261905 0)
(0.412458 -7.96224e-05 0)
(0.412446 -0.000258972 0)
(0.412415 -0.000474626 0)
(0.412357 -0.000722408 0)
(0.412265 -0.00100077 0)
(0.412134 -0.00130896 0)
(0.411959 -0.00164623 0)
(0.411735 -0.00201233 0)
(0.411457 -0.00240825 0)
(0.41112 -0.00283651 0)
(0.410717 -0.00330115 0)
(0.410244 -0.00380751 0)
(0.409691 -0.00436214 0)
(0.409049 -0.00497264 0)
(0.408307 -0.00564741 0)
(0.407452 -0.00639532 0)
(0.406468 -0.00722531 0)
(0.405335 -0.00814582 0)
(0.40403 -0.009164 0)
(0.402525 -0.0102845 0)
(0.400787 -0.0115079 0)
(0.398774 -0.0128289 0)
(0.396437 -0.0142332 0)
(0.393711 -0.0156931 0)
(0.390518 -0.0171603 0)
(0.386754 -0.0185549 0)
(0.382301 -0.0197524 0)
(0.376955 -0.0205295 0)
(0.370626 -0.020681 0)
(0.362584 -0.0191631 0)
(0.412458 -7.4904e-05 0)
(0.412446 -0.000242306 0)
(0.412415 -0.000440056 0)
(0.412353 -0.000664042 0)
(0.412254 -0.000913742 0)
(0.412111 -0.00118926 0)
(0.41192 -0.00149005 0)
(0.411674 -0.00181578 0)
(0.41137 -0.00216733 0)
(0.411002 -0.00254699 0)
(0.410564 -0.00295831 0)
(0.410048 -0.00340587 0)
(0.409448 -0.00389524 0)
(0.408753 -0.00443279 0)
(0.407953 -0.00502543 0)
(0.407034 -0.00568023 0)
(0.405981 -0.00640412 0)
(0.404775 -0.00720329 0)
(0.403395 -0.00808231 0)
(0.401817 -0.00904243 0)
(0.400009 -0.0100798 0)
(0.397938 -0.0111833 0)
(0.395561 -0.0123317 0)
(0.392831 -0.0134882 0)
(0.389691 -0.0145937 0)
(0.386069 -0.015554 0)
(0.381889 -0.0162288 0)
(0.377039 -0.0163716 0)
(0.371468 -0.0157701 0)
(0.36485 -0.0133133 0)
(0.412458 -7.05492e-05 0)
(0.412448 -0.000226236 0)
(0.412417 -0.000404474 0)
(0.412354 -0.000601806 0)
(0.41225 -0.000819736 0)
(0.412097 -0.0010596 0)
(0.411892 -0.00132103 0)
(0.411629 -0.0016036 0)
(0.411303 -0.00190807 0)
(0.410908 -0.00223644 0)
(0.410438 -0.00259167 0)
(0.409886 -0.00297754 0)
(0.409245 -0.00339864 0)
(0.408506 -0.00386019 0)
(0.407656 -0.00436779 0)
(0.406683 -0.004927 0)
(0.405573 -0.0055429 0)
(0.404307 -0.00621953 0)
(0.402866 -0.00695903 0)
(0.401229 -0.0077599 0)
(0.39937 -0.00861546 0)
(0.397262 -0.00951227 0)
(0.394875 -0.0104264 0)
(0.392177 -0.0113177 0)
(0.389131 -0.0121222 0)
(0.385702 -0.0127401 0)
(0.381852 -0.0130271 0)
(0.377554 -0.012735 0)
(0.372798 -0.0116627 0)
(0.367612 -0.00874724 0)
(0.412459 -6.73266e-05 0)
(0.412451 -0.000212625 0)
(0.412426 -0.00037003 0)
(0.412364 -0.000537823 0)
(0.412255 -0.000720523 0)
(0.412094 -0.000920645 0)
(0.411877 -0.00113796 0)
(0.411599 -0.00137227 0)
(0.411254 -0.00162454 0)
(0.410836 -0.00189666 0)
(0.41034 -0.00219104 0)
(0.409759 -0.00251066 0)
(0.409084 -0.00285915 0)
(0.408306 -0.0032406 0)
(0.407415 -0.00365932 0)
(0.406398 -0.00411951 0)
(0.40524 -0.00462491 0)
(0.403927 -0.00517839 0)
(0.402442 -0.00578104 0)
(0.400765 -0.00642963 0)
(0.398876 -0.00711543 0)
(0.396752 -0.00782358 0)
(0.394371 -0.00852913 0)
(0.391718 -0.00919137 0)
(0.388779 -0.00974741 0)
(0.38555 -0.0101013 0)
(0.382034 -0.0101184 0)
(0.378277 -0.00957094 0)
(0.374312 -0.00828809 0)
(0.370425 -0.00533835 0)
(0.412461 -6.65356e-05 0)
(0.41246 -0.000202683 0)
(0.412444 -0.000337471 0)
(0.412386 -0.000475491 0)
(0.412276 -0.000624434 0)
(0.412109 -0.000786582 0)
(0.411883 -0.000961263 0)
(0.411594 -0.00114837 0)
(0.411234 -0.00134895 0)
(0.410798 -0.00156464 0)
(0.41028 -0.00179741 0)
(0.409674 -0.00204967 0)
(0.408972 -0.00232419 0)
(0.408165 -0.00262405 0)
(0.407242 -0.00295243 0)
(0.40619 -0.00331245 0)
(0.404997 -0.00370676 0)
(0.403647 -0.00413751 0)
(0.402125 -0.00460493 0)
(0.400418 -0.00510333 0)
(0.398508 -0.00562307 0)
(0.396381 -0.00615262 0)
(0.394027 -0.00667217 0)
(0.39144 -0.00714649 0)
(0.388623 -0.00751896 0)
(0.385592 -0.00770178 0)
(0.38238 -0.00757597 0)
(0.37909 -0.00694425 0)
(0.375806 -0.00568225 0)
(0.37299 -0.00306353 0)
(0.412464 -7.56352e-05 0)
(0.412479 -0.000197552 0)
(0.412476 -0.000295443 0)
(0.412423 -0.000391088 0)
(0.412311 -0.000496136 0)
(0.412139 -0.000611482 0)
(0.411908 -0.000736011 0)
(0.41161 -0.000869917 0)
(0.41124 -0.00101417 0)
(0.410792 -0.00116988 0)
(0.410261 -0.00133826 0)
(0.409639 -0.00152078 0)
(0.408919 -0.00171925 0)
(0.408093 -0.0019357 0)
(0.407149 -0.00217228 0)
(0.406077 -0.002431 0)
(0.404864 -0.00271313 0)
(0.403495 -0.00302132 0)
(0.401962 -0.00335941 0)
(0.400252 -0.00372061 0)
(0.39835 -0.00409218 0)
(0.396241 -0.00446506 0)
(0.393919 -0.0048229 0)
(0.391386 -0.00513413 0)
(0.388659 -0.0053513 0)
(0.385779 -0.00540451 0)
(0.382819 -0.00520715 0)
(0.379912 -0.00459842 0)
(0.377199 -0.00351989 0)
(0.375145 -0.00143864 0)
(0.412474 -0.000114542 0)
(0.41255 -0.000247869 0)
(0.412541 -0.000319105 0)
(0.412471 -0.000379166 0)
(0.412342 -0.000444756 0)
(0.412157 -0.000515756 0)
(0.411912 -0.000591353 0)
(0.4116 -0.000672248 0)
(0.411214 -0.000759311 0)
(0.410749 -0.000853361 0)
(0.410198 -0.000955392 0)
(0.409556 -0.00106653 0)
(0.408814 -0.00118793 0)
(0.407964 -0.00132072 0)
(0.406998 -0.00146604 0)
(0.405904 -0.00162497 0)
(0.404671 -0.00179829 0)
(0.403288 -0.00198665 0)
(0.40173 -0.00219003 0)
(0.399956 -0.00240553 0)
(0.39799 -0.00262676 0)
(0.395825 -0.00284488 0)
(0.393457 -0.0030475 0)
(0.390903 -0.00321611 0)
(0.388201 -0.00332311 0)
(0.38541 -0.00332494 0)
(0.382639 -0.00316043 0)
(0.379985 -0.00271443 0)
(0.377781 -0.00192579 0)
(0.375636 -0.000236497 0)
(0.41227 -7.26985e-05 0)
(0.412116 -0.000149802 0)
(0.411836 -0.00018436 0)
(0.411455 -0.000210483 0)
(0.411009 -0.000237939 0)
(0.410508 -0.000266396 0)
(0.409943 -0.000295404 0)
(0.409306 -0.000325433 0)
(0.408593 -0.000357044 0)
(0.407796 -0.00039069 0)
(0.406912 -0.000426833 0)
(0.40593 -0.000466007 0)
(0.404843 -0.000508803 0)
(0.403641 -0.000555832 0)
(0.402312 -0.000607666 0)
(0.400843 -0.000664761 0)
(0.399223 -0.000727502 0)
(0.397438 -0.000794021 0)
(0.395481 -0.000859248 0)
(0.393344 -0.000923289 0)
(0.391019 -0.000989425 0)
(0.388499 -0.00105662 0)
(0.385793 -0.00112277 0)
(0.382921 -0.00118373 0)
(0.379923 -0.00122903 0)
(0.376872 -0.00123722 0)
(0.373894 -0.00118391 0)
(0.371205 -0.000988589 0)
(0.369129 -0.000756995 0)
(0.367301 0.000387508 0)
(0.486061 -0.00632373 -4.05487e-20)
(0.49023 -0.00961642 -3.96724e-20)
(0.493874 -0.0136381 -5.69732e-19)
(0.496757 -0.0180515 -1.62016e-19)
(0.499278 -0.0227461 1.64291e-19)
(0.501601 -0.0276807 0)
(0.503752 -0.0328644 0)
(0.50577 -0.0383308 1.62964e-19)
(0.507717 -0.0441152 -1.65632e-19)
(0.509643 -0.0502487 -3.25895e-19)
(0.511572 -0.0567634 3.3149e-19)
(0.51351 -0.0636993 0)
(0.515458 -0.0711065 -3.2293e-19)
(0.51742 -0.0790495 3.2886e-19)
(0.519405 -0.0876098 0)
(0.521423 -0.0968853 6.3039e-19)
(0.523483 -0.106997 3.06749e-19)
(0.525595 -0.118093 2.90597e-19)
(0.527767 -0.130358 2.87668e-19)
(0.530003 -0.144022 2.62536e-19)
(0.532301 -0.159382 -2.54467e-19)
(0.534656 -0.176814 7.34293e-19)
(0.537035 -0.196815 0)
(0.539415 -0.220027 -3.32456e-19)
(0.54163 -0.247346 9.48382e-20)
(0.543605 -0.27994 -1.59466e-19)
(0.544934 -0.318974 1.02157e-19)
(0.543689 -0.370494 0)
(0.545677 -0.417585 0)
(0.521248 -0.538643 3.56618e-19)
(0.489934 -0.0147182 -6.70858e-19)
(0.49264 -0.018381 0)
(0.494857 -0.0226983 0)
(0.496646 -0.0272774 -6.77499e-19)
(0.498295 -0.0320416 6.80765e-19)
(0.499928 -0.0370229 6.83572e-19)
(0.501545 -0.0422709 -1.69366e-19)
(0.503148 -0.0478206 1.722e-19)
(0.504751 -0.0536948 5.21472e-19)
(0.506358 -0.0599177 8.67183e-19)
(0.507956 -0.0665237 -3.41366e-19)
(0.50953 -0.0735597 7.0329e-19)
(0.511076 -0.0810846 3.477e-19)
(0.512593 -0.089169 3.57196e-19)
(0.514084 -0.0978971 3.46131e-19)
(0.515548 -0.107369 6.90604e-19)
(0.516982 -0.117707 0)
(0.518375 -0.129058 -3.22802e-19)
(0.51971 -0.141607 -3.32097e-19)
(0.520961 -0.155583 0)
(0.52209 -0.171275 2.85693e-19)
(0.523042 -0.189051 2.93464e-19)
(0.523717 -0.209385 -5.41308e-19)
(0.524003 -0.23288 0)
(0.523603 -0.260369 1.45906e-19)
(0.522345 -0.29285 1.43539e-19)
(0.519342 -0.33169 -1.43624e-19)
(0.513439 -0.380446 -1.51325e-19)
(0.508023 -0.429382 1.56867e-19)
(0.477121 -0.538523 -2.87438e-19)
(0.488295 -0.0226741 6.83041e-19)
(0.490126 -0.0262272 0)
(0.491692 -0.0304289 -8.5891e-20)
(0.493191 -0.0349506 1.47935e-18)
(0.494703 -0.0397153 -5.22081e-19)
(0.496223 -0.0447354 -1.05032e-18)
(0.49771 -0.0500346 8.90954e-19)
(0.499145 -0.0556302 -1.76522e-19)
(0.500525 -0.0615441 -5.28852e-19)
(0.501845 -0.0678107 -1.63028e-19)
(0.503103 -0.074476 1.81479e-19)
(0.504296 -0.0815933 -1.07407e-18)
(0.505423 -0.0892232 7.24871e-19)
(0.506484 -0.097435 -1.08279e-18)
(0.50747 -0.106311 0)
(0.508366 -0.115949 -7.11554e-19)
(0.509151 -0.12647 0)
(0.509796 -0.138022 0)
(0.510262 -0.150784 6.84541e-19)
(0.510496 -0.164982 0)
(0.510423 -0.180894 0)
(0.509941 -0.198869 -6.09198e-19)
(0.508889 -0.219354 5.64315e-19)
(0.507073 -0.242906 0)
(0.504089 -0.270287 0)
(0.499654 -0.302356 -3.09115e-19)
(0.492558 -0.340476 -9.76318e-20)
(0.482224 -0.386701 -9.15166e-20)
(0.469135 -0.436595 2.58917e-20)
(0.432957 -0.533751 0)
(0.486347 -0.0308284 -2.18647e-20)
(0.487809 -0.0344902 -2.18788e-20)
(0.489039 -0.0387515 6.75802e-19)
(0.49031 -0.0433126 -1.44035e-18)
(0.49159 -0.048105 9.11123e-20)
(0.492808 -0.0531425 1.81908e-19)
(0.493938 -0.058455 -1.70302e-19)
(0.494986 -0.0640707 0)
(0.49596 -0.0700215 9.43896e-19)
(0.496864 -0.0763464 -1.6991e-18)
(0.497691 -0.0830898 7.70709e-19)
(0.498434 -0.090301 3.79514e-19)
(0.499082 -0.0980365 -1.17004e-18)
(0.499617 -0.106364 0)
(0.500017 -0.115365 0)
(0.500253 -0.125138 7.96314e-19)
(0.500289 -0.135802 7.98677e-19)
(0.50008 -0.1475 3.82328e-19)
(0.499563 -0.160407 -1.27619e-20)
(0.498661 -0.174736 -3.88697e-19)
(0.497261 -0.190748 0)
(0.495216 -0.208768 0)
(0.492312 -0.229204 -4.12587e-19)
(0.488282 -0.252554 -1.06646e-18)
(0.482632 -0.27949 0)
(0.474989 -0.310726 -3.77701e-19)
(0.463898 -0.347505 2.59275e-19)
(0.449276 -0.390995 -6.05295e-19)
(0.428793 -0.439712 3.95349e-20)
(0.388988 -0.524698 0)
(0.483405 -0.0389464 0)
(0.484493 -0.0426275 7.39189e-19)
(0.485329 -0.0468688 -6.43289e-19)
(0.486265 -0.0514127 6.48751e-19)
(0.487221 -0.056207 9.41186e-20)
(0.488094 -0.0612668 -9.58067e-20)
(0.488867 -0.0666187 -7.63297e-19)
(0.489555 -0.072288 0)
(0.490162 -0.0783026 2.15026e-20)
(0.490675 -0.0846971 7.85262e-19)
(0.491078 -0.0915132 -9.92444e-19)
(0.491352 -0.0987996 1.03174e-18)
(0.491479 -0.106614 1.01022e-18)
(0.491432 -0.115025 -2.08324e-19)
(0.491182 -0.124113 1.27032e-18)
(0.490689 -0.133974 -8.00448e-19)
(0.489905 -0.144722 -8.52605e-19)
(0.488766 -0.156493 -4.30491e-19)
(0.487191 -0.169449 0)
(0.485073 -0.183788 0)
(0.48227 -0.199752 0)
(0.478594 -0.21763 4.13415e-19)
(0.473783 -0.237786 1.24778e-18)
(0.467509 -0.260649 3.65589e-19)
(0.459215 -0.286794 7.76921e-19)
(0.448447 -0.316788 -5.59657e-19)
(0.433603 -0.351724 7.70182e-19)
(0.414919 -0.392125 -2.69305e-19)
(0.387792 -0.438272 4.99924e-19)
(0.345731 -0.511463 3.51124e-19)
(0.479573 -0.0469136 -7.60015e-19)
(0.480312 -0.0506515 -7.55608e-19)
(0.480778 -0.0549225 -7.8269e-19)
(0.481389 -0.0594955 0)
(0.482029 -0.0643237 0)
(0.48256 -0.0694194 -8.13153e-19)
(0.482965 -0.0748067 0)
(0.483262 -0.0805103 6.31286e-19)
(0.483449 -0.0865592 -1.461e-18)
(0.483505 -0.092989 8.61028e-19)
(0.483409 -0.0998426 6.60726e-19)
(0.483139 -0.107169 -1.7391e-18)
(0.482671 -0.115024 1.94604e-21)
(0.481971 -0.123474 -6.91733e-19)
(0.481001 -0.132596 4.55492e-20)
(0.479709 -0.142478 -8.96062e-19)
(0.478032 -0.153226 -5.60028e-20)
(0.47589 -0.164967 9.78091e-19)
(0.473182 -0.17785 -5.20265e-19)
(0.469777 -0.192053 -4.88065e-19)
(0.465505 -0.207789 1.0261e-18)
(0.460145 -0.225312 0)
(0.453398 -0.24493 -9.34936e-19)
(0.444886 -0.267002 0)
(0.43401 -0.291995 -1.07513e-18)
(0.420253 -0.320337 8.78663e-19)
(0.401941 -0.352936 2.42392e-19)
(0.37951 -0.389831 7.45503e-19)
(0.346712 -0.432235 -7.69008e-19)
(0.303483 -0.494175 7.13486e-19)
(0.474755 -0.0547338 7.52844e-19)
(0.475138 -0.058514 -2.48698e-20)
(0.475218 -0.0627976 9.53644e-19)
(0.475474 -0.0673779 3.14562e-19)
(0.475759 -0.0722136 0)
(0.475905 -0.077317 8.34954e-19)
(0.475894 -0.0827126 6.52197e-19)
(0.47575 -0.0884254 -1.07925e-18)
(0.475469 -0.0944845 4.2046e-19)
(0.475024 -0.100924 -4.26022e-19)
(0.474387 -0.107785 -9.01932e-19)
(0.47353 -0.115113 9.16987e-19)
(0.472422 -0.12296 -2.51475e-19)
(0.471022 -0.131388 7.05239e-19)
(0.46928 -0.140468 -2.08342e-19)
(0.467134 -0.150282 -2.53601e-19)
(0.464508 -0.160927 1.53549e-18)
(0.461309 -0.172517 -1.5671e-18)
(0.457418 -0.185182 1.03868e-18)
(0.452684 -0.199078 3.02222e-19)
(0.446915 -0.214387 -7.93957e-19)
(0.439864 -0.231322 6.09275e-19)
(0.431201 -0.250132 0)
(0.420519 -0.271101 -2.98786e-19)
(0.407193 -0.294586 1.45801e-18)
(0.390662 -0.320887 0)
(0.369255 -0.350699 -2.17598e-18)
(0.343513 -0.383708 3.33714e-19)
(0.306156 -0.421516 0)
(0.262623 -0.472975 -9.5039e-19)
(0.468863 -0.0622106 -4.17804e-19)
(0.468869 -0.0660325 -5.24519e-20)
(0.46854 -0.0703223 -3.28023e-19)
(0.468415 -0.0748982 -4.83267e-19)
(0.468318 -0.0797253 1.10387e-19)
(0.468051 -0.0848167 -1.12649e-19)
(0.467593 -0.0901961 -4.50584e-19)
(0.466975 -0.0958878 -4.77244e-19)
(0.46619 -0.101919 4.67489e-19)
(0.465204 -0.108322 -2.33626e-19)
(0.463984 -0.115135 -2.48734e-19)
(0.462495 -0.122399 0)
(0.4607 -0.130165 7.66841e-19)
(0.458551 -0.138487 -2.66534e-19)