/*--------------------------------*- C++ -*----------------------------------*\
  =========                 |
  \\      /  F ield         | OpenFOAM: The Open Source CFD Toolbox
   \\    /   O peration     | Website:  https://openfoam.org
    \\  /    A nd           | Version:  11
     \\/     M anipulation  |
\*---------------------------------------------------------------------------*/
FoamFile
{
    format      ascii;
    class       volScalarField;
    location    "0.4";
    object      p;
}
// * * * * * * * * * * * * * * * * * * * * * * * * * * * * * * * * * * * * * //

dimensions      [0 2 -2 0 0 0 0];

internalField   nonuniform List<scalar> 
12600
(
0.110673
0.110587
0.110531
0.110515
0.110508
0.110485
0.110405
0.110235
0.110108
0.110021
0.109885
0.109759
0.109638
0.10948
0.109265
0.109001
0.108687
0.108315
0.107871
0.107349
0.106742
0.106022
0.105165
0.104146
0.10293
0.101482
0.0997599
0.0977134
0.0953102
0.0924435
0.110616
0.110568
0.11053
0.110527
0.110529
0.110462
0.110303
0.110216
0.11016
0.110056
0.109931
0.109799
0.109652
0.109482
0.109273
0.109018
0.108717
0.108357
0.107917
0.107403
0.10681
0.106105
0.105264
0.104262
0.103066
0.101639
0.0999369
0.0979097
0.0955048
0.0926438
0.110593
0.110567
0.110536
0.110536
0.11054
0.110459
0.110329
0.110261
0.110223
0.110095
0.109948
0.109816
0.109688
0.109526
0.109315
0.109063
0.10877
0.108421
0.108003
0.107514
0.106939
0.106257
0.105445
0.104475
0.103317
0.101931
0.100271
0.0982863
0.0959037
0.0930841
0.110586
0.110567
0.110544
0.110554
0.110556
0.11046
0.11032
0.110259
0.110237
0.110131
0.109984
0.109859
0.109739
0.10958
0.109374
0.109134
0.108858
0.108529
0.108136
0.107672
0.107127
0.106481
0.105711
0.104791
0.103689
0.102367
0.100774
0.098858
0.096533
0.093766
0.110588
0.110571
0.110556
0.110569
0.110565
0.11048
0.11035
0.110301
0.110287
0.110189
0.110038
0.109913
0.1098
0.10965
0.109455
0.10923
0.108972
0.108666
0.108302
0.107873
0.107369
0.10677
0.106056
0.105203
0.104177
0.10294
0.101441
0.0996242
0.0973908
0.0947107
0.110597
0.110583
0.110571
0.110589
0.110593
0.110501
0.110371
0.110331
0.110324
0.110234
0.11009
0.109974
0.109874
0.109737
0.109555
0.109348
0.109114
0.108836
0.108507
0.108119
0.107662
0.107122
0.106477
0.105705
0.104775
0.103648
0.102272
0.100588
0.098486
0.0959342
0.110613
0.1106
0.110592
0.110611
0.110617
0.110529
0.110405
0.110374
0.110378
0.110297
0.110159
0.110051
0.109961
0.109837
0.109672
0.109486
0.109278
0.109032
0.108742
0.108401
0.108001
0.107528
0.106966
0.106291
0.105476
0.104483
0.10326
0.101747
0.0998229
0.0974521
0.110634
0.110622
0.110616
0.110638
0.110648
0.110563
0.110446
0.110423
0.110431
0.110356
0.110229
0.110132
0.110056
0.109948
0.109803
0.109641
0.109462
0.109252
0.109004
0.108716
0.108379
0.107983
0.107513
0.10695
0.106269
0.105435
0.104397
0.103097
0.101403
0.0992792
0.110659
0.110648
0.110644
0.110669
0.110682
0.110602
0.11049
0.110472
0.110489
0.110425
0.110308
0.110222
0.110161
0.110071
0.109946
0.109809
0.109662
0.10949
0.109289
0.109057
0.108789
0.108477
0.108109
0.10767
0.107139
0.106487
0.105667
0.104623
0.103221
0.101422
0.110688
0.110678
0.110675
0.110704
0.110719
0.110643
0.110539
0.110528
0.110552
0.110498
0.110391
0.110318
0.110272
0.1102
0.110098
0.109988
0.109874
0.109742
0.10959
0.109417
0.109222
0.108999
0.10874
0.108436
0.108071
0.107621
0.107048
0.106304
0.105259
0.103873
0.11072
0.110711
0.11071
0.110741
0.11076
0.110689
0.11059
0.110585
0.110618
0.110574
0.110478
0.110419
0.110389
0.110336
0.110257
0.110175
0.110094
0.110004
0.109901
0.10979
0.10967
0.109538
0.109393
0.10923
0.109041
0.108811
0.108511
0.108106
0.107483
0.106604
0.110755
0.110746
0.110747
0.11078
0.110802
0.110736
0.110643
0.110644
0.110686
0.110652
0.110568
0.110523
0.110509
0.110475
0.110419
0.110366
0.110319
0.110269
0.110217
0.110166
0.110121
0.110083
0.110053
0.110033
0.110025
0.110025
0.110018
0.109984
0.10984
0.109556
0.110792
0.110784
0.110786
0.110822
0.110847
0.110785
0.110698
0.110705
0.110757
0.110732
0.11066
0.110628
0.11063
0.110616
0.110583
0.110557
0.110543
0.110534
0.11053
0.110539
0.110567
0.110619
0.110702
0.110824
0.110997
0.111228
0.111521
0.111878
0.112253
0.112635
0.11083
0.110823
0.110826
0.110865
0.110893
0.110836
0.110754
0.110767
0.110827
0.110813
0.110752
0.110734
0.110752
0.110756
0.110746
0.110747
0.110764
0.110793
0.110836
0.110901
0.110998
0.111135
0.111324
0.111581
0.111926
0.112381
0.112968
0.113715
0.114624
0.115713
0.110869
0.110863
0.110868
0.110909
0.110939
0.110887
0.110811
0.110829
0.110897
0.110894
0.110844
0.110839
0.110872
0.110894
0.110904
0.11093
0.110978
0.111042
0.111128
0.111244
0.111404
0.111618
0.111904
0.112283
0.112785
0.113443
0.114303
0.115415
0.116839
0.118626
0.110909
0.110904
0.11091
0.110953
0.110986
0.110938
0.110868
0.110891
0.110966
0.110973
0.110934
0.110941
0.110988
0.111027
0.111057
0.111106
0.111181
0.111277
0.111401
0.111563
0.111777
0.112058
0.112426
0.112909
0.113544
0.114377
0.11547
0.116899
0.118777
0.121192
0.110949
0.110944
0.110952
0.110997
0.111033
0.110988
0.110924
0.110952
0.111033
0.111048
0.111021
0.11104
0.1111
0.111154
0.111202
0.111272
0.111371
0.111495
0.111651
0.111851
0.11211
0.112445
0.11288
0.113444
0.114182
0.115148
0.116419
0.118092
0.120321
0.123232
0.110989
0.110985
0.110994
0.111041
0.111078
0.111038
0.110978
0.111012
0.111097
0.11112
0.111104
0.111135
0.111206
0.111273
0.111338
0.111426
0.111545
0.111693
0.111875
0.112105
0.112399
0.112774
0.113255
0.113876
0.114681
0.115732
0.117114
0.118935
0.121378
0.124594
0.111029
0.111025
0.111035
0.111084
0.111123
0.111085
0.111031
0.11107
0.111159
0.111188
0.111183
0.111224
0.111305
0.111384
0.111463
0.111566
0.111702
0.111868
0.112071
0.112323
0.112641
0.113041
0.113549
0.114197
0.115033
0.116116
0.117534
0.119397
0.121894
0.125185
0.111067
0.111064
0.111075
0.111125
0.111166
0.111131
0.111081
0.111125
0.111218
0.111252
0.111256
0.111307
0.111397
0.111486
0.111576
0.111692
0.111841
0.112021
0.112238
0.112504
0.112834
0.113245
0.113759
0.114408
0.115236
0.116298
0.117676
0.119472
0.12186
0.124987
0.111105
0.111101
0.111113
0.111165
0.111207
0.111174
0.111128
0.111177
0.111273
0.11131
0.111323
0.111382
0.11148
0.111577
0.111678
0.111803
0.111962
0.112152
0.112376
0.112648
0.112981
0.113388
0.11389
0.114515
0.115298
0.11629
0.117557
0.119186
0.121315
0.124063
0.11114
0.111137
0.11115
0.111202
0.111245
0.111215
0.111172
0.111226
0.111322
0.111363
0.111384
0.11145
0.111554
0.111659
0.111767
0.1119
0.112065
0.11226
0.112487
0.112758
0.113084
0.113475
0.113949
0.114527
0.115237
0.116116
0.117214
0.118593
0.120343
0.122539
0.111175
0.111171
0.111184
0.111237
0.111282
0.111253
0.111212
0.111269
0.111368
0.111411
0.111438
0.111509
0.111618
0.11173
0.111844
0.111982
0.112152
0.112348
0.112573
0.112837
0.113149
0.113515
0.113948
0.114462
0.115075
0.11581
0.116696
0.117767
0.119055
0.120591
0.111207
0.111204
0.111216
0.111267
0.111315
0.111291
0.111248
0.111305
0.111408
0.111457
0.111486
0.11156
0.111675
0.111792
0.11191
0.112051
0.112221
0.112417
0.112637
0.11289
0.113182
0.113516
0.113899
0.114338
0.11484
0.115413
0.116063
0.116793
0.117581
0.118418
0.111239
0.111235
0.111245
0.111296
0.111346
0.111322
0.111281
0.111337
0.111441
0.111491
0.111522
0.111599
0.11172
0.111843
0.111965
0.112108
0.112278
0.11247
0.112683
0.112922
0.11319
0.113489
0.113818
0.114177
0.114563
0.114968
0.115375
0.115761
0.116055
0.116212
0.111269
0.111264
0.111274
0.111318
0.111368
0.111351
0.111312
0.111368
0.111478
0.111531
0.111558
0.111637
0.111758
0.111883
0.112008
0.112152
0.112321
0.112508
0.112712
0.112937
0.113181
0.113444
0.11372
0.114001
0.114274
0.114517
0.114694
0.114759
0.114599
0.11414
0.111299
0.111291
0.111295
0.111341
0.111396
0.111378
0.111335
0.111372
0.111484
0.111544
0.111576
0.111659
0.111788
0.111917
0.112044
0.112189
0.112355
0.112537
0.112732
0.112941
0.113164
0.113393
0.113619
0.11383
0.114001
0.1141
0.114076
0.113863
0.113316
0.112339
0.111331
0.111315
0.111313
0.111349
0.111406
0.111413
0.111383
0.111409
0.111509
0.111564
0.111599
0.111675
0.111804
0.111942
0.112073
0.112216
0.112379
0.112555
0.112742
0.112938
0.113141
0.113342
0.113528
0.113682
0.11377
0.113751
0.113565
0.113132
0.112287
0.110907
0.111373
0.111335
0.111322
0.111355
0.111418
0.111428
0.111359
0.1114
0.111489
0.111567
0.111618
0.11169
0.111808
0.111949
0.112089
0.112235
0.112394
0.112566
0.112747
0.112934
0.113122
0.113301
0.113456
0.113572
0.113604
0.1135
0.113202
0.112621
0.111591
0.109943
0.111439
0.111362
0.111328
0.111351
0.11141
0.11146
0.111469
0.111429
0.111449
0.111533
0.111594
0.111685
0.111822
0.111973
0.112117
0.112255
0.112409
0.112575
0.112749
0.112928
0.113106
0.113273
0.113413
0.1135
0.113495
0.113346
0.112988
0.112326
0.111226
0.109521
0.0901034
0.0890707
0.0883703
0.0878354
0.0872725
0.086657
0.0860253
0.0853951
0.0847632
0.0841233
0.0834703
0.0827986
0.0821003
0.0813649
0.0805789
0.0797259
0.0787858
0.0777334
0.0765367
0.0751539
0.0735293
0.0715869
0.0692171
0.066272
0.0624996
0.0576324
0.0509631
0.0418144
0.0306824
0.00267691
0.0906064
0.0898737
0.0892766
0.0887564
0.0882161
0.0876495
0.0870888
0.086545
0.0860095
0.0854731
0.0849305
0.0843769
0.0838057
0.0832081
0.0825739
0.081891
0.0811446
0.0803165
0.079383
0.0783132
0.077065
0.0755803
0.073774
0.071531
0.068651
0.064936
0.0597577
0.0529457
0.0432487
0.0228584
0.090925
0.0903871
0.0899368
0.0894847
0.0890209
0.0885633
0.0881242
0.0877006
0.0872833
0.0868666
0.0864484
0.0860265
0.0855971
0.0851548
0.0846933
0.0842052
0.0836813
0.0831101
0.0824761
0.0817589
0.0809295
0.0799468
0.0787491
0.0772522
0.0753046
0.0727661
0.0691164
0.0644028
0.0567026
0.0428662
0.0915854
0.0912349
0.0909547
0.0906043
0.090229
0.0898748
0.0895455
0.0892312
0.0889266
0.0886313
0.0883455
0.0880685
0.0877979
0.0875312
0.0872657
0.0869985
0.0867257
0.086442
0.0861402
0.0858092
0.0854323
0.0849838
0.084423
0.0836931
0.0826859
0.0813082
0.0791397
0.0763433
0.0708142
0.0624461
0.0925373
0.092338
0.0922017
0.0919494
0.0916652
0.0914185
0.0912087
0.0910192
0.0908461
0.0906922
0.0905594
0.090448
0.090358
0.0902902
0.0902458
0.0902264
0.0902331
0.090267
0.090328
0.0904137
0.0905183
0.0906299
0.0907265
0.0907752
0.0907049
0.0904586
0.0897095
0.088677
0.0853224
0.0814075
0.0937912
0.0937368
0.093747
0.0936078
0.0934317
0.0933069
0.0932295
0.0931779
0.0931493
0.09315
0.0931846
0.0932554
0.0933649
0.0935171
0.0937167
0.0939693
0.0942806
0.0946571
0.0951049
0.0956294
0.096234
0.0969188
0.0976776
0.0984968
0.0993358
0.100164
0.100737
0.101284
0.099957
0.0995363
0.0953747
0.0954666
0.0956271
0.0956096
0.0955507
0.0955561
0.095621
0.0957193
0.0958491
0.0960201
0.0962394
0.0965112
0.0968402
0.0972332
0.097698
0.0982436
0.09888
0.099618
0.100469
0.101445
0.102557
0.103814
0.105224
0.106786
0.108484
0.110303
0.112069
0.113977
0.114437
0.116611
0.097319
0.0975606
0.0978755
0.0979883
0.0980571
0.0982037
0.0984229
0.0986848
0.0989876
0.0993439
0.0997634
0.100252
0.100817
0.101466
0.102212
0.103065
0.104038
0.105148
0.106408
0.107835
0.109447
0.11126
0.113289
0.115546
0.118027
0.120727
0.123522
0.126546
0.128502
0.13244
0.0996493
0.100043
0.100515
0.100766
0.100972
0.10127
0.101653
0.10209
0.102577
0.103131
0.103762
0.104479
0.10529
0.106207
0.107241
0.108408
0.109722
0.111201
0.112863
0.114728
0.116816
0.11915
0.121748
0.124628
0.127792
0.131238
0.134871
0.138757
0.141892
0.146877
0.102376
0.102922
0.103549
0.103944
0.104297
0.104754
0.105309
0.105927
0.106607
0.107365
0.108215
0.109166
0.110228
0.111414
0.112736
0.114212
0.115857
0.117691
0.119734
0.122006
0.124531
0.127331
0.130427
0.133836
0.137561
0.141594
0.145856
0.150346
0.154325
0.159738
0.105486
0.106179
0.106954
0.107496
0.108002
0.108621
0.10935
0.110152
0.111026
0.111989
0.113057
0.11424
0.115548
0.116993
0.118592
0.12036
0.122315
0.124475
0.126861
0.129495
0.132399
0.135593
0.139097
0.142923
0.147069
0.151515
0.156184
0.161018
0.165475
0.170775
0.108926
0.109756
0.110664
0.111352
0.112011
0.112792
0.113691
0.114672
0.115734
0.116895
0.118171
0.119572
0.12111
0.122796
0.124646
0.126677
0.128906
0.13135
0.13403
0.136964
0.140174
0.143676
0.147483
0.151601
0.156018
0.160699
0.165557
0.170484
0.175047
0.179801
0.112595
0.113544
0.114566
0.11539
0.116198
0.117132
0.118189
0.119336
0.120571
0.121913
0.123377
0.124974
0.126713
0.128609
0.130676
0.132928
0.135383
0.138056
0.140966
0.144129
0.147561
0.151274
0.155274
0.159556
0.164099
0.168848
0.173706
0.17852
0.18291
0.186956
0.116334
0.117379
0.118487
0.119432
0.120377
0.121448
0.122643
0.123933
0.125317
0.126813
0.128436
0.130195
0.1321
0.134164
0.136401
0.138824
0.141448
0.144287
0.147356
0.150668
0.154234
0.15806
0.162143
0.16647
0.171005
0.175683
0.180393
0.184949
0.189027
0.192446
0.119932
0.121044
0.122207
0.123249
0.124311
0.125495
0.1268
0.128203
0.129705
0.13132
0.133063
0.134943
0.136969
0.139153
0.141507
0.144043
0.146773
0.14971
0.152864
0.156245
0.159858
0.163702
0.167769
0.172033
0.176451
0.180943
0.185387
0.189578
0.193224
0.195866
0.123136
0.124285
0.125471
0.126583
0.127734
0.128999
0.13038
0.131859
0.133439
0.135133
0.136953
0.138907
0.141005
0.143255
0.14567
0.148259
0.151033
0.154
0.157167
0.160541
0.16412
0.167899
0.17186
0.17597
0.180176
0.184386
0.188464
0.192179
0.195231
0.197064
0.12569
0.126846
0.128026
0.129176
0.13038
0.131691
0.13311
0.134625
0.136242
0.13797
0.139819
0.141799
0.143917
0.146182
0.148601
0.151185
0.15394
0.156873
0.159987
0.163285
0.16676
0.1704
0.174182
0.178063
0.181979
0.185827
0.189459
0.192633
0.195062
0.196187
0.127375
0.128511
0.129662
0.130814
0.132033
0.133351
0.134768
0.136279
0.137888
0.139606
0.14144
0.143397
0.145485
0.147711
0.150082
0.152605
0.155285
0.158125
0.161127
0.164288
0.167598
0.171041
0.174585
0.178184
0.181765
0.185213
0.188374
0.19099
0.192814
0.192996
0.128045
0.129139
0.130243
0.131364
0.132556
0.133841
0.135218
0.136684
0.138244
0.139908
0.141681
0.14357
0.145582
0.147722
0.149996
0.15241
0.154966
0.157666
0.160509
0.163487
0.166588
0.169791
0.173059
0.176339
0.17955
0.182568
0.185235
0.187246
0.18845
0.187359
0.127676
0.128708
0.129751
0.130811
0.131937
0.133151
0.134452
0.135836
0.137309
0.138879
0.140551
0.142331
0.144225
0.146238
0.148373
0.150634
0.153024
0.155541
0.15818
0.160934
0.163786
0.166709
0.169662
0.172584
0.175389
0.177939
0.18008
0.181448
0.182089
0.179687
0.126358
0.127309
0.128277
0.129247
0.130272
0.13138
0.13257
0.13384
0.135191
0.13663
0.138164
0.139798
0.141536
0.143381
0.145337
0.147406
0.149588
0.151881
0.154277
0.156765
0.159325
0.161928
0.164527
0.167055
0.169421
0.171475
0.173068
0.173751
0.173827
0.170071
0.124268
0.125119
0.125997
0.126851
0.127743
0.128713
0.129764
0.130887
0.132084
0.13336
0.134723
0.136176
0.137722
0.139364
0.141105
0.142945
0.144883
0.146914
0.149029
0.151215
0.153447
0.155693
0.157901
0.159998
0.161885
0.163394
0.164387
0.16429
0.1637
0.158238
0.121656
0.122385
0.123154
0.12387
0.124603
0.125411
0.126297
0.127248
0.128263
0.129349
0.130512
0.131755
0.133081
0.13449
0.135984
0.137563
0.139223
0.140958
0.142756
0.144602
0.146468
0.148315
0.150088
0.151703
0.153054
0.153945
0.154247
0.15322
0.151773
0.144479
0.118798
0.119381
0.120018
0.120575
0.12113
0.121757
0.122457
0.123215
0.124027
0.124899
0.125838
0.126847
0.127926
0.129075
0.130295
0.131584
0.132936
0.134343
0.135791
0.13726
0.138719
0.140124
0.141412
0.142488
0.143235
0.143424
0.142937
0.14085
0.138403
0.12908
0.115945
0.116359
0.116839
0.117222
0.117589
0.118019
0.118518
0.119065
0.119657
0.120299
0.120997
0.121752
0.122565
0.123433
0.124357
0.125332
0.12635
0.127401
0.128469
0.129527
0.130542
0.131461
0.132214
0.132692
0.132765
0.132166
0.130789
0.127512
0.123929
0.112187
0.113309
0.113529
0.113827
0.114024
0.114196
0.11442
0.114703
0.115025
0.115382
0.11578
0.116221
0.116708
0.117238
0.11781
0.11842
0.119062
0.119728
0.120402
0.121064
0.121685
0.122224
0.12262
0.122792
0.122618
0.12195
0.120476
0.118103
0.113479
0.108607
0.093926
0.111055
0.111059
0.111151
0.111157
0.111135
0.111151
0.111212
0.111305
0.111423
0.111569
0.111746
0.111956
0.112195
0.112461
0.112748
0.113047
0.113346
0.113628
0.113867
0.114028
0.114063
0.113903
0.113454
0.112573
0.111096
0.108657
0.105171
0.0990161
0.0926981
0.0744774
0.109281
0.109039
0.108894
0.108701
0.108472
0.108261
0.108085
0.107933
0.107799
0.107683
0.107587
0.107511
0.107452
0.107404
0.107361
0.107311
0.107239
0.107123
0.106933
0.106627
0.106149
0.105416
0.104322
0.102702
0.100368
0.0968917
0.0921999
0.0843407
0.0764851
0.054057
0.108099
0.107572
0.107217
0.106887
0.106479
0.106053
0.105643
0.10525
0.104867
0.104493
0.104128
0.103769
0.103414
0.103055
0.102683
0.102284
0.101839
0.101321
0.100695
0.0999105
0.098901
0.0975727
0.0958006
0.0933931
0.0901369
0.0855321
0.079521
0.0697172
0.0603392
0.0328658
0.107284
0.106339
0.105645
0.105089
0.104516
0.103893
0.103244
0.102592
0.10194
0.101287
0.100633
0.0999763
0.0993125
0.0986344
0.0979304
0.0971845
0.0963741
0.0954684
0.0944246
0.0931852
0.0916723
0.0897774
0.0873557
0.0841871
0.0800227
0.0742852
0.0669808
0.0549605
0.0446296
0.0110232
-0.0105182
-0.0330623
-0.0571571
-0.08146
-0.105097
-0.12777
-0.149138
-0.169004
-0.186573
-0.201576
-0.21365
-0.222344
-0.226966
-0.227469
-0.223766
-0.215224
-0.201597
-0.182842
-0.159106
-0.131614
-0.103302
-0.0774808
-0.0570593
-0.0439882
-0.0372718
-0.0356029
-0.0363417
-0.0349856
-0.0339058
-0.0367246
0.0296502
0.0104198
-0.0106409
-0.0314674
-0.0520022
-0.0722088
-0.0916807
-0.110169
-0.127347
-0.143002
-0.156461
-0.167279
-0.174108
-0.176514
-0.175763
-0.171392
-0.161936
-0.147378
-0.128714
-0.106872
-0.0836911
-0.0632181
-0.0483419
-0.0394883
-0.0350382
-0.0336244
-0.0294897
-0.022844
-0.0192363
-0.0225092
0.0405717
0.0225165
0.00267139
-0.0174533
-0.0375252
-0.0571006
-0.0762704
-0.09477
-0.112338
-0.128261
-0.141825
-0.152426
-0.159429
-0.1625
-0.162038
-0.157632
-0.148503
-0.134916
-0.117957
-0.0989551
-0.0794878
-0.0622661
-0.0498677
-0.0426097
-0.0391808
-0.0366656
-0.0323546
-0.027288
-0.026275
-0.0278756
0.0557124
0.0398145
0.0218339
0.00364941
-0.0143957
-0.0325712
-0.051094
-0.0693884
-0.0867737
-0.102598
-0.116257
-0.127164
-0.134768
-0.138666
-0.138784
-0.13496
-0.127029
-0.115405
-0.101106
-0.0854845
-0.0701264
-0.0571062
-0.0477962
-0.041869
-0.0378876
-0.0345245
-0.0325046
-0.0326724
-0.0370324
-0.0445066
0.0644823
0.0502588
0.0338294
0.0172328
0.000510982
-0.0167648
-0.0344952
-0.0520965
-0.0689504
-0.0845212
-0.0982436
-0.109502
-0.117701
-0.122369
-0.123293
-0.120419
-0.113794
-0.103845
-0.0915291
-0.0781768
-0.0653005
-0.0543967
-0.0462464
-0.0405397
-0.036636
-0.0341215
-0.033393
-0.03476
-0.0385302
-0.0452414
0.0716265
0.0589049
0.0439597
0.0287071
0.0131397
-0.00317141
-0.0200895
-0.0370745
-0.0535431
-0.068951
-0.082706
-0.0941622
-0.102704
-0.107844
-0.109332
-0.107136
-0.101416
-0.0926811
-0.0819033
-0.0703734
-0.0594338
-0.0501699
-0.0430598
-0.0379247
-0.0344404
-0.0324222
-0.0319086
-0.0329423
-0.0353531
-0.0389746
0.0768784
0.0654342
0.0518237
0.037824
0.0234045
0.008124
-0.00792059
-0.0242235
-0.0402133
-0.0553384
-0.0690013
-0.0805517
-0.089366
-0.094947
-0.0970161
-0.0955443
-0.0907564
-0.0832172
-0.0738762
-0.0639152
-0.054479
-0.0464077
-0.0400545
-0.0353367
-0.0320282
-0.0299426
-0.0289302
-0.0288026
-0.0290537
-0.0295134
0.0809407
0.0706168
0.0581958
0.0453108
0.0319071
0.0175444
0.00229552
-0.0133596
-0.0288671
-0.0436848
-0.057222
-0.0688286
-0.0778717
-0.083839
-0.0864308
-0.0856151
-0.0816506
-0.0751263
-0.0669513
-0.0582012
-0.0498755
-0.0426707
-0.0368677
-0.0324057
-0.0290818
-0.0266782
-0.0249454
-0.0235767
-0.0220159
-0.0200833
0.0841095
0.0747478
0.0633709
0.0514808
0.0389976
0.0254837
0.0109915
-0.00403175
-0.0190576
-0.0335579
-0.0469464
-0.0585708
-0.0677892
-0.0740761
-0.0771184
-0.0768807
-0.0736357
-0.0679759
-0.0607672
-0.0529968
-0.0455497
-0.0390144
-0.0336109
-0.0292743
-0.0258062
-0.0229674
-0.0204623
-0.0179557
-0.0149317
-0.0113301
0.0866373
0.078102
0.0676366
0.0566296
0.0449767
0.0322413
0.0184562
0.00403544
-0.0105205
-0.0246991
-0.037921
-0.0495338
-0.0588898
-0.0654531
-0.068899
-0.0691848
-0.0665835
-0.0616776
-0.0552896
-0.0483258
-0.0415739
-0.0355378
-0.0303924
-0.0260671
-0.0223667
-0.0190447
-0.0157989
-0.0123194
-0.00817618
-0.00347397
0.0886956
0.0808692
0.0711959
0.0609706
0.050065
0.0380386
0.0249053
0.0110486
-0.00305839
-0.0169211
-0.0299694
-0.0415531
-0.0510203
-0.0578255
-0.0616317
-0.0623855
-0.0603517
-0.0560952
-0.0503937
-0.0440818
-0.0378688
-0.0321951
-0.0272027
-0.0228158
-0.0188458
-0.015052
-0.011154
-0.00690203
-0.00196891
0.00338952
0.0904113
0.083194
0.0742069
0.0646711
0.0544357
0.0430527
0.0305172
0.0171849
0.00350204
-0.0100562
-0.0229307
-0.0344748
-0.044033
-0.0510505
-0.0551776
-0.056348
-0.0548135
-0.0511164
-0.0459909
-0.0402102
-0.0344191
-0.0290086
-0.0240955
-0.0196019
-0.0153529
-0.011128
-0.00668749
-0.00185796
0.00358536
0.00926532
0.0918766
0.0851835
0.0767906
0.0678624
0.0582269
0.0474259
0.0354362
0.0225879
0.00930153
-0.00396789
-0.0166734
-0.0281729
-0.0378077
-0.045014
-0.0494288
-0.0509714
-0.0498769
-0.0466624
-0.0420213
-0.0366726
-0.0312091
-0.0259806
-0.0210879
-0.0164639
-0.0119451
-0.00734766
-0.00248239
0.00274813
0.00847972
0.0142448
0.0931598
0.0869168
0.0790405
0.0706478
0.0615484
0.0512724
0.039779
0.0273743
0.0144548
0.00145527
-0.0110904
-0.0225449
-0.0322471
-0.0396238
-0.0442983
-0.0461736
-0.0454665
-0.0426675
-0.0384323
-0.0334331
-0.0282202
-0.023113
-0.0182048
-0.0134371
-0.00867296
-0.00376747
0.00141138
0.00689328
0.0127417
0.0184305
0.0943126
0.0884608
0.0810291
0.0731078
0.0644874
0.0546844
0.0436406
0.0316404
0.0190574
0.00630647
-0.0060915
-0.0175046
-0.0272691
-0.0348023
-0.0397128
-0.0418862
-0.0415198
-0.0390783
-0.0351822
-0.0304638
-0.0254388
-0.0204047
-0.0154542
-0.0105438
-0.005567
-0.000420478
0.00497418
0.0105819
0.0164244
0.0219303
0.095372
0.0898603
0.0828147
0.0753085
0.0671152
0.0577373
0.0470998
0.0354665
0.0231893
0.0106641
-0.00160103
-0.0129795
-0.022805
-0.0304847
-0.0356115
-0.0380529
-0.037986
-0.0358508
-0.0322372
-0.0277418
-0.0228527
-0.0178542
-0.012844
-0.00779853
-0.00264339
0.00268232
0.00820715
0.0138465
0.0195885
0.0248444
0.0963657
0.0911522
0.0844435
0.0773032
0.0694901
0.0604935
0.050222
0.0389199
0.026918
0.0145945
0.00244517
-0.00890835
-0.0187969
-0.0266167
-0.0319437
-0.0346267
-0.0348229
-0.0329507
-0.029569
-0.0252469
-0.0204505
-0.0154582
-0.0103783
-0.00520989
8.87702e-05
0.00553722
0.0111198
0.0167119
0.0222718
0.0272679
0.0973142
0.0923645
0.0859517
0.0791343
0.0716593
0.0630041
0.0530619
0.0420572
0.0303007
0.0181541
0.00610184
-0.00523883
-0.0151953
-0.0231518
-0.0286663
-0.0315679
-0.0319952
-0.0303469
-0.0271533
-0.0229613
-0.0182214
-0.0132123
-0.00805766
-0.00278058
0.00262838
0.00815003
0.0137316
0.0192224
0.0245851
0.0292811
0.0982317
0.0935184
0.087368
0.0808368
0.073662
0.0653121
0.0556657
0.0449268
0.0333866
0.0213914
0.00941605
-0.00192608
-0.0119582
-0.020051
-0.0257427
-0.0288424
-0.0294724
-0.0280132
-0.0249696
-0.0208694
-0.0161545
-0.0111109
-0.00588049
-0.000509529
0.00497991
0.0105329
0.0160677
0.0214193
0.0265569
0.0309412
0.0991278
0.0946301
0.0887156
0.0824389
0.0755306
0.0674534
0.0580722
0.0475698
0.0362175
0.0243482
0.0124285
0.00106877
-0.00904919
-0.0172809
-0.0231425
-0.0264222
-0.0272291
-0.0259276
-0.0229999
-0.0189569
-0.0142394
-0.00914649
-0.00384223
0.00160694
0.00715009
0.0126999
0.0181531
0.0233373
0.0282272
0.032306
0.100008
0.0957109
0.0900125
0.083964
0.077292
0.069458
0.0603145
0.0500217
0.0388304
0.0270608
0.0151741
0.00377894
-0.00643676
-0.0148118
-0.0208383
-0.0242821
-0.0252431
-0.0240719
-0.0212286
-0.0172122
-0.0124688
-0.00731335
-0.00193537
0.00357872
0.00915082
0.0146675
0.0200113
0.0250065
0.0296255
0.0334275
0.100874
0.0967687
0.0912732
0.0854311
0.0789684
0.0713513
0.0624208
0.0523127
0.0412567
0.0295617
0.0176846
0.00623311
-0.00409577
-0.0126204
-0.0188073
-0.0223994
-0.0234878
-0.0224258
-0.0196323
-0.0156099
-0.0108221
-0.0056024
-0.000155403
0.00541587
0.0109974
0.0164558
0.0216667
0.0264591
0.0308351
0.034363
0.101726
0.097808
0.0925087
0.0868556
0.0805781
0.0731545
0.0644159
0.0544698
0.0435234
0.0318773
0.0199876
0.00845939
-0.00200098
-0.0106875
-0.0170349
-0.0207606
-0.0219732
-0.0210063
-0.0182411
-0.0141824
-0.00931827
-0.0040242
0.00147816
0.0071016
0.0126835
0.0180706
0.0231404
0.0277191
0.0318287
0.0350994
0.10256
0.0988309
0.0937274
0.0882502
0.0821364
0.0748855
0.0663198
0.0565164
0.0456568
0.0340319
0.0221044
0.0104794
-0.000126557
-0.00898193
-0.0154875
-0.0193195
-0.0205966
-0.0196872
-0.0169163
-0.0128101
-0.00785868
-0.00246168
0.00307819
0.00871506
0.0142661
0.019556
0.0244713
0.0288725
0.0327737
0.0357965
0.103373
0.0998384
0.0949358
0.0896245
0.0836554
0.0765601
0.0681517
0.0584722
0.047677
0.0360459
0.0240481
0.0122901
0.00150826
-0.00754293
-0.0142236
-0.0182095
-0.0196302
-0.0187526
-0.0159296
-0.0117249
-0.00669699
-0.00120449
0.00446865
0.0101393
0.0156535
0.0208446
0.0255597
0.0296779
0.0333788
0.0361934
0.104154
0.100828
0.0961404
0.0909882
0.0851431
0.0781864
0.0699255
0.060362
0.0496263
0.0379811
0.0259077
0.0140106
0.0030478
-0.00618258
-0.0129775
-0.0169106
-0.0184248
-0.0176298
-0.0147481
-0.0104321
-0.00532856
0.000222459
0.00598786
0.0116582
0.0171094
0.022224
0.0268751
0.0309629
0.0342964
0.0367393
0.104894
0.101788
0.0973421
0.0923541
0.0866184
0.0797694
0.0716193
0.0621145
0.0513682
0.0396688
0.0274631
0.0153524
0.00412958
-0.00537591
-0.012462
-0.0166403
-0.0180883
-0.0172088
-0.0142083
-0.00974953
-0.00445975
0.0012543
0.00709133
0.0127526
0.0180974
0.0229932
0.0273099
0.0311253
0.0344619
0.0368364
0.10559
0.102707
0.0985286
0.0937271
0.0881525
0.0814891
0.0735031
0.0640981
0.0533787
0.0416546
0.0293441
0.0170762
0.00568194
-0.00398878
-0.0110856
-0.0153526
-0.0170623
-0.0162289
-0.013166
-0.00858139
-0.00312261
0.00273165
0.00865819
0.0143858
0.0197678
0.0247062
0.0289996
0.0325093
0.0352791
0.037037
0.106224
0.103595
0.0996059
0.0948475
0.0892951
0.0826848
0.0747226
0.0653112
0.0545202
0.0426224
0.0300664
0.0175109
0.0058356
-0.00413491
-0.0113366
-0.0154971
-0.0171038
-0.0161571
-0.0129345
-0.00818719
-0.00262198
0.00326689
0.0091527
0.014775
0.0199621
0.0246534
0.0288394
0.0323431
0.0350597
0.0366478
0.106877
0.104743
0.101268
0.0968449
0.091542
0.0851542
0.077418
0.0681672
0.0574271
0.0454478
0.0326522
0.0197242
0.00759954
-0.00277362
-0.0103866
-0.0148919
-0.0165975
-0.015516
-0.0119802
-0.00686783
-0.000949305
0.00523621
0.0113177
0.0169907
0.0221717
0.0267073
0.0305437
0.0335256
0.0354691
0.035842
0.0113586
0.014437
0.00303447
0.0105324
0.0138631
0.0207931
0.0266185
0.0323175
0.0371543
0.0415603
0.0453137
0.0485783
0.051361
0.0537287
0.0557166
0.0573648
0.0587032
0.0597602
0.0605587
0.0611213
0.0614784
0.0616283
0.0616575
0.0614781
0.0612791
0.0608904
0.0606282
0.0604339
0.0604694
0.0586576
0.0104468
0.0179585
0.00640198
0.00867702
0.013344
0.0195765
0.0255472
0.031134
0.0360728
0.0405159
0.0443856
0.0477536
0.0506722
0.0531887
0.0553408
0.0571631
0.0586838
0.0599252
0.0609098
0.0616492
0.0621731
0.0624703
0.0625987
0.0625112
0.0623137
0.0619186
0.0614833
0.0608743
0.0603594
0.0593456
0.00786382
0.0230726
0.0113854
0.00531855
0.0110673
0.0174133
0.0236235
0.0292335
0.0343324
0.0389273
0.0429894
0.0465532
0.0496835
0.0524226
0.054806
0.0568668
0.0586322
0.0601223
0.0613559
0.0623448
0.0631064
0.0636432
0.063975
0.0640963
0.0640347
0.0637755
0.0633701
0.0627669
0.0621486
0.0614517
0.00402323
0.0226272
0.0136393
0.00151462
0.00719927
0.0148262
0.0218252
0.0278927
0.0333097
0.0381747
0.04247
0.0462397
0.0495627
0.0524878
0.0550519
0.0572918
0.0592379
0.0609121
0.0623325
0.0635127
0.0644654
0.0651984
0.0657217
0.0660391
0.0661616
0.0660882
0.0658403
0.0654045
0.0648208
0.0641161
-0.00240329
0.0148135
0.01139
-0.00314676
0.000903003
0.0104692
0.0192646
0.0261879
0.0321088
0.0373755
0.0419702
0.0459716
0.0494939
0.052601
0.0553349
0.0577382
0.0598478
0.0616903
0.0632854
0.0646486
0.0657918
0.0667235
0.0674505
0.0679762
0.0683055
0.0684376
0.0683779
0.0681276
0.067687
0.0671183
-0.0119306
0.00144214
0.00211376
-0.0100682
-0.0078126
0.00335902
0.0147181
0.023125
0.0299611
0.035882
0.0409519
0.0452934
0.0490814
0.0524186
0.0553599
0.0579556
0.0602515
0.0622814
0.0640697
0.0656346
0.0669897
0.0681442
0.069104
0.0698717
0.0704487
0.0708343
0.0710271
0.0710305
0.0708358
0.0705102
-0.0239366
-0.0158539
-0.0157942
-0.0220697
-0.0201282
-0.00734164
0.00732026
0.0182874
0.0266519
0.0335822
0.0394048
0.0442748
0.048438
0.0520698
0.0552593
0.0580717
0.0605653
0.0627853
0.0647645
0.0665268
0.0680903
0.0694672
0.0706651
0.0716881
0.0725369
0.0732108
0.0737054
0.0740217
0.0741442
0.0741377
-0.0369653
-0.0340582
-0.0360053
-0.0389429
-0.0362919
-0.021872
-0.0038819
0.0110913
0.0218714
0.0303178
0.0372443
0.0429004
0.0475974
0.0516095
0.055093
0.0581437
0.0608389
0.0632402
0.0653927
0.0673299
0.0690767
0.0706513
0.0720657
0.0733273
0.074439
0.0754015
0.0762105
0.0768667
0.0773507
0.0777234
-0.0461978
-0.0480869
-0.0531805
-0.0577075
-0.0550961
-0.0395478
-0.019017
0.00039827
0.0149511
0.0257575
0.0342711
0.0410599
0.0465174
0.0510329
0.0548707
0.0581862
0.0610884
0.0636611
0.0659662
0.0680493
0.0699449
0.0716789
0.0732698
0.0747303
0.0760681
0.0772873
0.0783865
0.0793684
0.080213
0.0809775
-0.0471404
-0.0540727
-0.0632186
-0.0714643
-0.0712162
-0.0569544
-0.0351482
-0.0132171
0.00550254
0.0194728
0.0301502
0.0385282
0.0450943
0.0503305
0.0546369
0.0582688
0.061392
0.0641259
0.0665572
0.0687487
0.0707473
0.0725883
0.0742985
0.0758972
0.0773983
0.0788109
0.0801387
0.0813881
0.0825416
0.0836541
-0.039022
-0.0507305
-0.0634723
-0.075541
-0.0786308
-0.0687988
-0.0480119
-0.025416
-0.00435819
0.0126472
0.0254976
0.0355584
0.0434404
0.0495991
0.0545077
0.0585257
0.0618934
0.0647793
0.0673045
0.0695561
0.071598
0.0734777
0.0752313
0.0768863
0.078463
0.0799768
0.0814369
0.0828552
0.0842191
0.0855821
-0.0236264
-0.0386591
-0.0542691
-0.0690786
-0.0747347
-0.0700033
-0.0534311
-0.0321109
-0.0114477
0.00702392
0.0219304
0.0333691
0.0423684
0.0494012
0.0549148
0.0593145
0.0629039
0.0659009
0.0684627
0.0707039
0.0727078
0.0745364
0.0762365
0.0778435
0.0793847