/*--------------------------------*- C++ -*----------------------------------*\
  =========                 |
  \\      /  F ield         | OpenFOAM: The Open Source CFD Toolbox
   \\    /   O peration     | Website:  https://openfoam.org
    \\  /    A nd           | Version:  11
     \\/     M anipulation  |
\*---------------------------------------------------------------------------*/
FoamFile
{
    format      ascii;
    class       surfaceScalarField;
    location    "0.4";
    object      phi;
}
// * * * * * * * * * * * * * * * * * * * * * * * * * * * * * * * * * * * * * //

dimensions      [0 3 -1 0 0 0 0];

internalField   nonuniform List<scalar> 
24840
(
1.92421e-05
6.03788e-09
1.92338e-05
8.25475e-09
1.92222e-05
1.16782e-08
1.92133e-05
8.90497e-09
1.92238e-05
-1.05527e-08
1.92467e-05
-2.28439e-08
1.92597e-05
-1.30228e-08
1.92354e-05
2.42893e-08
1.91901e-05
4.52438e-08
1.91393e-05
5.086e-08
1.90952e-05
4.40775e-08
1.90724e-05
2.28321e-08
1.90741e-05
-1.76769e-09
1.90971e-05
-2.29636e-08
1.91349e-05
-3.78012e-08
1.91827e-05
-4.77839e-08
1.92374e-05
-5.46937e-08
1.9297e-05
-5.96589e-08
1.93609e-05
-6.38103e-08
1.94305e-05
-6.96218e-08
1.95087e-05
-7.82092e-08
1.95981e-05
-8.9383e-08
1.97016e-05
-1.03482e-07
1.98225e-05
-1.20931e-07
1.99646e-05
-1.42101e-07
2.01317e-05
-1.67109e-07
2.03284e-05
-1.96668e-07
2.05558e-05
-2.27434e-07
2.08275e-05
-2.71676e-07
-2.61203e-07
2.10887e-05
1.92516e-05
2.5327e-09
1.92551e-05
4.77972e-09
1.92584e-05
8.3838e-09
1.92573e-05
1.00257e-08
1.92487e-05
-1.97343e-09
1.92446e-05
-1.87829e-08
1.9253e-05
-2.14039e-08
1.92787e-05
-1.33422e-09
1.93096e-05
1.42527e-08
1.93404e-05
2.00922e-08
1.93645e-05
2.00202e-08
1.93803e-05
7.01353e-09
1.93938e-05
-1.52901e-08
1.94087e-05
-3.78971e-08
1.94266e-05
-5.563e-08
1.94478e-05
-6.89815e-08
1.94731e-05
-8.00694e-08
1.95054e-05
-9.19089e-08
1.95483e-05
-1.06702e-07
1.96025e-05
-1.23836e-07
1.96675e-05
-1.43237e-07
1.97447e-05
-1.66553e-07
1.98363e-05
-1.95088e-07
1.99452e-05
-2.2978e-07
2.00745e-05
-2.71469e-07
2.02282e-05
-3.20768e-07
2.04103e-05
-3.78808e-07
2.06251e-05
-4.42226e-07
2.0879e-05
-5.25557e-07
-5.5412e-07
2.11719e-05
1.92499e-05
7.4301e-10
1.92535e-05
1.23454e-09
1.92588e-05
3.09053e-09
1.9267e-05
1.79284e-09
1.92706e-05
-5.57198e-09
1.92606e-05
-8.79665e-09
1.92455e-05
-6.33929e-09
1.92472e-05
-3.01009e-09
1.92648e-05
-3.32211e-09
1.92922e-05
-7.35818e-09
1.93249e-05
-1.26268e-08
1.93541e-05
-2.21535e-08
1.93772e-05
-3.84382e-08
1.93969e-05
-5.76408e-08
1.94172e-05
-7.58778e-08
1.94408e-05
-9.26338e-08
1.94699e-05
-1.09132e-07
1.95052e-05
-1.27231e-07
1.95472e-05
-1.48682e-07
1.95974e-05
-1.7404e-07
1.9658e-05
-2.03776e-07
1.97307e-05
-2.3932e-07
1.98179e-05
-2.82292e-07
1.99223e-05
-3.34122e-07
2.0047e-05
-3.96214e-07
2.0196e-05
-4.69723e-07
2.03736e-05
-5.56403e-07
2.05846e-05
-6.53271e-07
2.08348e-05
-7.75748e-07
-8.50517e-07
2.11312e-05
1.92491e-05
-2.51024e-10
1.92512e-05
-8.67307e-10
1.92553e-05
-9.82244e-10
1.92598e-05
-2.7092e-09
1.92626e-05
-8.35516e-09
1.92672e-05
-1.34533e-08
1.92735e-05
-1.26033e-08
1.92817e-05
-1.12471e-08
1.92918e-05
-1.34107e-08
1.93042e-05
-1.97207e-08
1.93209e-05
-2.93665e-08
1.93415e-05
-4.27401e-08
1.93632e-05
-6.00912e-08
1.93846e-05
-7.90976e-08
1.94067e-05
-9.79887e-08
1.94312e-05
-1.17079e-07
1.94597e-05
-1.37638e-07
1.94935e-05
-1.61084e-07
1.95336e-05
-1.8878e-07
1.95813e-05
-2.21692e-07
1.96384e-05
-2.60834e-07
1.97068e-05
-3.078e-07
1.9789e-05
-3.64465e-07
1.98876e-05
-4.32715e-07
2.00059e-05
-5.14537e-07
2.0148e-05
-6.11751e-07
2.03184e-05
-7.26828e-07
2.05229e-05
-8.57756e-07
2.07668e-05
-1.01964e-06
-1.14551e-06
2.10617e-05
1.92489e-05
-1.04058e-09
1.92512e-05
-3.13344e-09
1.9255e-05
-4.84226e-09
1.92598e-05
-7.45373e-09
1.92626e-05
-1.1193e-08
1.9264e-05
-1.48136e-08
1.92704e-05
-1.89689e-08
1.92818e-05
-2.26732e-08
1.92945e-05
-2.61616e-08
1.93085e-05
-3.36954e-08
1.93243e-05
-4.51674e-08
1.93415e-05
-5.99762e-08
1.93592e-05
-7.7762e-08
1.93774e-05
-9.73036e-08
1.93972e-05
-1.17806e-07
1.94199e-05
-1.3971e-07
1.94464e-05
-1.64165e-07
1.94778e-05
-1.9246e-07
1.95149e-05
-2.25909e-07
1.9559e-05
-2.6579e-07
1.96117e-05
-3.13522e-07
1.96748e-05
-3.7094e-07
1.97506e-05
-4.40232e-07
1.98417e-05
-5.23792e-07
1.99514e-05
-6.24249e-07
2.00839e-05
-7.44221e-07
2.02441e-05
-8.87035e-07
2.04384e-05
-1.05209e-06
2.06726e-05
-1.25387e-06
-1.43392e-06
2.0961e-05
1.92487e-05
-1.62289e-09
1.92504e-05
-4.84106e-09
1.92533e-05
-7.72887e-09
1.92565e-05
-1.06275e-08
1.92602e-05
-1.49567e-08
1.92664e-05
-2.0962e-08
1.92734e-05
-2.5944e-08
1.92812e-05
-3.05031e-08
1.92918e-05
-3.67931e-08
1.93044e-05
-4.62989e-08
1.93185e-05
-5.91934e-08
1.93337e-05
-7.51927e-08
1.93497e-05
-9.37435e-08
1.93665e-05
-1.14184e-07
1.93851e-05
-1.36323e-07
1.94061e-05
-1.60737e-07
1.94304e-05
-1.88528e-07
1.9459e-05
-2.20979e-07
1.94925e-05
-2.59464e-07
1.95322e-05
-3.05477e-07
1.95794e-05
-3.60745e-07
1.96359e-05
-4.27395e-07
1.97036e-05
-5.07972e-07
1.97852e-05
-6.05396e-07
1.9884e-05
-7.22981e-07
2.0004e-05
-8.64249e-07
2.01505e-05
-1.03356e-06
2.03306e-05
-1.23216e-06
2.05507e-05
-1.47399e-06
-1.71137e-06
2.08282e-05
1.92486e-05
-2.11659e-09
1.92501e-05
-6.26829e-09
1.92525e-05
-1.02065e-08
1.92561e-05
-1.42139e-08
1.92601e-05
-1.89274e-08
1.92637e-05
-2.45718e-08
1.92692e-05
-3.14867e-08
1.92775e-05
-3.87572e-08
1.92875e-05
-4.68331e-08
1.92992e-05
-5.79352e-08
1.93121e-05
-7.20929e-08
1.93258e-05
-8.89648e-08
1.93402e-05
-1.08146e-07
1.93555e-05
-1.29396e-07
1.93721e-05
-1.52934e-07
1.93908e-05
-1.79463e-07
1.94123e-05
-2.10057e-07
1.94373e-05
-2.45996e-07
1.94666e-05
-2.88727e-07
1.9501e-05
-3.39912e-07
1.95418e-05
-4.01534e-07
1.95904e-05
-4.76005e-07
1.96487e-05
-5.66239e-07
1.9719e-05
-6.75682e-07
1.98044e-05
-8.08372e-07
1.9909e-05
-9.68836e-07
2.0038e-05
-1.16264e-06
2.01992e-05
-1.39328e-06
2.03996e-05
-1.67441e-06
-1.97179e-06
2.066e-05
1.92486e-05
-2.53948e-09
1.92498e-05
-7.50804e-09
1.92519e-05
-1.2289e-08
1.92547e-05
-1.7049e-08
1.92582e-05
-2.24123e-08
1.92627e-05
-2.90501e-08
1.92677e-05
-3.64628e-08
1.92739e-05
-4.49843e-08
1.92827e-05
-5.56649e-08
1.92932e-05
-6.84495e-08
1.93047e-05
-8.35643e-08
1.93168e-05
-1.01095e-07
1.93295e-05
-1.20836e-07
1.93429e-05
-1.42813e-07
1.93575e-05
-1.6751e-07
1.93738e-05
-1.95718e-07
1.93922e-05
-2.28494e-07
1.94133e-05
-2.67142e-07
1.94378e-05
-3.13186e-07
1.94663e-05
-3.68429e-07
1.94998e-05
-4.35047e-07
1.95395e-05
-5.15706e-07
1.9587e-05
-6.13662e-07
1.96441e-05
-7.32864e-07
1.97138e-05
-8.78072e-07
1.97999e-05
-1.05488e-06
1.99074e-05
-1.27017e-06
2.00442e-05
-1.53009e-06
2.02182e-05
-1.84836e-06
-2.20678e-06
2.04532e-05
1.92485e-05
-2.90794e-09
1.92496e-05
-8.57482e-09
1.92513e-05
-1.40623e-08
1.92538e-05
-1.94774e-08
1.92567e-05
-2.53644e-08
1.92601e-05
-3.24289e-08
1.92647e-05
-4.10155e-08
1.92708e-05
-5.11461e-08
1.92784e-05
-6.32307e-08
1.92873e-05
-7.73484e-08
1.92971e-05
-9.33949e-08
1.93075e-05
-1.11532e-07
1.93185e-05
-1.31748e-07
1.93299e-05
-1.54285e-07
1.93422e-05
-1.79802e-07
1.93557e-05
-2.09173e-07
1.93707e-05
-2.43467e-07
1.93875e-05
-2.84011e-07
1.94067e-05
-3.32383e-07
1.94288e-05
-3.90473e-07
1.94543e-05
-4.60596e-07
1.94842e-05
-5.45611e-07
1.95196e-05
-6.49063e-07
1.95621e-05
-7.75345e-07
1.96139e-05
-9.29887e-07
1.96784e-05
-1.11933e-06
1.97601e-05
-1.35195e-06
1.98668e-05
-1.63679e-06
2.00064e-05
-1.9879e-06
-2.40552e-06
2.02051e-05
1.92485e-05
-3.22533e-09
1.92494e-05
-9.48822e-09
1.92509e-05
-1.55635e-08
1.92529e-05
-2.15446e-08
1.92555e-05
-2.79095e-08
1.92586e-05
-3.55125e-08
1.92623e-05
-4.47238e-08
1.92671e-05
-5.59947e-08
1.92735e-05
-6.96245e-08
1.92811e-05
-8.49171e-08
1.92894e-05
-1.01709e-07
1.92981e-05
-1.20273e-07
1.93072e-05
-1.40772e-07
1.93165e-05
-1.63615e-07
1.93263e-05
-1.89582e-07
1.93367e-05
-2.19601e-07
1.9348e-05
-2.54754e-07
1.93603e-05
-2.96364e-07
1.9374e-05
-3.46027e-07
1.93892e-05
-4.05676e-07
1.94063e-05
-4.77694e-07
1.94257e-05
-5.65062e-07
1.94482e-05
-6.71524e-07
1.94747e-05
-8.01808e-07
1.95067e-05
-9.61904e-07
1.95467e-05
-1.15938e-06
1.95986e-05
-1.40384e-06
1.96691e-05
-1.70728e-06
1.97655e-05
-2.08429e-06
-2.55503e-06
1.9915e-05
1.92484e-05
-3.49188e-09
1.92492e-05
-1.02516e-08
1.92504e-05
-1.68021e-08
1.92521e-05
-2.32448e-08
1.92542e-05
-2.99866e-08
1.92566e-05
-3.79452e-08
1.92597e-05
-4.78105e-08
1.92638e-05
-6.00641e-08
1.92689e-05
-7.47796e-08
1.9275e-05
-9.10139e-08
1.92817e-05
-1.08394e-07
1.92887e-05
-1.27244e-07
1.92958e-05
-1.47853e-07
1.93029e-05
-1.70733e-07
1.931e-05
-1.96751e-07
1.93173e-05
-2.26886e-07
1.93248e-05
-2.6222e-07
1.93325e-05
-3.04049e-07
1.93404e-05
-3.53945e-07
1.93485e-05
-4.13823e-07
1.93569e-05
-4.86063e-07
1.93655e-05
-5.73665e-07
1.93744e-05
-6.80452e-07
1.9384e-05
-8.11333e-07
1.93947e-05
-9.72667e-07
1.94081e-05
-1.17271e-06
1.94264e-05
-1.42219e-06
1.94549e-05
-1.73575e-06
1.94992e-05
-2.12857e-06
-2.64082e-06
1.95849e-05
1.92483e-05
-3.70086e-09
1.92489e-05
-1.08577e-08
1.92499e-05
-1.77924e-08
1.92513e-05
-2.45909e-08
1.92529e-05
-3.16138e-08
1.92548e-05
-3.98498e-08
1.92572e-05
-5.02225e-08
1.92604e-05
-6.32429e-08
1.92644e-05
-7.8797e-08
1.92692e-05
-9.57418e-08
1.92743e-05
-1.13504e-07
1.92794e-05
-1.3241e-07
1.92845e-05
-1.52891e-07
1.92893e-05
-1.75535e-07
1.92938e-05
-2.01233e-07
1.92978e-05
-2.3098e-07
1.93015e-05
-2.65839e-07
1.93045e-05
-3.07056e-07
1.93067e-05
-3.56138e-07
1.93078e-05
-4.14919e-07
1.93074e-05
-4.85689e-07
1.93051e-05
-5.71356e-07
1.93003e-05
-6.75673e-07
1.92925e-05
-8.03525e-07
1.92812e-05
-9.61369e-07
1.92663e-05
-1.1578e-06
1.92483e-05
-1.40421e-06
1.92298e-05
-1.71728e-06
1.92139e-05
-2.11259e-06
-2.64813e-06
1.92212e-05
1.92483e-05
-3.86059e-09
1.92488e-05
-1.13253e-08
1.92495e-05
-1.85415e-08
1.92505e-05
-2.55831e-08
1.92517e-05
-3.28069e-08
1.92531e-05
-4.12588e-08
1.92549e-05
-5.19944e-08
1.92572e-05
-6.55495e-08
1.92601e-05
-8.16807e-08
1.92634e-05
-9.90883e-08
1.92669e-05
-1.17041e-07
1.92704e-05
-1.35816e-07
1.92734e-05
-1.55934e-07
1.92759e-05
-1.78046e-07
1.92777e-05
-2.03044e-07
1.92787e-05
-2.31913e-07
1.92785e-05
-2.65674e-07
1.92769e-05
-3.05493e-07
1.92735e-05
-3.52761e-07
1.92678e-05
-4.0917e-07
1.92589e-05
-4.76829e-07
1.9246e-05
-5.58432e-07
1.92278e-05
-6.57485e-07
1.92029e-05
-7.78615e-07
1.91696e-05
-9.2804e-07
1.9126e-05
-1.11422e-06
1.90704e-05
-1.34857e-06
1.90018e-05
-1.64875e-06
1.89194e-05
-2.03021e-06
-2.5641e-06
1.88354e-05
1.92482e-05
-3.96992e-09
1.92486e-05
-1.16426e-08
1.92491e-05
-1.90638e-08
1.92498e-05
-2.62664e-08
1.92505e-05
-3.35838e-08
1.92514e-05
-4.2147e-08
1.92526e-05
-5.31488e-08
1.92541e-05
-6.7044e-08
1.92559e-05
-8.34823e-08
1.92579e-05
-1.01112e-07
1.92599e-05
-1.19052e-07
1.92616e-05
-1.37523e-07
1.92627e-05
-1.5705e-07
1.9263e-05
-1.78325e-07
1.92622e-05
-2.02254e-07
1.92601e-05
-2.29791e-07
1.92563e-05
-2.61886e-07
1.92504e-05
-2.99587e-07
1.92418e-05
-3.44129e-07
1.92296e-05
-3.96994e-07
1.92128e-05
-4.60022e-07
1.91899e-05
-5.35565e-07
1.91592e-05
-6.26707e-07
1.91181e-05
-7.37553e-07
1.90637e-05
-8.73699e-07
1.89924e-05
-1.04291e-06
1.88997e-05
-1.25581e-06
1.87806e-05
-1.52964e-06
1.86292e-05
-1.87881e-06
-2.38043e-06
1.84455e-05
1.92482e-05
-4.03251e-09
1.92484e-05
-1.18271e-08
1.92487e-05
-1.93621e-08
1.92491e-05
-2.66383e-08
1.92494e-05
-3.39716e-08
1.92498e-05
-4.25406e-08
1.92504e-05
-5.36796e-08
1.92511e-05
-6.77883e-08
1.92519e-05
-8.43196e-08
1.92527e-05
-1.01887e-07
1.92533e-05
-1.19602e-07
1.92533e-05
-1.37599e-07
1.92526e-05
-1.56316e-07
1.92508e-05
-1.76471e-07
1.92475e-05
-1.98996e-07
1.92425e-05
-2.24799e-07
1.92353e-05
-2.54726e-07
1.92254e-05
-2.89683e-07
1.9212e-05
-3.30705e-07
1.9194e-05
-3.79008e-07
1.91701e-05
-4.36078e-07
1.91383e-05
-5.03808e-07
1.90963e-05
-5.84686e-07
1.90408e-05
-6.82035e-07
1.89675e-05
-8.00445e-07
1.8871e-05
-9.46376e-07
1.8744e-05
-1.12878e-06
1.85772e-05
-1.36287e-06
1.83591e-05
-1.66073e-06
-2.09637e-06
1.80751e-05
1.92482e-05
-4.05092e-09
1.92482e-05
-1.18842e-08
1.92483e-05
-1.94513e-08
1.92484e-05
-2.67271e-08
1.92484e-05
-3.39935e-08
1.92483e-05
-4.2466e-08
1.92483e-05
-5.36142e-08
1.92484e-05
-6.78721e-08
1.92483e-05
-8.42738e-08
1.92479e-05
-1.01452e-07
1.92471e-05
-1.18786e-07
1.92456e-05
-1.36151e-07
1.92431e-05
-1.53841e-07
1.92393e-05
-1.7262e-07
1.92337e-05
-1.93455e-07
1.92261e-05
-2.17184e-07
1.92159e-05
-2.44527e-07
1.92025e-05
-2.76226e-07
1.91849e-05
-3.13086e-07
1.91619e-05
-3.56007e-07
1.91318e-05
-4.06053e-07
1.90926e-05
-4.6456e-07
1.90412e-05
-5.33265e-07
1.89736e-05
-6.14485e-07
1.88846e-05
-7.11445e-07
1.8767e-05
-8.28747e-07
1.8611e-05
-9.72809e-07
1.84033e-05
-1.15516e-06
1.81267e-05
-1.38418e-06
-1.72111e-06
1.77515e-05
1.92481e-05
-4.02866e-09
1.9248e-05
-1.18219e-08
1.92479e-05
-1.93464e-08
1.92478e-05
-2.65531e-08
1.92474e-05
-3.36727e-08
1.92469e-05
-4.19467e-08
1.92463e-05
-5.29752e-08
1.92457e-05
-6.72767e-08
1.92449e-05
-8.34588e-08
1.92435e-05
-1.00053e-07
1.92415e-05
-1.16757e-07
1.92386e-05
-1.33275e-07
1.92345e-05
-1.49735e-07
1.92288e-05
-1.66928e-07
1.92212e-05
-1.8584e-07
1.92112e-05
-2.07227e-07
1.91984e-05
-2.31671e-07
1.91819e-05
-2.59734e-07
1.91607e-05
-2.9197e-07
1.91337e-05
-3.28928e-07
1.90988e-05
-3.71205e-07
1.90538e-05
-4.19505e-07
1.89952e-05
-4.74707e-07
1.89187e-05
-5.37949e-07
1.8818e-05
-6.10817e-07
1.86849e-05
-6.9561e-07
1.85076e-05
-7.95534e-07
1.82695e-05
-9.16991e-07
1.79487e-05
-1.06347e-06
-1.2748e-06
1.75024e-05
1.92481e-05
-3.96805e-09
1.92479e-05
-1.16486e-08
1.92476e-05
-1.90648e-08
1.92472e-05
-2.61394e-08
1.92466e-05
-3.30422e-08
1.92457e-05
-4.10268e-08
1.92445e-05
-5.18595e-08
1.92433e-05
-6.60614e-08
1.92417e-05
-8.18798e-08
1.92395e-05
-9.77801e-08
1.92364e-05
-1.1368e-07
1.92323e-05
-1.29165e-07
1.92267e-05
-1.44181e-07
1.92194e-05
-1.59578e-07
1.92099e-05
-1.76381e-07
1.91979e-05
-1.95233e-07
1.91828e-05
-2.16571e-07
1.91639e-05
-2.40773e-07
1.914e-05
-2.68124e-07
1.91099e-05
-2.98807e-07
1.90716e-05
-3.3293e-07
1.90226e-05
-3.70533e-07
1.89595e-05
-4.11577e-07
1.88775e-05
-4.55935e-07
1.87701e-05
-5.03396e-07
1.86282e-05
-5.53694e-07
1.84391e-05
-6.06436e-07
1.8184e-05
-6.61966e-07
1.78387e-05
-7.18136e-07
-7.87355e-07
1.73513e-05
1.9248e-05
-3.87361e-09
1.92478e-05
-1.13753e-08
1.92473e-05
-1.86207e-08
1.92467e-05
-2.55059e-08
1.92458e-05
-3.216e-08
1.92446e-05
-3.98275e-08
1.92431e-05
-5.03123e-08
1.92412e-05
-6.41818e-08
1.92389e-05
-7.96314e-08
1.9236e-05
-9.48202e-08
1.9232e-05
-1.09712e-07
1.92268e-05
-1.23962e-07
1.92199e-05
-1.37325e-07
1.92111e-05
-1.50767e-07
1.92001e-05
-1.65333e-07
1.91864e-05
-1.81534e-07
1.91695e-05
-1.99668e-07
1.91486e-05
-2.19932e-07
1.91229e-05
-2.42341e-07
1.90908e-05
-2.66716e-07
1.90505e-05
-2.92683e-07
1.89996e-05
-3.19622e-07
1.89346e-05
-3.46586e-07
1.88509e-05
-3.72184e-07
1.87419e-05
-3.94398e-07
1.85985e-05
-4.10365e-07
1.84081e-05
-4.16029e-07
1.81517e-05
-4.05499e-07
1.78046e-05
-3.71067e-07
-2.95376e-07
1.73126e-05
1.9248e-05
-3.75026e-09
1.92476e-05
-1.10149e-08
1.92471e-05
-1.80379e-08
1.92463e-05
-2.47115e-08
1.92452e-05
-3.10569e-08
1.92437e-05
-3.8316e-08
1.92418e-05
-4.84077e-08
1.92395e-05
-6.19042e-08
1.92366e-05
-7.67802e-08
1.9233e-05
-9.11733e-08
1.92283e-05
-1.05068e-07
1.92222e-05
-1.17831e-07
1.92142e-05
-1.29301e-07
1.92041e-05
-1.40688e-07
1.91917e-05
-1.52954e-07
1.91766e-05
-1.66458e-07
1.91584e-05
-1.81396e-07
1.91362e-05
-1.97792e-07
1.91093e-05
-2.15404e-07
1.90763e-05
-2.33713e-07
1.90355e-05
-2.51897e-07
1.89846e-05
-2.68729e-07
1.89204e-05
-2.82421e-07
1.88387e-05
-2.90417e-07
1.87333e-05
-2.89034e-07
1.8596e-05
-2.73033e-07
1.84149e-05
-2.34942e-07
1.81724e-05
-1.6304e-07
1.7847e-05
-4.55904e-08
1.63084e-07
1.73885e-05
1.9248e-05
-3.60614e-09
1.92476e-05
-1.05806e-08
1.92468e-05
-1.73247e-08
1.92459e-05
-2.37311e-08
1.92446e-05
-2.9796e-08
1.92429e-05
-3.66025e-08
1.92406e-05
-4.61562e-08
1.92379e-05
-5.92051e-08
1.92346e-05
-7.34341e-08
1.92306e-05
-8.71418e-08
1.92255e-05
-1.00017e-07
1.92186e-05
-1.1094e-07
1.92096e-05
-1.203e-07
1.91985e-05
-1.29548e-07
1.9185e-05
-1.39438e-07
1.91688e-05
-1.50254e-07
1.91495e-05
-1.62118e-07
1.91266e-05
-1.74871e-07
1.90992e-05
-1.88027e-07
1.90662e-05
-2.00776e-07
1.90262e-05
-2.11904e-07
1.89772e-05
-2.19666e-07
1.89163e-05
-2.21566e-07
1.884e-05
-2.14067e-07
1.87431e-05
-1.92119e-07
1.86185e-05
-1.48501e-07
1.84566e-05
-7.30197e-08
1.82431e-05
5.0448e-08
1.79588e-05
2.3869e-07
5.54333e-07
1.75676e-05
1.9248e-05
-3.44893e-09
1.92475e-05
-1.00855e-08
1.92467e-05
-1.65551e-08
1.92457e-05
-2.27165e-08
1.92444e-05
-2.84503e-08
1.92425e-05
-3.4724e-08
1.92399e-05
-4.35533e-08
1.92365e-05
-5.58751e-08
1.92328e-05
-6.97411e-08
1.92289e-05
-8.31824e-08
1.92235e-05
-9.46616e-08
1.92159e-05
-1.03335e-07
1.92061e-05
-1.10505e-07
1.91941e-05
-1.17509e-07
1.91796e-05
-1.24966e-07
1.91625e-05
-1.33183e-07
1.91426e-05
-1.4219e-07
1.91194e-05
-1.51642e-07
1.90922e-05
-1.6085e-07
1.90602e-05
-1.68761e-07
1.90222e-05
-1.73856e-07
1.89765e-05
-1.73991e-07
1.89211e-05
-1.66144e-07
1.8853e-05
-1.46054e-07
1.87686e-05
-1.07673e-07
1.86626e-05
-4.25318e-08
1.85277e-05
6.1903e-08
1.8354e-05
2.24153e-07
1.81288e-05
4.63924e-07
8.53197e-07
1.78299e-05
1.9248e-05
-3.29041e-09
1.92475e-05
-9.60223e-09
1.92467e-05
-1.57642e-08
1.92455e-05
-2.1532e-08
1.92441e-05
-2.70476e-08
1.92421e-05
-3.27573e-08
1.92393e-05
-4.0678e-08
1.92359e-05
-5.24726e-08
1.92323e-05
-6.61876e-08
1.92282e-05
-7.90372e-08
1.92223e-05
-8.8786e-08
1.92142e-05
-9.52143e-08
1.92037e-05
-1.00002e-07
1.91908e-05
-1.04596e-07
1.91755e-05
-1.09667e-07
1.91578e-05
-1.15489e-07
1.91375e-05
-1.21943e-07
1.91144e-05
-1.28529e-07
1.9088e-05
-1.34413e-07
1.90576e-05
-1.38369e-07
1.90224e-05
-1.3867e-07
1.89813e-05
-1.32921e-07
1.8933e-05
-1.17781e-07
1.88755e-05
-8.85898e-08
1.88067e-05
-3.88361e-08
1.87231e-05
4.10605e-08
1.86209e-05
1.64043e-07
1.84951e-05
3.49995e-07
1.83392e-05
6.19771e-07
1.04534e-06
1.81471e-05
1.9248e-05
-3.15848e-09
1.92476e-05
-9.17284e-09
1.9247e-05
-1.5177e-08
1.92464e-05
-2.09904e-08
1.92449e-05
-2.54622e-08
1.92417e-05
-2.95651e-08
1.92383e-05
-3.73475e-08
1.9235e-05
-4.91229e-08
1.92314e-05
-6.26366e-08
1.92273e-05
-7.49405e-08
1.92215e-05
-8.29157e-08
1.92133e-05
-8.70579e-08
1.92025e-05
-8.91727e-08
1.91889e-05
-9.10195e-08
1.91729e-05
-9.36249e-08
1.91546e-05
-9.72235e-08
1.91341e-05
-1.01477e-07
1.91113e-05
-1.0573e-07
1.9086e-05
-1.09039e-07
1.90577e-05
-1.10062e-07
1.90259e-05
-1.06962e-07
1.89903e-05
-9.72549e-08
1.895e-05
-7.7528e-08
1.89045e-05
-4.30988e-08
1.88528e-05
1.28694e-08
1.87941e-05
9.97466e-08
1.87277e-05
2.30438e-07
1.86534e-05
4.24296e-07
1.8571e-05
7.02209e-07
1.12756e-06
1.84888e-05
1.9248e-05
-3.03084e-09
1.92477e-05
-8.85201e-09
1.92472e-05
-1.46848e-08
1.92454e-05
-1.91823e-08
1.92432e-05
-2.32765e-08
1.92416e-05
-2.79652e-08
1.92392e-05
-3.49985e-08
1.92357e-05
-4.55961e-08
1.9232e-05
-5.89323e-08
1.92276e-05
-7.04967e-08
1.92213e-05
-7.66071e-08
1.92128e-05
-7.86034e-08
1.92016e-05
-7.7987e-08
1.91876e-05
-7.69601e-08
1.91711e-05
-7.71194e-08
1.91525e-05
-7.86742e-08
1.91321e-05
-8.10398e-08
1.91098e-05
-8.3465e-08
1.90857e-05
-8.49501e-08
1.90597e-05
-8.40868e-08
1.90318e-05
-7.90242e-08
1.90019e-05
-6.73318e-08
1.89701e-05
-4.57373e-08
1.8937e-05
-9.98236e-09
1.8903e-05
4.68849e-08
1.88696e-05
1.33064e-07
1.88392e-05
2.60913e-07
1.88159e-05
4.4756e-07
1.8805e-05
7.1313e-07
1.1059e-06
1.88266e-05
1.92482e-05
-3.05881e-09
1.92481e-05
-8.74304e-09
1.92486e-05
-1.51848e-08
1.92491e-05
-1.97628e-08
1.9246e-05
-2.01486e-08
1.92384e-05
-2.03765e-08
1.92343e-05
-3.09078e-08
1.9234e-05
-4.52432e-08
1.92322e-05
-5.71465e-08
1.92271e-05
-6.54294e-08
1.92205e-05
-7.00317e-08
1.92127e-05
-7.07614e-08
1.92017e-05
-6.70223e-08
1.91874e-05
-6.25986e-08
1.91703e-05
-6.0084e-08
1.91514e-05
-5.96892e-08
1.91308e-05
-6.05226e-08
1.91091e-05
-6.17126e-08
1.90863e-05
-6.21909e-08
1.90628e-05
-6.05104e-08
1.90386e-05
-5.48911e-08
1.90144e-05
-4.31299e-08
1.8991e-05
-2.23376e-08
1.89696e-05
1.1434e-08
1.89527e-05
6.38168e-08
1.89433e-05
1.42405e-07
1.89465e-05
2.57787e-07
1.89702e-05
4.23826e-07
1.90241e-05
6.59225e-07
9.928e-07
1.91372e-05
1.92483e-05
-3.22556e-09
1.92482e-05
-8.67788e-09
1.92486e-05
-1.55913e-08
1.9247e-05
-1.81263e-08
1.92434e-05
-1.65858e-08
1.92401e-05
-1.70193e-08
1.92361e-05
-2.697e-08
1.92314e-05
-4.05446e-08
1.92259e-05
-5.15985e-08
1.92196e-05
-5.91521e-08
1.92141e-05
-6.45542e-08
1.92079e-05
-6.45476e-08
1.91988e-05
-5.79329e-08
1.9186e-05
-4.97626e-08
1.91698e-05
-4.3899e-08
1.91511e-05
-4.09973e-08
1.91308e-05
-4.01581e-08
1.91095e-05
-4.04398e-08
1.90879e-05
-4.05931e-08
1.90665e-05
-3.90691e-08
1.90457e-05
-3.41712e-08
1.90266e-05
-2.40253e-08
1.90106e-05
-6.31844e-09
1.89999e-05
2.21449e-08
1.8998e-05
6.56688e-08
1.90097e-05
1.30753e-07
1.90419e-05
2.25559e-07
1.91058e-05
3.59958e-07
1.92142e-05
5.50839e-07
8.05062e-07
1.94019e-05
1.92493e-05
-4.35537e-09
1.92506e-05
-9.97354e-09
1.9252e-05
-1.70234e-08
1.92553e-05
-2.14077e-08
1.92525e-05
-1.38281e-08
1.92341e-05
1.38805e-09
1.92088e-05
-1.61537e-09
1.91971e-05
-2.88721e-08
1.91999e-05
-5.44381e-08
1.9208e-05
-6.72128e-08
1.92156e-05
-7.21309e-08
1.92153e-05
-6.42856e-08
1.92064e-05
-4.90804e-08
1.91911e-05
-3.44593e-08
1.91722e-05
-2.49413e-08
1.91515e-05
-2.02964e-08
1.91301e-05
-1.88118e-08
1.91089e-05
-1.92544e-08
1.90884e-05
-2.00547e-08
1.9069e-05
-1.96623e-08
1.90514e-05
-1.65723e-08
1.90368e-05
-9.37912e-09
1.90268e-05
3.67556e-09
1.9025e-05
2.38788e-08
1.90357e-05
5.50213e-08
1.90642e-05
1.02238e-07
1.91193e-05
1.70413e-07
1.92143e-05
2.65004e-07
1.93649e-05
4.00188e-07
5.60509e-07
1.96095e-05
1.9251e-05
-7.18294e-09
1.92517e-05
-1.07313e-08
1.92512e-05
-1.65087e-08
1.92451e-05
-1.52626e-08
1.92294e-05
1.82534e-09
1.92174e-05
1.33991e-08
1.92168e-05
-9.95879e-10
1.92279e-05
-4.00381e-08
1.92385e-05
-6.50338e-08
1.92442e-05
-7.28945e-08
1.92412e-05
-6.91055e-08
1.92295e-05
-5.25891e-08
1.9212e-05
-3.15865e-08
1.91912e-05
-1.36194e-08
1.91693e-05
-3.03437e-09
1.91477e-05
1.30261e-09
1.91267e-05
2.15591e-09
1.91068e-05
6.83725e-10
1.9088e-05
-1.33578e-09
1.90711e-05
-2.73989e-09
1.90569e-05
-2.32134e-09
1.90471e-05
3.77655e-10
1.90438e-05
6.99829e-09
1.90488e-05
1.8869e-08
1.90667e-05
3.70952e-08
1.91059e-05
6.30528e-08
1.9176e-05
1.0031e-07
1.92898e-05
1.51188e-07
1.9467e-05
2.22993e-07
2.7539e-07
1.97521e-05
1.9241e-05
1.92302e-05
1.92137e-05
1.91984e-05
1.92003e-05
1.92137e-05
1.92127e-05
1.91726e-05
1.91076e-05
1.90347e-05
1.89656e-05
1.8913e-05
1.88814e-05
1.88678e-05
1.88648e-05
1.88661e-05
1.88682e-05
1.88689e-05
1.88676e-05
1.88648e-05
1.88625e-05
1.88629e-05
1.88699e-05
1.88888e-05
1.89259e-05
1.89889e-05
1.90892e-05
1.92404e-05
1.94634e-05
1.97388e-05
2.06204e-05
-9.71689e-06
1.01852e-05
2.0149e-05
-9.7962e-06
1.02676e-05
1.96619e-05
-9.87219e-06
1.03593e-05
1.9157e-05
-9.94249e-06
1.04474e-05
1.86375e-05
-1.00121e-05
1.05316e-05
1.81065e-05
-1.00831e-05
1.06142e-05
1.75658e-05
-1.01558e-05
1.06965e-05
1.70168e-05
-1.02308e-05
1.07797e-05
1.64605e-05
-1.03087e-05
1.0865e-05
1.58974e-05
-1.03902e-05
1.09533e-05
1.53275e-05
-1.04758e-05
1.10457e-05
1.47503e-05
-1.05658e-05
1.1143e-05
1.41655e-05
-1.0661e-05
1.12458e-05
1.35724e-05
-1.07621e-05
1.13553e-05
1.29701e-05
-1.08702e-05
1.14725e-05
1.23576e-05
-1.09863e-05
1.15988e-05
1.17337e-05
-1.11119e-05
1.17358e-05
1.10967e-05
-1.12486e-05
1.18856e-05
1.04444e-05
-1.13984e-05
1.20507e-05
9.77404e-06
-1.15638e-05
1.22342e-05
9.08179e-06
-1.17477e-05
1.244e-05
8.36266e-06
-1.19536e-05
1.26727e-05
7.60996e-06
-1.21853e-05
1.2938e-05
6.81457e-06
-1.2448e-05
1.32434e-05
5.96432e-06
-1.27462e-05
1.35965e-05
5.04183e-06
-1.30909e-05
1.40134e-05
4.02657e-06
-1.34787e-05
1.44939e-05
2.86805e-06
-1.39508e-05
1.51093e-05
1.588e-06
-1.43972e-05
1.56772e-05
-1.52743e-05
1.68623e-05
2.06919e-05
-9.23689e-06
2.01907e-05
-9.29501e-06
1.96742e-05
-9.35564e-06
1.91481e-05
-9.41639e-06
1.86147e-05
-9.47877e-06
1.80751e-05
-9.54352e-06
1.75299e-05
-9.61061e-06
1.69792e-05
-9.68011e-06
1.64229e-05
-9.75234e-06
1.58603e-05
-9.82764e-06
1.52909e-05
-9.90636e-06
1.4714e-05
-9.98897e-06
1.41291e-05
-1.00761e-05
1.35355e-05
-1.01685e-05
1.29323e-05
-1.0267e-05
1.23184e-05
-1.03724e-05
1.16925e-05
-1.0486e-05
1.10527e-05
-1.06089e-05
1.03969e-05
-1.07426e-05
9.72207e-06
-1.0889e-05
9.02442e-06
-1.10501e-05
8.29894e-06
-1.12281e-05
7.53908e-06
-1.14254e-05
6.73617e-06
-1.16451e-05
5.87898e-06
-1.18891e-05
4.95201e-06
-1.2164e-05
3.9352e-06
-1.24619e-05
2.79798e-06
-1.28136e-05
1.52609e-06
-1.31253e-05
-1.37482e-05
2.06282e-05
-8.73387e-06
2.01157e-05
-8.78251e-06
1.95947e-05
-8.83469e-06
1.90684e-05
-8.89004e-06
1.85374e-05
-8.94776e-06
1.80011e-05
-9.00729e-06
1.74591e-05
-9.0686e-06
1.69109e-05
-9.13191e-06
1.63561e-05
-9.19754e-06
1.57943e-05
-9.26584e-06
1.52252e-05
-9.33721e-06
1.46483e-05
-9.41209e-06
1.40632e-05
-9.49101e-06
1.34692e-05
-9.5745e-06
1.28654e-05
-9.66315e-06
1.22505e-05
-9.75759e-06
1.16232e-05
-9.85861e-06
1.09815e-05
-9.96713e-06
1.03231e-05
-1.00842e-05
9.64508e-06
-1.0211e-05
8.94367e-06
-1.03487e-05
8.21396e-06
-1.04984e-05
7.44966e-06
-1.06611e-05
6.64263e-06
-1.08381e-05
5.78254e-06
-1.1029e-05
4.85532e-06
-1.12368e-05
3.84335e-06
-1.14499e-05
2.72237e-06
-1.16926e-05
1.46546e-06
-1.18683e-05
-1.22828e-05
2.05533e-05
-8.22538e-06
2.00386e-05
-8.26787e-06
1.95174e-05
-8.31345e-06
1.89906e-05
-8.36329e-06
1.84585e-05
-8.41568e-06
1.79206e-05
-8.46939e-06
1.73766e-05
-8.52451e-06
1.68261e-05
-8.58149e-06
1.62692e-05
-8.64064e-06
1.57056e-05
-8.70222e-06
1.51349e-05
-8.76651e-06
1.45567e-05
-8.83382e-06
1.39701e-05
-8.90448e-06
1.33745e-05
-8.97885e-06
1.27686e-05
-9.05731e-06
1.21514e-05
-9.14031e-06
1.15211e-05
-9.22837e-06
1.08761e-05
-9.3221e-06
1.02139e-05
-9.42208e-06
9.53177e-06
-9.52884e-06
8.82586e-06
-9.64277e-06
8.09151e-06
-9.76405e-06
7.32288e-06
-9.8925e-06
6.51251e-06
-1.00277e-05
5.65118e-06
-1.01676e-05
4.72648e-06
-1.03121e-05
3.72384e-06
-1.04472e-05
2.62229e-06
-1.0591e-05
1.39573e-06
-1.06418e-05
-1.0887e-05
2.04482e-05
-7.71253e-06
1.993e-05
-7.74972e-06
1.9406e-05
-7.78942e-06
1.88766e-05
-7.8339e-06
1.8342e-05
-7.88105e-06
1.78018e-05
-7.92923e-06
1.72558e-05
-7.97853e-06
1.67038e-05
-8.02948e-06
1.61456e-05
-8.08236e-06
1.55806e-05
-8.13727e-06
1.50085e-05
-8.19437e-06
1.44285e-05
-8.25386e-06
1.384e-05
-8.31594e-06
1.32419e-05
-8.38084e-06
1.26334e-05
-8.44878e-06
1.20132e-05
-8.52004e-06
1.13797e-05
-8.59489e-06
1.07311e-05
-8.67356e-06
1.00653e-05
-8.75621e-06
9.37923e-06
-8.84279e-06
8.66947e-06
-8.93301e-06
7.93166e-06
-9.02624e-06
7.16045e-06
-9.1213e-06
6.34924e-06
-9.21651e-06
5.49001e-06
-9.30841e-06
4.57213e-06
-9.39417e-06
3.58384e-06
-9.45896e-06
2.50673e-06
-9.51393e-06
1.32102e-06
-9.45608e-06
-9.566e-06
2.03115e-05
-7.19588e-06
1.97901e-05
-7.22829e-06
1.92633e-05
-7.26263e-06
1.87314e-05
-7.30201e-06
1.81944e-05
-7.34405e-06
1.7652e-05
-7.38681e-06
1.71038e-05
-7.43036e-06
1.65496e-05
-7.47528e-06
1.5989e-05
-7.52177e-06
1.54216e-05
-7.56986e-06
1.48469e-05
-7.6196e-06
1.42641e-05
-7.67108e-06
1.36726e-05
-7.72441e-06
1.30714e-05
-7.77969e-06
1.24596e-05
-7.83699e-06
1.1836e-05
-7.89639e-06
1.1199e-05
-7.95791e-06
1.05469e-05
-8.02147e-06
9.87746e-06
-8.08679e-06
9.18802e-06
-8.15335e-06
8.47531e-06
-8.2203e-06
7.73541e-06
-8.28634e-06
6.96364e-06
-8.34953e-06
6.1543e-06
-8.40717e-06
5.30065e-06
-8.45476e-06
4.39391e-06
-8.48743e-06
3.42495e-06
-8.49e-06
2.37832e-06
-8.46729e-06
1.24234e-06
-8.3201e-06
-8.32367e-06
2.01395e-05
-6.67536e-06
1.96145e-05
-6.70332e-06
1.90845e-05
-6.73263e-06
1.85496e-05
-6.76705e-06
1.80095e-05
-6.80404e-06
1.74642e-05
-6.84143e-06
1.69131e-05
-6.87927e-06
1.63559e-05
-6.91815e-06
1.57924e-05
-6.95823e-06
1.5222e-05
-6.99945e-06
1.46441e-05
-7.04175e-06
1.40582e-05
-7.08516e-06
1.34635e-05
-7.12968e-06
1.28591e-05
-7.17528e-06
1.2244e-05
-7.22191e-06
1.16171e-05
-7.26946e-06
1.09769e-05
-7.31771e-06
1.03217e-05
-7.36629e-06
9.64947e-06
-7.41457e-06
8.95777e-06
-7.46166e-06
8.24369e-06
-7.50623e-06
7.50383e-06
-7.54648e-06
6.73422e-06
-7.57991e-06
5.93013e-06
-7.60308e-06
5.08612e-06
-7.61076e-06
4.1953e-06
-7.5966e-06
3.25102e-06
-7.54572e-06
2.24119e-06
-7.45746e-06
1.1623e-06
-7.24122e-06
-7.16136e-06
1.99286e-05
-6.15077e-06
1.93998e-05
-6.17455e-06
1.88663e-05
-6.19911e-06
1.83279e-05
-6.22869e-06
1.77846e-05
-6.26068e-06
1.72359e-05
-6.29276e-06
1.66815e-05
-6.32493e-06
1.61212e-05
-6.35779e-06
1.55544e-05
-6.39145e-06
1.49807e-05
-6.42578e-06
1.43996e-05
-6.46063e-06
1.38104e-05
-6.49596e-06
1.32124e-05
-6.53169e-06
1.26049e-05
-6.5677e-06
1.19867e-05
-6.60379e-06
1.1357e-05
-6.63968e-06
1.07142e-05
-6.67495e-06
1.00569e-05
-6.70897e-06
9.38317e-06
-6.74086e-06
8.69089e-06
-6.76938e-06
7.97756e-06
-6.7929e-06
7.24037e-06
-6.80929e-06
6.4761e-06
-6.81563e-06
5.68101e-06
-6.808e-06
4.85097e-06
-6.78072e-06
3.9809e-06
-6.72653e-06
3.06648e-06
-6.6313e-06
2.09905e-06
-6.49003e-06
1.08188e-06
-6.22406e-06
-6.07948e-06
1.96763e-05
-5.62194e-06
1.91435e-05
-5.64179e-06
1.86063e-05
-5.6619e-06
1.80644e-05
-5.68676e-06
1.75175e-05
-5.71378e-06
1.69653e-05
-5.7406e-06
1.64076e-05
-5.76718e-06
1.58439e-05
-5.79407e-06
1.52738e-05
-5.82136e-06
1.46969e-05
-5.84886e-06
1.41126e-05
-5.87636e-06
1.35204e-05
-5.90376e-06
1.29196e-05
-5.93089e-06
1.23094e-05
-5.95754e-06
1.1689e-05
-5.98341e-06
1.10574e-05
-6.00805e-06
1.04133e-05
-6.03087e-06
9.75539e-06
-6.05104e-06
9.082e-06
-6.06746e-06
8.39135e-06
-6.07872e-06
7.68143e-06
-6.08298e-06
6.95001e-06
-6.07787e-06
6.19464e-06
-6.06025e-06
5.41257e-06
-6.02593e-06
4.6009e-06
-5.96904e-06
3.75626e-06
-5.88189e-06
2.8764e-06
-5.75143e-06
1.95588e-06
-5.56951e-06
1.00311e-06
-5.27129e-06
-5.07637e-06
1.9382e-05
-5.0889e-06
1.88453e-05
-5.10508e-06
1.83044e-05
-5.12105e-06
1.7759e-05
-5.14131e-06
1.72086e-05
-5.16343e-06
1.66531e-05
-5.18509e-06
1.60921e-05
-5.20619e-06
1.55253e-05
-5.22724e-06
1.49522e-05
-5.24832e-06
1.43726e-05
-5.26916e-06
1.37857e-05
-5.28954e-06
1.31912e-05
-5.30927e-06
1.25885e-05
-5.32814e-06
1.19768e-05
-5.34586e-06
1.13554e-05
-5.362e-06
1.07234e-05
-5.376e-06
1.00796e-05
-5.38713e-06
9.423e-06
-5.39443e-06
8.75221e-06
-5.39667e-06
8.06582e-06
-5.39233e-06
7.36229e-06
-5.37946e-06
6.64002e-06