/*--------------------------------*- C++ -*----------------------------------*\
  =========                 |
  \\      /  F ield         | OpenFOAM: The Open Source CFD Toolbox
   \\    /   O peration     | Website:  https://openfoam.org
    \\  /    A nd           | Version:  11
     \\/     M anipulation  |
\*---------------------------------------------------------------------------*/
FoamFile
{
    format      ascii;
    class       volVectorField;
    location    "0.4";
    object      U;
}
// * * * * * * * * * * * * * * * * * * * * * * * * * * * * * * * * * * * * * //

dimensions      [0 1 -1 0 0 0 0];

internalField   nonuniform List<vector> 
12600
(
(0.412317 4.84114e-05 0)
(0.412294 8.84473e-05 0)
(0.412111 0.000162657 0)
(0.411756 0.000134516 0)
(0.411653 -0.000242823 0)
(0.41211 -0.000425678 0)
(0.412721 -0.000224338 0)
(0.412681 0.000512566 0)
(0.411804 0.000856435 0)
(0.410624 0.000904964 0)
(0.409562 0.00076708 0)
(0.408835 0.000359191 0)
(0.408598 -6.44904e-05 0)
(0.408876 -0.00034164 0)
(0.409561 -0.000480068 0)
(0.410508 -0.000571437 0)
(0.411621 -0.00062169 0)
(0.412851 -0.000640272 0)
(0.414173 -0.000638332 0)
(0.415596 -0.00064523 0)
(0.417166 -0.000685497 0)
(0.418948 -0.00076059 0)
(0.421 -0.000867239 0)
(0.423389 -0.00100495 0)
(0.426189 -0.00117537 0)
(0.429483 -0.00137757 0)
(0.43336 -0.00162037 0)
(0.43789 -0.00185979 0)
(0.443187 -0.00227662 0)
(0.449916 -0.00194001 0)
(0.412483 6.85556e-05 0)
(0.41257 0.000130164 0)
(0.412743 0.000196211 0)
(0.41276 0.000181243 0)
(0.412476 -8.92406e-05 0)
(0.412265 -0.000395523 0)
(0.412416 -0.000312025 0)
(0.412914 0.000256692 0)
(0.413395 0.000681708 0)
(0.414074 0.000794259 0)
(0.414761 0.000721494 0)
(0.415168 0.000398614 0)
(0.415449 -2.77114e-05 0)
(0.415727 -0.000440784 0)
(0.416073 -0.000753599 0)
(0.416497 -0.000959853 0)
(0.416998 -0.00110909 0)
(0.417578 -0.00124507 0)
(0.418367 -0.00139625 0)
(0.419434 -0.00157888 0)
(0.420704 -0.00180228 0)
(0.422216 -0.00207791 0)
(0.424015 -0.0024189 0)
(0.426149 -0.00283678 0)
(0.428686 -0.00334129 0)
(0.431699 -0.0039379 0)
(0.435278 -0.00464271 0)
(0.439507 -0.00539455 0)
(0.444509 -0.00643433 0)
(0.450301 -0.00648391 0)
(0.412477 2.74857e-05 0)
(0.412536 3.98208e-05 0)
(0.412704 7.31606e-05 0)
(0.412809 9.79881e-05 0)
(0.412846 3.10564e-05 0)
(0.412804 -0.00011936 0)
(0.412588 -0.0002165 0)
(0.412451 -0.00020382 0)
(0.412506 -0.000194972 0)
(0.412995 -0.000178513 0)
(0.413766 -0.000139276 0)
(0.414493 -0.000195785 0)
(0.415018 -0.000429259 0)
(0.415432 -0.000736722 0)
(0.415852 -0.00101725 0)
(0.416321 -0.00125652 0)
(0.416876 -0.00147731 0)
(0.417559 -0.00171941 0)
(0.418386 -0.00201989 0)
(0.419369 -0.0023754 0)
(0.420545 -0.00277925 0)
(0.421964 -0.00325449 0)
(0.423668 -0.00382863 0)
(0.425708 -0.00452252 0)
(0.428146 -0.00535432 0)
(0.431063 -0.00633821 0)
(0.434533 -0.00749632 0)
(0.438699 -0.00877753 0)
(0.443537 -0.0104187 0)
(0.449664 -0.0112454 0)
(0.412472 2.79013e-06 0)
(0.412513 6.47219e-07 0)
(0.41264 2.64653e-05 0)
(0.412745 -2.57273e-05 0)
(0.412593 -0.000191188 0)
(0.412646 -0.000207274 0)
(0.413072 -4.09359e-05 0)
(0.413194 6.02917e-05 0)
(0.413231 4.40607e-05 0)
(0.413432 -7.22883e-05 0)
(0.413826 -0.000253106 0)
(0.414275 -0.000497526 0)
(0.4147 -0.000800981 0)
(0.41514 -0.0011152 0)
(0.415614 -0.00141145 0)
(0.416114 -0.00169861 0)
(0.416669 -0.00199773 0)
(0.417328 -0.00233261 0)
(0.418118 -0.00272492 0)
(0.419054 -0.00318722 0)
(0.420167 -0.00373551 0)
(0.421502 -0.00439598 0)
(0.423106 -0.00519553 0)
(0.425031 -0.00615955 0)
(0.427338 -0.0073147 0)
(0.430113 -0.00868427 0)
(0.433428 -0.0103018 0)
(0.437454 -0.0121258 0)
(0.442129 -0.0144021 0)
(0.448255 -0.0159992 0)
(0.412471 -9.68151e-06 0)
(0.412509 -3.21837e-05 0)
(0.412652 -5.63189e-05 0)
(0.412709 -7.88812e-05 0)
(0.412619 -0.000106929 0)
(0.41264 -0.000182233 0)
(0.412948 -0.000297308 0)
(0.413167 -0.000364694 0)
(0.413268 -0.000421063 0)
(0.413508 -0.000520695 0)
(0.413924 -0.000668342 0)
(0.414324 -0.000870528 0)
(0.414656 -0.00112695 0)
(0.415013 -0.00141676 0)
(0.415431 -0.00172322 0)
(0.41589 -0.00204916 0)
(0.416407 -0.00241022 0)
(0.417019 -0.00282657 0)
(0.417751 -0.00331912 0)
(0.418617 -0.00390603 0)
(0.419646 -0.00460663 0)
(0.420878 -0.00544739 0)
(0.422357 -0.00646034 0)
(0.424133 -0.00768002 0)
(0.426268 -0.00914358 0)
(0.428848 -0.0108864 0)
(0.431948 -0.0129547 0)
(0.435762 -0.015326 0)
(0.440197 -0.0182375 0)
(0.446236 -0.0206785 0)
(0.41247 -2.10031e-05 0)
(0.412502 -6.52038e-05 0)
(0.412626 -0.000100455 0)
(0.412662 -0.000146328 0)
(0.412533 -0.000225321 0)
(0.41261 -0.000307372 0)
(0.413071 -0.00035782 0)
(0.413189 -0.000401171 0)
(0.413222 -0.000458545 0)
(0.413434 -0.000593839 0)
(0.41382 -0.000798371 0)
(0.414178 -0.00105734 0)
(0.414467 -0.00136016 0)
(0.41479 -0.00169043 0)
(0.415183 -0.00203896 0)
(0.415615 -0.00241377 0)
(0.416091 -0.00283427 0)
(0.41665 -0.00332235 0)
(0.417313 -0.00389987 0)
(0.418094 -0.00458917 0)
(0.419019 -0.00541586 0)
(0.420122 -0.00641197 0)
(0.421443 -0.00761549 0)
(0.423033 -0.00906898 0)
(0.424949 -0.0108199 0)
(0.427279 -0.012917 0)
(0.430097 -0.0154216 0)
(0.433617 -0.0183375 0)
(0.437723 -0.0218923 0)
(0.443573 -0.0252278 0)
(0.412469 -2.95631e-05 0)
(0.412499 -8.90874e-05 0)
(0.412617 -0.000146024 0)
(0.412634 -0.000201233 0)
(0.412541 -0.000266908 0)
(0.412603 -0.000354782 0)
(0.412958 -0.000455612 0)
(0.413123 -0.000561032 0)
(0.41314 -0.000689801 0)
(0.413327 -0.000859 0)
(0.413697 -0.0010739 0)
(0.414028 -0.00133395 0)
(0.414282 -0.00163173 0)
(0.414571 -0.00196027 0)
(0.414927 -0.00232182 0)
(0.415314 -0.00272803 0)
(0.415736 -0.00319602 0)
(0.416227 -0.00374541 0)
(0.416807 -0.00439819 0)
(0.417487 -0.00517951 0)
(0.418288 -0.0061192 0)
(0.419239 -0.00725364 0)
(0.420376 -0.00862652 0)
(0.421744 -0.0102888 0)
(0.423397 -0.0122995 0)
(0.42542 -0.0147229 0)
(0.427884 -0.0176384 0)
(0.431021 -0.0210829 0)
(0.434689 -0.0252772 0)
(0.440216 -0.0295557 0)
(0.412468 -3.69563e-05 0)
(0.412498 -0.000110594 0)
(0.412607 -0.000180859 0)
(0.412615 -0.000251296 0)
(0.412502 -0.000333391 0)
(0.412558 -0.000432901 0)
(0.412962 -0.000547342 0)
(0.413053 -0.000674293 0)
(0.413048 -0.000823306 0)
(0.413214 -0.00101103 0)
(0.413555 -0.00124393 0)
(0.413852 -0.00151978 0)
(0.41407 -0.00183224 0)
(0.414322 -0.00217968 0)
(0.414638 -0.00256814 0)
(0.414978 -0.00300912 0)
(0.415341 -0.00351909 0)
(0.415758 -0.00411872 0)
(0.416246 -0.00483209 0)
(0.416812 -0.00568721 0)
(0.417472 -0.00671763 0)
(0.418251 -0.0079642 0)
(0.419178 -0.00947652 0)
(0.420292 -0.011314 0)
(0.421638 -0.0135471 0)
(0.423297 -0.0162571 0)
(0.425332 -0.0195437 0)
(0.427984 -0.0234833 0)
(0.431091 -0.0282953 0)
(0.436118 -0.0335504 0)
(0.412468 -4.33524e-05 0)
(0.412496 -0.000128853 0)
(0.412599 -0.000211654 0)
(0.412601 -0.000293416 0)
(0.412475 -0.000383253 0)
(0.412524 -0.000493281 0)
(0.412883 -0.000622386 0)
(0.413001 -0.000771654 0)
(0.412973 -0.000954215 0)
(0.413104 -0.00117161 0)
(0.41341 -0.00142246 0)
(0.413671 -0.00170851 0)
(0.413852 -0.00202861 0)
(0.414065 -0.00238509 0)
(0.414337 -0.00278733 0)
(0.414623 -0.00324893 0)
(0.41492 -0.00378713 0)
(0.415255 -0.00442304 0)
(0.415641 -0.00518152 0)
(0.416082 -0.00609218 0)
(0.416589 -0.0071911 0)
(0.417179 -0.00852269 0)
(0.417875 -0.0101417 0)
(0.418704 -0.012115 0)
(0.419704 -0.0145247 0)
(0.420944 -0.017469 0)
(0.422474 -0.0210696 0)
(0.424534 -0.025448 0)
(0.426941 -0.0308272 0)
(0.431247 -0.037056 0)
(0.412467 -4.88697e-05 0)
(0.412495 -0.000144677 0)
(0.412591 -0.000237645 0)
(0.412589 -0.000329226 0)
(0.412452 -0.000427648 0)
(0.412494 -0.000545308 0)
(0.412848 -0.000687898 0)
(0.412933 -0.000860446 0)
(0.412882 -0.00106783 0)
(0.412986 -0.0013036 0)
(0.413261 -0.00156624 0)
(0.413488 -0.00185988 0)
(0.413631 -0.0021859 0)
(0.413801 -0.00254963 0)
(0.414023 -0.00296278 0)
(0.414251 -0.00343972 0)
(0.414477 -0.0039976 0)
(0.414724 -0.00465761 0)
(0.415004 -0.00544525 0)
(0.415313 -0.0063913 0)
(0.415658 -0.00753359 0)
(0.416048 -0.00891913 0)
(0.416495 -0.0106066 0)
(0.417017 -0.0126694 0)
(0.417637 -0.0151995 0)
(0.418408 -0.0183113 0)
(0.419361 -0.0221487 0)
(0.420719 -0.0268808 0)
(0.422283 -0.0327378 0)
(0.425603 -0.0398804 0)
(0.412467 -5.35397e-05 0)
(0.412493 -0.000158131 0)
(0.412583 -0.000259537 0)
(0.412577 -0.000359365 0)
(0.412428 -0.000464614 0)
(0.412463 -0.000589389 0)
(0.412794 -0.000742584 0)
(0.412875 -0.0009316 0)
(0.412799 -0.00115918 0)
(0.412872 -0.00141214 0)
(0.413115 -0.00168618 0)
(0.413305 -0.00198619 0)
(0.413408 -0.00231572 0)
(0.413535 -0.00268228 0)
(0.413706 -0.0030993 0)
(0.413872 -0.00358215 0)
(0.414024 -0.00414812 0)
(0.414181 -0.00481823 0)
(0.41435 -0.00561797 0)
(0.414524 -0.0065783 0)
(0.414701 -0.00773756 0)
(0.414883 -0.00914392 0)
(0.415072 -0.0108584 0)
(0.415271 -0.0129585 0)
(0.415486 -0.0155439 0)
(0.415749 -0.0187423 0)
(0.416065 -0.0227174 0)
(0.416619 -0.0276845 0)
(0.417199 -0.0338827 0)
(0.419243 -0.0418 0)
(0.412466 -5.73478e-05 0)
(0.412492 -0.000169091 0)
(0.412575 -0.000277364 0)
(0.412565 -0.000383684 0)
(0.412404 -0.000494156 0)
(0.412434 -0.000624029 0)
(0.412746 -0.000786374 0)
(0.412815 -0.000989307 0)
(0.412716 -0.00123248 0)
(0.412762 -0.0014988 0)
(0.412974 -0.00178054 0)
(0.413127 -0.00208322 0)
(0.413189 -0.00241273 0)
(0.413269 -0.00277781 0)
(0.413387 -0.00319265 0)
(0.413491 -0.0036732 0)
(0.413568 -0.00423671 0)
(0.413635 -0.00490359 0)
(0.413694 -0.00569857 0)
(0.413732 -0.00665185 0)
(0.413741 -0.007801 0)
(0.413715 -0.00919366 0)
(0.413642 -0.0108909 0)
(0.413513 -0.0129717 0)
(0.413311 -0.0155395 0)
(0.413041 -0.0187304 0)
(0.412678 -0.0227231 0)
(0.412343 -0.0277712 0)
(0.411821 -0.0341219 0)
(0.412299 -0.0425753 0)
(0.412466 -6.03187e-05 0)
(0.41249 -0.000177651 0)
(0.412568 -0.000291208 0)
(0.412554 -0.000402308 0)
(0.412381 -0.000516669 0)
(0.412405 -0.000650536 0)
(0.412701 -0.000819806 0)
(0.412758 -0.00103303 0)
(0.412636 -0.00128749 0)
(0.412655 -0.00156334 0)
(0.412835 -0.00184977 0)
(0.412952 -0.00215173 0)
(0.412974 -0.00247714 0)
(0.413009 -0.00283608 0)
(0.413074 -0.00324284 0)
(0.413116 -0.00371325 0)
(0.413119 -0.00426408 0)
(0.413097 -0.0049147 0)
(0.413048 -0.00568843 0)
(0.412955 -0.00661366 0)
(0.412802 -0.00772583 0)
(0.412573 -0.0090701 0)
(0.412246 -0.010705 0)
(0.411793 -0.0127074 0)
(0.411178 -0.0151796 0)
(0.410371 -0.0182596 0)
(0.409313 -0.0221317 0)
(0.408039 -0.0270747 0)
(0.406334 -0.0333376 0)
(0.404999 -0.0419786 0)
(0.412465 -6.24745e-05 0)
(0.412488 -0.000183931 0)
(0.41256 -0.000301381 0)
(0.412544 -0.000415669 0)
(0.412359 -0.000532324 0)
(0.412378 -0.000668807 0)
(0.412656 -0.000843197 0)
(0.412703 -0.0010634 0)
(0.412559 -0.00132471 0)
(0.412552 -0.00160596 0)
(0.412701 -0.00189389 0)
(0.412783 -0.00219234 0)
(0.412767 -0.00251016 0)
(0.412758 -0.00285824 0)
(0.412772 -0.00325082 0)
(0.412754 -0.00370341 0)
(0.412686 -0.0042319 0)
(0.412579 -0.00485412 0)
(0.412428 -0.00559119 0)
(0.41221 -0.00646868 0)
(0.411905 -0.00751838 0)
(0.411486 -0.00878101 0)
(0.410921 -0.0103097 0)
(0.410163 -0.0121751 0)
(0.409157 -0.0144726 0)
(0.407833 -0.0173334 0)
(0.406098 -0.0209362 0)
(0.403883 -0.0255644 0)
(0.400978 -0.0314573 0)
(0.397675 -0.0398338 0)
(0.412465 -6.38587e-05 0)
(0.412487 -0.000187941 0)
(0.412554 -0.000307912 0)
(0.412534 -0.000424051 0)
(0.412338 -0.000541557 0)
(0.412352 -0.00067897 0)
(0.412614 -0.00085659 0)
(0.412648 -0.00108113 0)
(0.412487 -0.00134539 0)
(0.412455 -0.00162796 0)
(0.412576 -0.00191423 0)
(0.412624 -0.00220648 0)
(0.41257 -0.002513 0)
(0.412519 -0.0028453 0)
(0.412484 -0.00321796 0)
(0.412409 -0.00364586 0)
(0.412275 -0.00414346 0)
(0.41209 -0.00472648 0)
(0.411845 -0.00541318 0)
(0.411515 -0.00622527 0)
(0.411072 -0.00718956 0)
(0.410483 -0.00834029 0)
(0.409704 -0.00972244 0)
(0.408675 -0.011396 0)
(0.407317 -0.0134434 0)
(0.405526 -0.0159797 0)
(0.403171 -0.0191636 0)
(0.400074 -0.023259 0)
(0.396031 -0.0284777 0)
(0.390757 -0.0360644 0)
(0.412465 -6.45195e-05 0)
(0.412485 -0.000189861 0)
(0.412547 -0.000310973 0)
(0.412524 -0.000427661 0)
(0.412319 -0.000544753 0)
(0.412328 -0.00068146 0)
(0.412576 -0.000860163 0)
(0.412595 -0.00108758 0)
(0.412422 -0.0013516 0)
(0.412365 -0.00163029 0)
(0.412458 -0.0019115 0)
(0.412475 -0.0021951 0)
(0.412387 -0.00248708 0)
(0.412296 -0.00279929 0)
(0.412215 -0.00314699 0)
(0.412088 -0.00354422 0)
(0.411893 -0.00400357 0)
(0.411638 -0.00453822 0)
(0.411311 -0.00516297 0)
(0.410883 -0.00589484 0)
(0.410322 -0.00675441 0)
(0.409589 -0.00776771 0)
(0.408631 -0.00896883 0)
(0.407375 -0.0104034 0)
(0.405724 -0.0121345 0)
(0.403542 -0.0142519 0)
(0.400666 -0.0168799 0)
(0.396816 -0.0202361 0)
(0.391788 -0.0244837 0)
(0.384733 -0.0307372 0)
(0.412464 -6.45015e-05 0)
(0.412484 -0.000189808 0)
(0.412541 -0.000310812 0)
(0.412515 -0.000426902 0)
(0.412301 -0.000542242 0)
(0.412305 -0.000676573 0)
(0.412539 -0.000854416 0)
(0.412545 -0.00108335 0)
(0.412355 -0.00134456 0)
(0.412285 -0.00161523 0)
(0.412353 -0.00188806 0)
(0.41234 -0.00215988 0)
(0.412219 -0.00243396 0)
(0.412092 -0.00272253 0)
(0.411969 -0.00304119 0)
(0.411794 -0.00340284 0)
(0.411546 -0.00381799 0)
(0.41123 -0.00429706 0)
(0.410834 -0.00485097 0)
(0.410325 -0.00549135 0)
(0.409669 -0.0062316 0)
(0.408824 -0.00708814 0)
(0.407728 -0.00808207 0)
(0.406301 -0.00924131 0)
(0.404432 -0.0106048 0)
(0.401963 -0.0122284 0)
(0.398703 -0.0141899 0)
(0.394294 -0.0166355 0)
(0.388528 -0.0196587 0)
(0.38009 -0.024091 0)
(0.412464 -6.38531e-05 0)
(0.412483 -0.000187911 0)
(0.412536 -0.000307668 0)
(0.412507 -0.000422151 0)
(0.412284 -0.000534578 0)
(0.412285 -0.000664865 0)
(0.412506 -0.000840086 0)
(0.412504 -0.00106859 0)
(0.412291 -0.00132516 0)
(0.412213 -0.0015856 0)
(0.412257 -0.00184684 0)
(0.412218 -0.00210342 0)
(0.412069 -0.00235598 0)
(0.41191 -0.00261752 0)
(0.411749 -0.00290392 0)
(0.411532 -0.00322638 0)
(0.411239 -0.00359316 0)
(0.410872 -0.0040118 0)
(0.41042 -0.00448903 0)
(0.409849 -0.00503073 0)
(0.409125 -0.00564255 0)
(0.408201 -0.00633044 0)
(0.407015 -0.00710116 0)
(0.405481 -0.00796285 0)
(0.403482 -0.00892662 0)
(0.400847 -0.0100089 0)
(0.397372 -0.0112325 0)
(0.39265 -0.0126523 0)
(0.386475 -0.0142781 0)
(0.377235 -0.0165375 0)
(0.412464 -6.26283e-05 0)
(0.412482 -0.00018432 0)
(0.412531 -0.000301832 0)
(0.412499 -0.000413693 0)
(0.412268 -0.000522288 0)
(0.412267 -0.000647641 0)
(0.41248 -0.000818453 0)
(0.412468 -0.00104351 0)
(0.412231 -0.00129421 0)
(0.412152 -0.00154338 0)
(0.412174 -0.00179006 0)
(0.412111 -0.00202859 0)
(0.411939 -0.00225647 0)
(0.41175 -0.0024877 0)
(0.411556 -0.002739 0)
(0.411303 -0.00301977 0)
(0.410972 -0.00333582 0)
(0.410567 -0.00369167 0)
(0.410073 -0.00408973 0)
(0.409461 -0.00453 0)
(0.408694 -0.00501028 0)
(0.407728 -0.00552586 0)
(0.406501 -0.00606872 0)
(0.404928 -0.00662656 0)
(0.402893 -0.00718131 0)
(0.400224 -0.00770758 0)
(0.39672 -0.00816952 0)
(0.391966 -0.00852159 0)
(0.385759 -0.00868587 0)
(0.376422 -0.00862116 0)
(0.412463 -6.09077e-05 0)
(0.412481 -0.000179221 0)
(0.412527 -0.000293551 0)
(0.412493 -0.000402136 0)
(0.412256 -0.000506287 0)
(0.412252 -0.000626028 0)
(0.412456 -0.000790996 0)
(0.412438 -0.00101019 0)
(0.412185 -0.00125283 0)
(0.412098 -0.00148931 0)
(0.412104 -0.00171985 0)
(0.412022 -0.00193731 0)
(0.411829 -0.00213732 0)
(0.411614 -0.00233625 0)
(0.411391 -0.00255097 0)
(0.411109 -0.00278876 0)
(0.410749 -0.0030533 0)
(0.410315 -0.00334629 0)
(0.409794 -0.00366587 0)
(0.409159 -0.00400639 0)
(0.408376 -0.00435815 0)
(0.407404 -0.00470621 0)
(0.406185 -0.00502839 0)
(0.40464 -0.00529274 0)
(0.402662 -0.00545317 0)
(0.400095 -0.00544391 0)
(0.396748 -0.00517178 0)
(0.392243 -0.00449436 0)
(0.386391 -0.00324086 0)
(0.377684 -0.000932039 0)
(0.412463 -5.87976e-05 0)
(0.41248 -0.00017283 0)
(0.412523 -0.000283135 0)
(0.412487 -0.000387808 0)
(0.412242 -0.000487003 0)
(0.41224 -0.000599716 0)
(0.412436 -0.000757463 0)
(0.412412 -0.000970689 0)
(0.412141 -0.0012038 0)
(0.412054 -0.00142727 0)
(0.41205 -0.00164078 0)
(0.411953 -0.00183192 0)
(0.411743 -0.00200014 0)
(0.411507 -0.00216589 0)
(0.411259 -0.0023436 0)
(0.410952 -0.00253819 0)
(0.410569 -0.00275209 0)
(0.410115 -0.00298441 0)
(0.409581 -0.00322936 0)
(0.408941 -0.00347616 0)
(0.408166 -0.00370833 0)
(0.40722 -0.00390178 0)
(0.406055 -0.00402181 0)
(0.404601 -0.00401916 0)
(0.402767 -0.00382288 0)
(0.400423 -0.00333259 0)
(0.397407 -0.00240442 0)
(0.393417 -0.000812859 0)
(0.388274 0.00168301 0)
(0.38083 0.00593669 0)
(0.412463 -5.6421e-05 0)
(0.412479 -0.000165356 0)
(0.41252 -0.000271008 0)
(0.412485 -0.00037169 0)
(0.412238 -0.000466306 0)
(0.412233 -0.000570808 0)
(0.412425 -0.000717999 0)
(0.412393 -0.000921819 0)
(0.412094 -0.00114735 0)
(0.412026 -0.001364 0)
(0.412014 -0.00155881 0)
(0.411902 -0.00171626 0)
(0.411678 -0.00184846 0)
(0.411423 -0.00197881 0)
(0.411154 -0.00211821 0)
(0.410828 -0.0022707 0)
(0.410428 -0.00243737 0)
(0.409963 -0.00261415 0)
(0.409427 -0.00279157 0)
(0.408799 -0.00295463 0)
(0.408053 -0.00308131 0)
(0.407163 -0.00314015 0)
(0.406089 -0.00308654 0)
(0.404779 -0.00285718 0)
(0.403163 -0.00236248 0)
(0.401145 -0.00147295 0)
(0.398603 -9.0056e-06 0)
(0.395331 0.00231236 0)
(0.391176 0.00577919 0)
(0.385497 0.0115054 0)
(0.412463 -5.39529e-05 0)
(0.412478 -0.000157362 0)
(0.412522 -0.000258406 0)
(0.412484 -0.000353929 0)
(0.412231 -0.000443991 0)
(0.412229 -0.000540593 0)
(0.412415 -0.000673335 0)
(0.41238 -0.000862919 0)
(0.412075 -0.00108361 0)
(0.412023 -0.00129776 0)
(0.411987 -0.00147162 0)
(0.411872 -0.00159404 0)
(0.411636 -0.00169005 0)
(0.411361 -0.00178284 0)
(0.411073 -0.00188172 0)
(0.410731 -0.00199207 0)
(0.410321 -0.00211416 0)
(0.409853 -0.00224106 0)
(0.409326 -0.00236008 0)
(0.408721 -0.00245263 0)
(0.408022 -0.00249242 0)
(0.40721 -0.00244274 0)
(0.406258 -0.00225205 0)
(0.405133 -0.00184809 0)
(0.40379 -0.0011279 0)
(0.402173 5.4471e-05 0)
(0.400205 0.00189967 0)
(0.397795 0.00472312 0)
(0.394814 0.00885075 0)
(0.391186 0.0154711 0)
(0.412463 -5.1734e-05 0)
(0.412478 -0.000149987 0)
(0.412526 -0.00024562 0)
(0.41249 -0.000337739 0)
(0.412266 -0.00042225 0)
(0.412226 -0.000507412 0)
(0.412393 -0.00063397 0)
(0.412362 -0.000816567 0)
(0.412059 -0.00102604 0)
(0.412003 -0.00122158 0)
(0.411965 -0.00136274 0)
(0.411858 -0.00144736 0)
(0.411618 -0.00150556 0)
(0.411329 -0.00156345 0)
(0.411025 -0.00163021 0)
(0.410669 -0.00170749 0)
(0.410249 -0.0017925 0)
(0.409781 -0.00187727 0)
(0.409268 -0.00194807 0)
(0.408696 -0.00198439 0)
(0.408055 -0.00195757 0)
(0.407336 -0.00182821 0)
(0.406525 -0.00154148 0)
(0.405611 -0.00102183 0)
(0.404574 -0.000159605 0)
(0.4034 0.00119421 0)
(0.402061 0.00325042 0)
(0.400585 0.00632984 0)
(0.39886 0.0107675 0)
(0.397356 0.0176766 0)
(0.412464 -4.97122e-05 0)
(0.412476 -0.000144125 0)
(0.412531 -0.000239693 0)
(0.412498 -0.000321338 0)
(0.412214 -0.000382053 0)
(0.412205 -0.000442223 0)
(0.412415 -0.000567484 0)
(0.412372 -0.000767957 0)
(0.412084 -0.000999353 0)
(0.412008 -0.0011977 0)
(0.411965 -0.00130789 0)
(0.411851 -0.00135026 0)
(0.411606 -0.00135158 0)
(0.411306 -0.00134691 0)
(0.410991 -0.00136244 0)
(0.410626 -0.00140153 0)
(0.410203 -0.00145418 0)
(0.409741 -0.00150741 0)
(0.409246 -0.001545 0)
(0.408711 -0.00154462 0)
(0.408134 -0.00147641 0)
(0.407515 -0.00130063 0)
(0.406853 -0.000963169 0)
(0.406157 -0.000388051 0)
(0.405435 0.000526746 0)
(0.404714 0.00192892 0)
(0.404015 0.00402422 0)
(0.403467 0.0071087 0)
(0.402981 0.0115105 0)
(0.40349 0.0181458 0)
(0.412464 -4.91163e-05 0)
(0.412481 -0.000139074 0)
(0.412545 -0.000227601 0)
(0.41253 -0.0003138 0)
(0.412344 -0.000382189 0)
(0.412207 -0.000437139 0)
(0.412278 -0.000515169 0)
(0.412284 -0.000647796 0)
(0.412106 -0.000838421 0)
(0.411997 -0.00101681 0)
(0.411947 -0.00111856 0)
(0.411842 -0.00115364 0)
(0.411608 -0.00114789 0)
(0.411309 -0.00112561 0)
(0.410982 -0.00111433 0)
(0.410605 -0.00112394 0)
(0.410175 -0.00114714 0)
(0.409717 -0.00117198 0)
(0.409241 -0.00118264 0)
(0.408746 -0.001157 0)
(0.408233 -0.00106599 0)
(0.407714 -0.000872051 0)
(0.4072 -0.000525175 0)
(0.406716 4.42056e-05 0)
(0.406296 0.00092926 0)
(0.406006 0.00226549 0)
(0.405909 0.0042358 0)
(0.40622 0.00709182 0)
(0.406874 0.011147 0)
(0.40915 0.0170324 0)
(0.412466 -5.06697e-05 0)
(0.412482 -0.000137955 0)
(0.412542 -0.00025621 0)
(0.412551 -0.000284564 0)
(0.412233 -0.000235199 0)
(0.412197 -0.000262722 0)
(0.412357 -0.000552106 0)
(0.412276 -0.000872882 0)
(0.412014 -0.00105004 0)
(0.411824 -0.0011252 0)
(0.411797 -0.00114817 0)
(0.411722 -0.00110884 0)
(0.411525 -0.000985973 0)
(0.411267 -0.000872433 0)
(0.410967 -0.000805962 0)
(0.410599 -0.000782429 0)
(0.410172 -0.000785951 0)
(0.409719 -0.000801267 0)
(0.409259 -0.000808368 0)
(0.408798 -0.000783108 0)
(0.408344 -0.000697973 0)
(0.407914 -0.000520244 0)
(0.407532 -0.000206824 0)
(0.407237 0.000296118 0)
(0.407087 0.00107306 0)
(0.407178 0.00223932 0)
(0.407606 0.00394328 0)
(0.408651 0.00637486 0)
(0.410282 0.0098225 0)
(0.413986 0.014588 0)
(0.412471 -6.22968e-05 0)
(0.412509 -0.000141354 0)
(0.412611 -0.000241988 0)
(0.412602 -0.00032805 0)
(0.412556 -0.000318512 0)
(0.412316 -0.000209861 0)
(0.411944 -0.000189042 0)
(0.411493 -0.000325998 0)
(0.411328 -0.000530678 0)
(0.411411 -0.000739736 0)
(0.41171 -0.000919008 0)
(0.411854 -0.000968175 0)
(0.411715 -0.000865954 0)
(0.411411 -0.000712234 0)
(0.411041 -0.000597504 0)
(0.410621 -0.000534095 0)
(0.410164 -0.000505286 0)
(0.409702 -0.000500515 0)
(0.409254 -0.000500407 0)
(0.408826 -0.000478546 0)
(0.408427 -0.000408131 0)
(0.408077 -0.000262568 0)
(0.407807 -7.22043e-06 0)
(0.407668 0.000390057 0)
(0.407742 0.000991818 0)
(0.408144 0.00189463 0)
(0.408993 0.00321001 0)
(0.410608 0.00506069 0)
(0.413003 0.00768046 0)
(0.417774 0.0110231 0)
(0.412479 -9.12896e-05 0)
(0.412543 -0.000192533 0)
(0.412622 -0.000308828 0)
(0.412565 -0.000317469 0)
(0.412157 -0.000119384 0)
(0.411743 0.000192202 0)
(0.411778 2.95939e-05 0)
(0.411993 -0.000670658 0)
(0.412142 -0.00121058 0)
(0.412298 -0.00136833 0)
(0.412379 -0.00134659 0)
(0.412253 -0.00109605 0)
(0.411916 -0.000748504 0)
(0.411465 -0.000429736 0)
(0.410996 -0.000220127 0)
(0.410536 -0.000123469 0)
(0.410082 -0.000101738 0)
(0.40964 -0.000114674 0)
(0.409224 -0.000137832 0)
(0.408842 -0.00014824 0)
(0.408504 -0.000124216 0)
(0.408237 -4.3992e-05 0)
(0.408089 0.000112358 0)
(0.408128 0.000373955 0)
(0.408311 0.000778399 0)
(0.408905 0.00137646 0)
(0.410029 0.00223801 0)
(0.412001 0.00342338 0)
(0.414905 0.00512769 0)
(0.420249 0.00679276 0)
(0.412308 -5.71867e-05 0)
(0.41225 -0.000104762 0)
(0.411991 -0.000208464 0)
(0.411517 -0.000207363 0)
(0.411253 0.00017869 0)
(0.411515 0.000325202 0)
(0.411877 0.000123615 0)
(0.411522 -0.000625353 0)
(0.410264 -0.000993704 0)
(0.408633 -0.00106738 0)
(0.407066 -0.000919684 0)
(0.405757 -0.000577148 0)
(0.404845 -0.000219516 0)
(0.404371 3.23447e-05 0)
(0.40423 0.000153943 0)
(0.404248 0.000186302 0)
(0.404304 0.00018285 0)
(0.40434 0.000138652 0)
(0.404333 8.7177e-05 0)
(0.404285 4.76386e-05 0)
(0.404223 3.54444e-05 0)
(0.40419 4.86333e-05 0)
(0.404253 9.06991e-05 0)
(0.404507 0.000181511 0)
(0.405076 0.000335258 0)
(0.406113 0.000558464 0)
(0.407816 0.000875703 0)
(0.410454 0.00129335 0)
(0.414338 0.00195799 0)
(0.421357 0.00220724 0)
(0.452551 -0.00411487 -5.87027e-20)
(0.455085 -0.0062419 -5.83573e-20)
(0.457233 -0.00881393 -8.33051e-19)
(0.458928 -0.0116361 -2.39517e-19)
(0.460412 -0.0146548 2.43297e-19)
(0.461774 -0.0178569 0)
(0.463022 -0.0212562 0)
(0.464176 -0.024879 2.48616e-19)
(0.465271 -0.0287518 -2.53061e-19)
(0.466334 -0.0329005 -5.0762e-19)
(0.46738 -0.0373548 5.17129e-19)
(0.46841 -0.042153 0)
(0.469425 -0.0473437 -5.24121e-19)
(0.470422 -0.0529878 5.3462e-19)
(0.471401 -0.0591595 0)
(0.47236 -0.0659484 1.07661e-18)
(0.473293 -0.0734642 5.44744e-19)
(0.474193 -0.081843 5.36109e-19)
(0.475051 -0.0912558 5.51561e-19)
(0.475846 -0.101919 5.3637e-19)
(0.476551 -0.114108 -5.52342e-19)
(0.477119 -0.128171 1.65716e-18)
(0.47746 -0.144565 0)
(0.477484 -0.163863 -1.04953e-18)
(0.476888 -0.186914 5.0471e-19)
(0.475684 -0.214617 -9.88957e-19)
(0.472618 -0.248748 -1.3172e-18)
(0.468269 -0.291831 0)
(0.460651 -0.338226 0)
(0.440957 -0.436338 -1.30803e-20)
(0.454606 -0.00931191 -9.65726e-19)
(0.456202 -0.0116475 0)
(0.457465 -0.0144165 0)
(0.458473 -0.0173795 -9.93457e-19)
(0.459401 -0.020493 1.00455e-18)
(0.46031 -0.0237818 1.01604e-18)
(0.461193 -0.0272802 -2.54722e-19)
(0.462047 -0.0310141 2.59343e-19)
(0.462879 -0.0350042 7.9371e-19)
(0.463689 -0.0392741 1.33454e-18)
(0.464465 -0.0438564 -5.35124e-19)
(0.465197 -0.0487945 1.10232e-18)
(0.465874 -0.0541423 5.53207e-19)
(0.46649 -0.0599639 5.74143e-19)
(0.467036 -0.0663353 5.68649e-19)
(0.4675 -0.0733465 1.16465e-18)
(0.467863 -0.0811072 0)
(0.468102 -0.0897535 -5.8575e-19)
(0.468184 -0.0994547 -6.16153e-19)
(0.468063 -0.110422 0)
(0.467671 -0.122921 6.02181e-19)
(0.466916 -0.137281 6.41692e-19)
(0.465645 -0.15393 -1.26914e-18)
(0.463684 -0.173395 0)
(0.460634 -0.196456 5.88671e-19)
(0.456386 -0.223867 6.46032e-19)
(0.44938 -0.257419 -1.21513e-18)
(0.440735 -0.298059 4.70284e-19)
(0.42597 -0.344922 -4.92933e-19)
(0.401415 -0.431741 1.22028e-19)
(0.453456 -0.0143203 9.83611e-19)
(0.454462 -0.0166134 0)
(0.455296 -0.0193449 -1.25516e-19)
(0.456086 -0.0223029 2.16733e-18)
(0.456874 -0.0254421 -7.69354e-19)
(0.457644 -0.0287771 -1.56082e-18)
(0.458372 -0.0323293 1.33161e-18)
(0.459045 -0.0361162 -2.67491e-19)
(0.459657 -0.0401583 -8.07379e-19)
(0.460202 -0.0444857 -2.55256e-19)
(0.46067 -0.0491381 2.80896e-19)
(0.461052 -0.0541632 -1.69552e-18)
(0.461343 -0.0596157 1.15691e-18)
(0.46153 -0.0655583 -1.75239e-18)
(0.461596 -0.0720645 0)
(0.461518 -0.0792225 -1.20009e-18)
(0.461262 -0.0871404 0)
(0.460787 -0.0959516 0)
(0.46004 -0.105821 1.25811e-18)
(0.458948 -0.11695 0)
(0.457412 -0.129589 0)
(0.455291 -0.144046 -1.31154e-18)
(0.452384 -0.160715 1.3251e-18)
(0.448442 -0.180078 0)
(0.442991 -0.202834 0)
(0.435796 -0.229636 -1.32519e-18)
(0.425133 -0.262143 4.74441e-19)
(0.412341 -0.300439 -3.82535e-19)
(0.390738 -0.346893 -3.35916e-19)
(0.361934 -0.422711 0)
(0.451911 -0.0194386 -3.1558e-20)
(0.452631 -0.0217954 -3.18617e-20)
(0.4532 -0.0245747 9.81754e-19)
(0.453806 -0.0275779 -2.10779e-18)
(0.454404 -0.0307603 1.33784e-19)
(0.454933 -0.0341349 2.70391e-19)
(0.455376 -0.037726 -2.56572e-19)
(0.455737 -0.0415568 0)
(0.456017 -0.0456542 1.43187e-18)
(0.456207 -0.0500518 -2.60237e-18)
(0.4563 -0.0547893 1.19085e-18)
(0.456282 -0.0599117 5.97949e-19)
(0.456137 -0.0654703 -1.84985e-18)
(0.455842 -0.0715249 0)
(0.455368 -0.0781471 0)
(0.454676 -0.085424 1.32179e-18)
(0.453722 -0.0934613 1.3532e-18)
(0.452449 -0.102388 6.7706e-19)
(0.450783 -0.112359 -2.55085e-21)
(0.448626 -0.123562 -7.12666e-19)
(0.445844 -0.136228 0)
(0.442258 -0.150634 0)
(0.437618 -0.167134 -8.29408e-19)
(0.431614 -0.186153 -2.43721e-18)
(0.423713 -0.208296 0)
(0.413568 -0.234105 -9.3594e-19)
(0.39936 -0.265036 1.56217e-18)
(0.382553 -0.300657 -3.15967e-18)
(0.35456 -0.344988 4.44521e-19)
(0.322887 -0.409697 0)
(0.449698 -0.0244676 0)
(0.450124 -0.0268597 1.06705e-18)
(0.450381 -0.0296521 -9.34833e-19)
(0.45072 -0.0326689 9.48405e-19)
(0.451057 -0.0358745 1.38598e-19)
(0.451298 -0.0392825 -1.41266e-19)
(0.451433 -0.0429166 -1.13785e-18)
(0.451474 -0.0467995 0)
(0.451418 -0.050957 2.76944e-20)
(0.45125 -0.0554204 1.20093e-18)
(0.450952 -0.060227 -1.53424e-18)
(0.450502 -0.0654195 1.60265e-18)
(0.449876 -0.0710479 1.59976e-18)
(0.449043 -0.0771709 -3.31314e-19)
(0.447964 -0.0838587 2.06198e-18)
(0.446593 -0.0911952 -1.33833e-18)
(0.444874 -0.0992809 -1.43417e-18)
(0.442733 -0.108236 -7.3494e-19)
(0.440078 -0.118202 0)
(0.436785 -0.129349 0)
(0.432692 -0.141881 0)
(0.427585 -0.156044 8.36609e-19)
(0.421175 -0.172142 2.61173e-18)
(0.413102 -0.19054 8.33714e-19)
(0.402795 -0.211742 1.88288e-18)
(0.389806 -0.236178 -1.1919e-18)
(0.372309 -0.265066 2.19134e-18)
(0.351725 -0.297649 -3.05226e-19)
(0.318189 -0.338679 1.90352e-18)
(0.284736 -0.392726 3.19999e-18)
(0.446791 -0.0293745 -1.0893e-18)
(0.446927 -0.031806 -1.09076e-18)
(0.446868 -0.0346234 -1.13088e-18)
(0.446929 -0.0376665 0)
(0.446993 -0.0409029 0)
(0.446936 -0.0443444 -1.19527e-18)
(0.446746 -0.0480127 0)
(0.446439 -0.0519301 9.38708e-19)
(0.446009 -0.0561221 -2.19984e-18)
(0.445434 -0.0606195 1.30347e-18)
(0.444688 -0.0654585 1.00682e-18)
(0.443746 -0.0706806 -2.69594e-18)
(0.442578 -0.0763336 -4.84196e-22)
(0.441145 -0.0824734 -1.09242e-18)
(0.439402 -0.0891662 5.80299e-20)
(0.437293 -0.0964899 -1.47346e-18)
(0.434748 -0.104537 -7.1172e-20)
(0.43168 -0.113415 1.64667e-18)
(0.427976 -0.12325 -8.76285e-19)
(0.423492 -0.134191 -8.61324e-19)
(0.41804 -0.146411 1.85922e-18)
(0.411379 -0.160119 0)
(0.403191 -0.175569 -1.90307e-18)
(0.39308 -0.193058 0)
(0.380451 -0.212984 -2.30002e-18)
(0.364774 -0.235669 2.2259e-18)
(0.344286 -0.262063 2.77537e-19)
(0.320252 -0.29122 2.53283e-18)
(0.282179 -0.32795 -3.43136e-18)
(0.247881 -0.371884 1.36282e-18)
(0.443119 -0.0340699 1.07896e-18)
(0.44295 -0.0365354 -3.58742e-20)
(0.442556 -0.0393675 1.37756e-18)
(0.442311 -0.0424203 4.54721e-19)
(0.442069 -0.0456651 0)
(0.441678 -0.0491139 1.22723e-18)
(0.441125 -0.0527881 9.61514e-19)
(0.440429 -0.0567098 -1.60614e-18)
(0.439581 -0.0609035 6.35508e-19)
(0.438555 -0.0653982 -6.49797e-19)
(0.437318 -0.0702277 -1.37807e-18)
(0.435841 -0.0754303 1.41524e-18)
(0.434087 -0.0810501 -3.85003e-19)
(0.432011 -0.0871387 1.11777e-18)
(0.429559 -0.0937566 -3.43208e-19)
(0.426665 -0.100974 -4.07313e-19)
(0.423249 -0.108874 2.5252e-18)
(0.419209 -0.117548 -2.62451e-18)
(0.414418 -0.127105 1.78895e-18)
(0.408713 -0.137666 5.08418e-19)
(0.401887 -0.149376 -1.45443e-18)
(0.393681 -0.162403 1.10189e-18)
(0.383756 -0.176946 0)
(0.371693 -0.193235 -6.04213e-19)
(0.35689 -0.211559 3.09869e-18)
(0.338759 -0.232134 0)
(0.315657 -0.255633 -5.21459e-18)
(0.288611 -0.281034 8.24357e-19)
(0.247159 -0.312738 0)
(0.212759 -0.34732 -3.89167e-18)
(0.438607 -0.0384267 -5.9402e-19)
(0.438113 -0.0409116 -7.51075e-20)
(0.437364 -0.0437383 -4.6891e-19)
(0.436789 -0.0467774 -6.98282e-19)
(0.436214 -0.0500044 1.60435e-19)
(0.435462 -0.0534315 -1.6394e-19)