/*--------------------------------*- C++ -*----------------------------------*\
  =========                 |
  \\      /  F ield         | OpenFOAM: The Open Source CFD Toolbox
   \\    /   O peration     | Website:  https://openfoam.org
    \\  /    A nd           | Version:  11
     \\/     M anipulation  |
\*---------------------------------------------------------------------------*/
FoamFile
{
    format      ascii;
    class       volVectorField;
    location    "0.4";
    object      U;
}
// * * * * * * * * * * * * * * * * * * * * * * * * * * * * * * * * * * * * * //

dimensions      [0 1 -1 0 0 0 0];

internalField   nonuniform List<vector> 
12600
(
(0.399731 7.88982e-05 0)
(0.399595 0.000164586 0)
(0.399125 0.000218938 0)
(0.398563 8.60218e-06 0)
(0.398755 -0.000378267 0)
(0.399697 -0.000318956 0)
(0.399967 0.000369391 0)
(0.398683 0.000907708 0)
(0.396688 0.000895662 0)
(0.395115 0.000627133 0)
(0.394322 0.000152032 0)
(0.394261 -0.000223999 0)
(0.394788 -0.000391681 0)
(0.395737 -0.000440322 0)
(0.396905 -0.000442447 0)
(0.398161 -0.000423029 0)
(0.399493 -0.000424586 0)
(0.400955 -0.000449898 0)
(0.4026 -0.000492044 0)
(0.404512 -0.00056068 0)
(0.406801 -0.000663422 0)
(0.409585 -0.000803802 0)
(0.41299 -0.000984557 0)
(0.417163 -0.0012111 0)
(0.422296 -0.00149225 0)
(0.428612 -0.00183714 0)
(0.43639 -0.0022692 0)
(0.445942 -0.00273915 0)
(0.457585 -0.0035878 0)
(0.474148 -0.00306673 0)
(0.400021 0.000122614 0)
(0.400234 0.000263188 0)
(0.400457 0.000261422 0)
(0.400295 0.000103105 0)
(0.399654 -0.00032107 0)
(0.399504 -0.000330747 0)
(0.400116 0.000230086 0)
(0.401028 0.00082034 0)
(0.401665 0.000896566 0)
(0.402219 0.000720097 0)
(0.402599 0.000338736 0)
(0.402755 -7.49968e-05 0)
(0.402905 -0.000438565 0)
(0.403216 -0.000666905 0)
(0.403708 -0.00078264 0)
(0.404372 -0.000868558 0)
(0.405188 -0.000970857 0)
(0.406155 -0.00111059 0)
(0.40751 -0.00130651 0)
(0.409208 -0.00156896 0)
(0.4113 -0.00190412 0)
(0.413867 -0.00232314 0)
(0.417011 -0.00284383 0)
(0.420865 -0.00349062 0)
(0.425598 -0.00429264 0)
(0.431425 -0.00528282 0)
(0.438586 -0.0065067 0)
(0.447457 -0.0079422 0)
(0.458205 -0.00996714 0)
(0.472143 -0.0106607 0)
(0.40003 6.3156e-05 0)
(0.40018 0.00012086 0)
(0.400436 0.000179641 0)
(0.400452 0.000160539 0)
(0.400272 -1.3489e-05 0)
(0.399915 -0.00013021 0)
(0.399685 -8.47703e-05 0)
(0.399703 -7.12717e-06 0)
(0.400183 1.08859e-05 0)
(0.401126 1.60213e-05 0)
(0.402074 -6.18955e-05 0)
(0.402593 -0.000271372 0)
(0.402849 -0.000561627 0)
(0.403161 -0.000825028 0)
(0.403641 -0.001029 0)
(0.40429 -0.00121138 0)
(0.405131 -0.00141127 0)
(0.406205 -0.00167704 0)
(0.407535 -0.0020411 0)
(0.40916 -0.00249938 0)
(0.411155 -0.00305767 0)
(0.413616 -0.00374112 0)
(0.416649 -0.00458519 0)
(0.420386 -0.00563137 0)
(0.424989 -0.00692767 0)
(0.430671 -0.00852811 0)
(0.43765 -0.0105057 0)
(0.446364 -0.0128684 0)
(0.456792 -0.0159983 0)
(0.47088 -0.0184059 0)
(0.400022 3.15434e-05 0)
(0.400129 8.20666e-05 0)
(0.400344 0.000134005 0)
(0.400386 2.32825e-05 0)
(0.400088 -0.000130235 0)
(0.400095 1.28307e-05 0)
(0.400595 0.000279617 0)
(0.40075 0.000267648 0)
(0.400808 0.000101849 0)
(0.401087 -0.000114735 0)
(0.401591 -0.000323155 0)
(0.402089 -0.000554927 0)
(0.402523 -0.000821761 0)
(0.402987 -0.00108443 0)
(0.403528 -0.00133241 0)
(0.404173 -0.00159695 0)
(0.40498 -0.00190978 0)
(0.406007 -0.00230286 0)
(0.407287 -0.00280075 0)
(0.408856 -0.00341681 0)
(0.410781 -0.00417595 0)
(0.413152 -0.00511578 0)
(0.416072 -0.00628097 0)
(0.419671 -0.00772423 0)
(0.424105 -0.00951014 0)
(0.429584 -0.011714 0)
(0.436313 -0.0144396 0)
(0.444744 -0.0177246 0)
(0.454809 -0.0219958 0)
(0.468561 -0.0259198 0)
(0.400019 1.42724e-05 0)
(0.400117 3.56428e-05 0)
(0.400337 4.56321e-05 0)
(0.400305 3.94821e-05 0)
(0.400001 8.09253e-06 0)
(0.400136 -6.41798e-05 0)
(0.400778 -0.000112943 0)
(0.400909 -0.000139485 0)
(0.400975 -0.000209938 0)
(0.401255 -0.000334855 0)
(0.40169 -0.000516497 0)
(0.402068 -0.000757227 0)
(0.402409 -0.00103609 0)
(0.402833 -0.0013237 0)
(0.403362 -0.00162153 0)
(0.403993 -0.00195933 0)
(0.40477 -0.00236624 0)
(0.405749 -0.00287006 0)
(0.406965 -0.00349944 0)
(0.408456 -0.00428028 0)
(0.410287 -0.0052441 0)
(0.41254 -0.00643403 0)
(0.415316 -0.00790501 0)
(0.418737 -0.00972465 0)
(0.42295 -0.011976 0)
(0.428159 -0.0147569 0)
(0.434558 -0.018198 0)
(0.442602 -0.0223811 0)
(0.45218 -0.0277314 0)
(0.465463 -0.0331671 0)
(0.400016 -6.15287e-08 0)
(0.400109 -2.26085e-06 0)
(0.4003 2.29985e-06 0)
(0.400285 -2.07266e-05 0)
(0.400085 -8.48826e-05 0)
(0.400255 -0.000127319 0)
(0.400804 -0.000106781 0)
(0.400854 -0.000128241 0)
(0.400924 -0.000224206 0)
(0.401196 -0.000418895 0)
(0.401631 -0.00066257 0)
(0.40198 -0.000940831 0)
(0.402279 -0.00124399 0)
(0.402671 -0.00156268 0)
(0.403175 -0.00190852 0)
(0.403775 -0.00231268 0)
(0.404509 -0.00280546 0)
(0.405428 -0.00341451 0)
(0.406568 -0.00417008 0)
(0.407966 -0.00510423 0)
(0.409682 -0.00625603 0)
(0.411793 -0.00767773 0)
(0.414391 -0.00943557 0)
(0.417592 -0.0116106 0)
(0.421533 -0.0143023 0)
(0.42641 -0.0176304 0)
(0.4324 -0.0217516 0)
(0.439955 -0.0267936 0)
(0.44893 -0.0331757 0)
(0.461591 -0.0400917 0)
(0.400015 -1.02439e-05 0)
(0.400098 -3.05349e-05 0)
(0.400283 -5.19919e-05 0)
(0.400189 -7.59991e-05 0)
(0.400029 -0.000105907 0)
(0.400255 -0.000159904 0)
(0.400836 -0.000218349 0)
(0.400843 -0.000294765 0)
(0.400867 -0.000425517 0)
(0.401146 -0.000605695 0)
(0.401557 -0.000836264 0)
(0.401863 -0.00111564 0)
(0.402126 -0.00143048 0)
(0.402489 -0.00177708 0)
(0.402961 -0.00217107 0)
(0.40352 -0.00264059 0)
(0.404201 -0.00321404 0)
(0.40505 -0.00391983 0)
(0.406102 -0.00479132 0)
(0.407391 -0.00586712 0)
(0.408972 -0.00719399 0)
(0.410916 -0.00883188 0)
(0.413307 -0.0108563 0)
(0.41625 -0.0133606 0)
(0.419873 -0.0164604 0)
(0.424356 -0.0202966 0)
(0.429861 -0.0250515 0)
(0.43683 -0.0308997 0)
(0.445084 -0.0382548 0)
(0.456954 -0.0466077 0)
(0.400013 -1.83888e-05 0)
(0.400097 -5.55269e-05 0)
(0.400266 -8.52346e-05 0)
(0.400172 -0.000115415 0)
(0.400005 -0.000166511 0)
(0.400232 -0.000244029 0)
(0.400748 -0.000313691 0)
(0.400819 -0.000391423 0)
(0.400805 -0.000522553 0)
(0.40106 -0.000714252 0)
(0.40145 -0.000963276 0)
(0.401727 -0.00126104 0)
(0.401955 -0.00159783 0)
(0.402285 -0.00197733 0)
(0.40272 -0.0024174 0)
(0.403231 -0.0029451 0)
(0.403849 -0.00358984 0)
(0.40462 -0.00438253 0)
(0.405573 -0.00535961 0)
(0.406738 -0.00656463 0)
(0.408167 -0.00805061 0)
(0.409921 -0.00988446 0)
(0.412077 -0.0121504 0)
(0.414728 -0.0149531 0)
(0.417988 -0.0184233 0)
(0.422022 -0.0227216 0)
(0.426971 -0.0280549 0)
(0.433256 -0.0346443 0)
(0.440676 -0.0429002 0)
(0.451567 -0.0526258 0)
(0.400012 -2.55765e-05 0)
(0.400094 -7.5857e-05 0)
(0.400251 -0.000118889 0)
(0.400145 -0.000162687 0)
(0.399971 -0.000222374 0)
(0.4002 -0.000300093 0)
(0.400732 -0.000382666 0)
(0.400747 -0.000485166 0)
(0.400712 -0.000635723 0)
(0.400953 -0.000839279 0)
(0.40132 -0.00109601 0)
(0.401571 -0.00140149 0)
(0.401772 -0.00175264 0)
(0.402069 -0.00215868 0)
(0.402461 -0.00263863 0)
(0.402916 -0.00321819 0)
(0.403464 -0.00392672 0)
(0.404145 -0.0047969 0)
(0.404987 -0.005868 0)
(0.406016 -0.00718787 0)
(0.407276 -0.00881503 0)
(0.408821 -0.0108226 0)
(0.410716 -0.0133025 0)
(0.413044 -0.0163692 0)
(0.415903 -0.0201669 0)
(0.419435 -0.0248742 0)
(0.423763 -0.0307208 0)
(0.429273 -0.0379729 0)
(0.435747 -0.0470397 0)
(0.445461 -0.058045 0)
(0.400012 -3.16587e-05 0)
(0.400092 -9.35206e-05 0)
(0.400238 -0.00014805 0)
(0.40013 -0.000200915 0)
(0.399943 -0.000267861 0)
(0.400163 -0.000355697 0)
(0.400654 -0.000455433 0)
(0.40069 -0.000575756 0)
(0.400628 -0.000737963 0)
(0.400846 -0.000946931 0)
(0.401191 -0.00120834 0)
(0.40141 -0.00152239 0)
(0.401576 -0.0018889 0)
(0.401834 -0.00231935 0)
(0.402179 -0.00283381 0)
(0.402574 -0.00345773 0)
(0.403044 -0.00422098 0)
(0.403629 -0.00515798 0)
(0.404351 -0.00631049 0)
(0.405233 -0.0077298 0)
(0.406309 -0.00947885 0)
(0.407628 -0.0116359 0)
(0.409242 -0.0142993 0)
(0.41122 -0.0175921 0)
(0.413642 -0.0216695 0)
(0.416628 -0.0267259 0)
(0.420276 -0.0330115 0)
(0.424926 -0.0408339 0)
(0.430354 -0.050603 0)
(0.438689 -0.0627587 0)
(0.400011 -3.69605e-05 0)
(0.40009 -0.000108764 0)
(0.400227 -0.000173205 0)
(0.400113 -0.000235452 0)
(0.399913 -0.000310156 0)
(0.400126 -0.000404664 0)
(0.40061 -0.000517654 0)
(0.400616 -0.000654641 0)
(0.400532 -0.00082748 0)
(0.400731 -0.00104262 0)
(0.401051 -0.00130858 0)
(0.40124 -0.00162839 0)
(0.401372 -0.00200636 0)
(0.401589 -0.00245684 0)
(0.401881 -0.00300002 0)
(0.40221 -0.00366076 0)
(0.402597 -0.00446944 0)
(0.403079 -0.00546209 0)
(0.403673 -0.0066825 0)
(0.404397 -0.00818463 0)
(0.405279 -0.0100348 0)
(0.406357 -0.0123154 0)
(0.407672 -0.0151297 0)
(0.409277 -0.0186075 0)
(0.411234 -0.0229127 0)
(0.413637 -0.0282525 0)
(0.416556 -0.0348939 0)
(0.420272 -0.0431806 0)
(0.424562 -0.0535234 0)
(0.431325 -0.0666601 0)
(0.40001 -4.1492e-05 0)
(0.400088 -0.000121668 0)
(0.400217 -0.000194548 0)
(0.400098 -0.00026501 0)
(0.399885 -0.000346517 0)
(0.40009 -0.000448056 0)
(0.400551 -0.000572209 0)
(0.400551 -0.00072304 0)
(0.400443 -0.000906411 0)
(0.400615 -0.00112647 0)
(0.400908 -0.00139426 0)
(0.401065 -0.00171734 0)
(0.401161 -0.00210383 0)
(0.401332 -0.00256959 0)
(0.401569 -0.00313489 0)
(0.401827 -0.00382443 0)
(0.402126 -0.00466899 0)
(0.4025 -0.00570572 0)
(0.402961 -0.00697992 0)
(0.403519 -0.00854742 0)
(0.404198 -0.0104769 0)
(0.405023 -0.0128537 0)
(0.406026 -0.0157846 0)
(0.407241 -0.0194038 0)
(0.408712 -0.0238817 0)
(0.410502 -0.0294342 0)
(0.412653 -0.0363406 0)
(0.415376 -0.0449733 0)
(0.418455 -0.0557416 0)
(0.423469 -0.0696482 0)
(0.40001 -4.53078e-05 0)
(0.400087 -0.000132618 0)
(0.400207 -0.000212674 0)
(0.400085 -0.000290087 0)
(0.399859 -0.000377484 0)
(0.400055 -0.000484969 0)
(0.400501 -0.000618622 0)
(0.400483 -0.000781378 0)
(0.400351 -0.000973265 0)
(0.400499 -0.00119635 0)
(0.400764 -0.00146421 0)
(0.400888 -0.00178845 0)
(0.400945 -0.00217997 0)
(0.401069 -0.00265579 0)
(0.401246 -0.00323652 0)
(0.401431 -0.00394681 0)
(0.401638 -0.0048175 0)
(0.401899 -0.0058864 0)
(0.402221 -0.00719978 0)
(0.40261 -0.00881455 0)
(0.403078 -0.0108008 0)
(0.403644 -0.0132456 0)
(0.404324 -0.0162575 0)
(0.405138 -0.0199731 0)
(0.406108 -0.0245659 0)
(0.407266 -0.0302567 0)
(0.408624 -0.0373315 0)
(0.410311 -0.0461814 0)
(0.412126 -0.0572101 0)
(0.415252 -0.0716362 0)
(0.400009 -4.84731e-05 0)
(0.400086 -0.000141734 0)
(0.400198 -0.000227676 0)
(0.400072 -0.000310737 0)
(0.399834 -0.00040295 0)
(0.400022 -0.000515745 0)
(0.400449 -0.000657187 0)
(0.400419 -0.000829096 0)
(0.400263 -0.00102782 0)
(0.400386 -0.00125273 0)
(0.400622 -0.00151837 0)
(0.400711 -0.00184059 0)
(0.400726 -0.00223326 0)
(0.4008 -0.00271403 0)
(0.400916 -0.00330358 0)
(0.401024 -0.00402642 0)
(0.401138 -0.0049133 0)
(0.401284 -0.00600225 0)
(0.401464 -0.0073399 0)
(0.401679 -0.00898351 0)
(0.401933 -0.0110036 0)
(0.402234 -0.0134875 0)
(0.402587 -0.0165442 0)
(0.402994 -0.0203102 0)
(0.403456 -0.0249592 0)
(0.403973 -0.0307119 0)
(0.404527 -0.0378547 0)
(0.405157 -0.0467861 0)
(0.405682 -0.0578972 0)
(0.406828 -0.0725596 0)
(0.400009 -5.09949e-05 0)
(0.400084 -0.000149065 0)
(0.40019 -0.00023982 0)
(0.40006 -0.000327385 0)
(0.399812 -0.000423274 0)
(0.39999 -0.00054011 0)
(0.400401 -0.000687964 0)
(0.400357 -0.000867318 0)
(0.400179 -0.00107043 0)
(0.400275 -0.0012946 0)
(0.40048 -0.0015557 0)
(0.400534 -0.00187309 0)
(0.400507 -0.0022629 0)
(0.40053 -0.0027433 0)
(0.400582 -0.00333503 0)
(0.400612 -0.0040623 0)
(0.400631 -0.00495541 0)
(0.40066 -0.0060522 0)
(0.400698 -0.0073991 0)
(0.400737 -0.009053 0)
(0.400776 -0.0110839 0)
(0.400811 -0.0135781 0)
(0.400836 -0.0166434 0)
(0.400836 -0.0204139 0)
(0.400791 -0.02506 0)
(0.40067 -0.0307981 0)
(0.400423 -0.0379075 0)
(0.399999 -0.0467819 0)
(0.399236 -0.0577904 0)
(0.398372 -0.0723843 0)
(0.400008 -5.28905e-05 0)
(0.400082 -0.000154672 0)
(0.400182 -0.000249329 0)
(0.400049 -0.000340351 0)
(0.39979 -0.000438709 0)
(0.399961 -0.000558475 0)
(0.400355 -0.00071126 0)
(0.400297 -0.00089579 0)
(0.400098 -0.00110067 0)
(0.400168 -0.00132183 0)
(0.400343 -0.00157639 0)
(0.400361 -0.00188599 0)
(0.400291 -0.00226848 0)
(0.400261 -0.00274286 0)
(0.400248 -0.00333007 0)
(0.400201 -0.00405373 0)
(0.400124 -0.00494328 0)
(0.400036 -0.00603585 0)
(0.399931 -0.00737712 0)
(0.399795 -0.00902292 0)
(0.399619 -0.0110417 0)
(0.399392 -0.0135179 0)
(0.399092 -0.0165561 0)
(0.398691 -0.0202861 0)
(0.398148 -0.0248718 0)
(0.397402 -0.0305204 0)
(0.396373 -0.0374972 0)
(0.394923 -0.0461781 0)
(0.392906 -0.0568999 0)
(0.390073 -0.0711135 0)
(0.400008 -5.42418e-05 0)
(0.400081 -0.000158706 0)
(0.400174 -0.000256327 0)
(0.400039 -0.000349925 0)
(0.399771 -0.000449683 0)
(0.399934 -0.000570993 0)
(0.400313 -0.00072707 0)
(0.400242 -0.000915001 0)
(0.400022 -0.00111928 0)
(0.400067 -0.00133471 0)
(0.40021 -0.00158006 0)
(0.400192 -0.00187855 0)
(0.400079 -0.00224939 0)
(0.399995 -0.00271245 0)
(0.399918 -0.00328872 0)
(0.399792 -0.00400087 0)
(0.399621 -0.00487715 0)
(0.399417 -0.00595362 0)
(0.399171 -0.00727466 0)
(0.398864 -0.00889433 0)
(0.398477 -0.0108788 0)
(0.397992 -0.0133094 0)
(0.397375 -0.016286 0)
(0.396584 -0.0199323 0)
(0.395559 -0.0244025 0)
(0.394212 -0.0298905 0)
(0.392434 -0.0366408 0)
(0.39001 -0.0449991 0)
(0.386807 -0.0552595 0)
(0.382122 -0.0687919 0)
(0.400007 -5.51328e-05 0)
(0.40008 -0.000161299 0)
(0.400168 -0.00026097 0)
(0.40003 -0.000356371 0)
(0.399753 -0.000456668 0)
(0.39991 -0.000578593 0)
(0.400275 -0.000736164 0)
(0.400189 -0.000925121 0)
(0.39995 -0.00112619 0)
(0.39997 -0.00133317 0)
(0.400083 -0.0015669 0)
(0.400031 -0.00185095 0)
(0.399875 -0.00220556 0)
(0.399738 -0.00265192 0)
(0.399597 -0.00321101 0)
(0.399393 -0.0039041 0)
(0.399128 -0.0047578 0)
(0.398811 -0.00580665 0)
(0.398428 -0.00709328 0)
(0.397953 -0.00866943 0)
(0.397362 -0.0105982 0)
(0.396627 -0.0129568 0)
(0.395706 -0.0158392 0)
(0.394541 -0.0193609 0)
(0.393057 -0.0236645 0)
(0.391141 -0.0289262 0)
(0.388663 -0.0353646 0)
(0.385339 -0.0432838 0)
(0.381046 -0.0529264 0)
(0.374696 -0.065507 0)
(0.400007 -5.561e-05 0)
(0.400079 -0.000162598 0)
(0.400162 -0.000263554 0)
(0.400021 -0.000360108 0)
(0.399738 -0.000459873 0)
(0.399889 -0.000580711 0)
(0.400237 -0.000738476 0)
(0.400141 -0.000927053 0)
(0.399884 -0.00112197 0)
(0.399883 -0.00131817 0)
(0.399967 -0.00153829 0)
(0.399881 -0.00180379 0)
(0.399681 -0.00213696 0)
(0.399491 -0.0025614 0)
(0.399286 -0.00309744 0)
(0.399007 -0.00376424 0)
(0.398651 -0.00458641 0)
(0.398225 -0.00559667 0)
(0.397708 -0.00683539 0)
(0.397072 -0.00835145 0)
(0.396285 -0.0102043 0)
(0.395312 -0.0124659 0)
(0.394101 -0.0152237 0)
(0.392583 -0.0185834 0)
(0.390669 -0.0226737 0)
(0.388227 -0.0276509 0)
(0.385106 -0.0337029 0)
(0.380976 -0.0410842 0)
(0.375716 -0.0499787 0)
(0.36795 -0.0613849 0)
(0.400007 -5.57434e-05 0)
(0.400078 -0.000162714 0)
(0.400156 -0.000264363 0)
(0.400014 -0.000361832 0)
(0.399726 -0.000460424 0)
(0.399874 -0.000577636 0)
(0.400209 -0.000732989 0)
(0.400099 -0.000921005 0)
(0.399823 -0.0011088 0)
(0.399803 -0.00129116 0)
(0.399858 -0.00149433 0)
(0.399738 -0.00173702 0)
(0.399499 -0.00204383 0)
(0.399257 -0.00244147 0)
(0.39899 -0.00294891 0)
(0.398638 -0.00358255 0)
(0.398194 -0.00436478 0)
(0.397663 -0.00532608 0)
(0.39702 -0.00650417 0)
(0.39623 -0.0079446 0)
(0.395258 -0.00970252 0)
(0.39406 -0.0118444 0)
(0.392578 -0.0144496 0)
(0.390731 -0.0176135 0)
(0.388421 -0.0214494 0)
(0.3855 -0.0260922 0)
(0.381804 -0.0316965 0)
(0.376973 -0.0384618 0)
(0.37089 -0.046511 0)
(0.362001 -0.056583 0)
(0.400006 -5.56451e-05 0)
(0.400077 -0.000161717 0)
(0.400152 -0.000263633 0)
(0.400011 -0.000361977 0)
(0.399719 -0.000459016 0)
(0.399861 -0.000572066 0)
(0.400183 -0.000723073 0)
(0.400061 -0.000906075 0)
(0.39976 -0.00108426 0)
(0.399739 -0.00125178 0)
(0.399765 -0.00143506 0)
(0.399612 -0.00165105 0)
(0.39933 -0.00192724 0)
(0.399037 -0.00229349 0)
(0.39871 -0.002767 0)
(0.398289 -0.00336101 0)
(0.397763 -0.00409534 0)
(0.397132 -0.00499797 0)
(0.39637 -0.0061036 0)
(0.395436 -0.00745399 0)
(0.394291 -0.00909961 0)
(0.392884 -0.0111007 0)
(0.391151 -0.0135285 0)
(0.389003 -0.0164667 0)
(0.386333 -0.0200132 0)
(0.382986 -0.0242805 0)
(0.378787 -0.02939 0)
(0.37337 -0.0354845 0)
(0.366617 -0.0426277 0)
(0.356919 -0.0512785 0)
(0.400007 -5.54521e-05 0)
(0.400076 -0.000160472 0)
(0.400154 -0.000263013 0)
(0.400011 -0.000361219 0)
(0.399711 -0.000452879 0)
(0.399851 -0.00055792 0)
(0.400161 -0.000706342 0)
(0.400032 -0.000888062 0)
(0.399717 -0.00105654 0)
(0.399678 -0.00120541 0)
(0.399678 -0.00136196 0)
(0.399494 -0.00154472 0)
(0.399175 -0.00178621 0)
(0.398835 -0.00211765 0)
(0.398452 -0.00255288 0)
(0.397965 -0.00310167 0)
(0.397361 -0.00378101 0)
(0.396638 -0.00461608 0)
(0.395765 -0.00563834 0)
(0.394698 -0.00688552 0)
(0.393393 -0.0084031 0)
(0.391795 -0.0102449 0)
(0.389833 -0.0124731 0)
(0.387415 -0.0151601 0)
(0.384425 -0.0183882 0)
(0.380704 -0.0222483 0)
(0.376078 -0.0268299 0)
(0.370187 -0.0322226 0)
(0.36292 -0.0384366 0)
(0.352723 -0.0456546 0)
(0.400007 -5.55712e-05 0)
(0.400074 -0.000159354 0)
(0.400159 -0.000261715 0)
(0.400023 -0.000362394 0)
(0.399715 -0.000452144 0)
(0.399837 -0.000542739 0)
(0.400135 -0.000676787 0)
(0.400003 -0.000850621 0)
(0.399656 -0.0010145 0)
(0.399636 -0.00115148 0)
(0.399607 -0.00127926 0)
(0.399394 -0.00142472 0)
(0.399039 -0.00162697 0)
(0.398653 -0.00191751 0)
(0.398216 -0.00230829 0)
(0.397668 -0.00280609 0)
(0.396993 -0.00342415 0)
(0.396185 -0.00418404 0)
(0.39521 -0.00511341 0)
(0.394023 -0.0062457 0)
(0.392573 -0.00762129 0)
(0.390803 -0.00928732 0)
(0.388637 -0.0112971 0)
(0.385978 -0.0137116 0)
(0.382708 -0.0165981 0)
(0.378669 -0.0200277 0)
(0.373686 -0.024062 0)
(0.367431 -0.0287433 0)
(0.359796 -0.0340403 0)
(0.349383 -0.0398866 0)
(0.400008 -5.59174e-05 0)
(0.400073 -0.000160863 0)
(0.40017 -0.000261972 0)
(0.400024 -0.00034865 0)
(0.399687 -0.000430091 0)
(0.399824 -0.000534499 0)
(0.400124 -0.000675478 0)
(0.399979 -0.000828546 0)
(0.399659 -0.000964293 0)
(0.399571 -0.00107479 0)
(0.399525 -0.00117148 0)
(0.399301 -0.00128076 0)
(0.398922 -0.00144455 0)
(0.398494 -0.00169392 0)
(0.398008 -0.00203861 0)
(0.397403 -0.00248094 0)
(0.396662 -0.00303085 0)
(0.395777 -0.00370751 0)
(0.394711 -0.00453494 0)
(0.393416 -0.00554181 0)
(0.391838 -0.00676322 0)
(0.389915 -0.00823952 0)
(0.38757 -0.0100149 0)
(0.384704 -0.0121391 0)
(0.381194 -0.0146663 0)
(0.376888 -0.0176499 0)
(0.371617 -0.0211287 0)
(0.365092 -0.0251078 0)
(0.357215 -0.029529 0)
(0.34682 -0.0341276 0)
(0.400009 -5.75867e-05 0)
(0.400079 -0.000164942 0)
(0.400187 -0.00027313 0)
(0.400097 -0.000355548 0)
(0.399761 -0.000399566 0)
(0.399766 -0.000460941 0)
(0.400025 -0.000632994 0)
(0.399923 -0.000821071 0)
(0.399551 -0.000948214 0)
(0.399527 -0.00103112 0)
(0.39946 -0.00108723 0)
(0.39923 -0.00114304 0)
(0.398822 -0.00124548 0)
(0.398356 -0.00143843 0)
(0.397827 -0.00173269 0)
(0.397173 -0.00211941 0)
(0.396373 -0.0025999 0)
(0.395419 -0.00318934 0)
(0.394273 -0.00390823 0)
(0.392883 -0.00478101 0)
(0.391193 -0.0058381 0)
(0.389139 -0.00711333 0)
(0.386642 -0.00864154 0)
(0.383599 -0.0104616 0)
(0.379888 -0.012616 0)
(0.375364 -0.0151441 0)
(0.369866 -0.0180678 0)
(0.36315 -0.0213666 0)
(0.355133 -0.024974 0)
(0.344918 -0.028495 0)
(0.400011 -6.17958e-05 0)
(0.400086 -0.000173149 0)
(0.400211 -0.000276623 0)
(0.400112 -0.000353334 0)
(0.39962 -0.000394173 0)
(0.399669 -0.00044863 0)
(0.399968 -0.000548518 0)
(0.399915 -0.000686749 0)
(0.399635 -0.000809194 0)
(0.399466 -0.000899098 0)
(0.399355 -0.000947304 0)
(0.399102 -0.000985166 0)
(0.398701 -0.00105349 0)
(0.398228 -0.00119496 0)
(0.397669 -0.00142624 0)
(0.396973 -0.00174244 0)
(0.396123 -0.00214317 0)
(0.395111 -0.00263813 0)
(0.393898 -0.00324148 0)
(0.392429 -0.0039721 0)
(0.390644 -0.00485565 0)
(0.38848 -0.0059195 0)
(0.385857 -0.00718986 0)
(0.382669 -0.00869579 0)
(0.378797 -0.010469 0)
(0.374099 -0.0125371 0)
(0.368427 -0.0149112 0)
(0.361579 -0.0175584 0)
(0.353491 -0.0204249 0)
(0.343535 -0.023059 0)
(0.400014 -6.87937e-05 0)
(0.400093 -0.000194473 0)
(0.40023 -0.00031296 0)
(0.40017 -0.000267616 0)
(0.399671 -0.000189184 0)
(0.39958 -0.000400253 0)
(0.399777 -0.000817126 0)
(0.39966 -0.000935257 0)
(0.399332 -0.000901616 0)
(0.39921 -0.000862611 0)
(0.399203 -0.000843425 0)
(0.399021 -0.000813519 0)
(0.398649 -0.000812028 0)
(0.398164 -0.000896753 0)
(0.397569 -0.00107498 0)
(0.396825 -0.00132935 0)
(0.395925 -0.00165355 0)
(0.394861 -0.00205355 0)
(0.393592 -0.00253834 0)
(0.392058 -0.00312291 0)
(0.390196 -0.00382957 0)
(0.387945 -0.00467652 0)
(0.385222 -0.00567895 0)
(0.381924 -0.0068592 0)
(0.377928 -0.00824307 0)
(0.373101 -0.00984954 0)
(0.367304 -0.0116832 0)
(0.36037 -0.0137069 0)
(0.352255 -0.0159022 0)
(0.342544 -0.0178419 0)
(0.400021 -8.96696e-05 0)
(0.400147 -0.000201992 0)
(0.400296 -0.000323541 0)
(0.400243 -0.000333492 0)
(0.399908 -0.000212747 0)
(0.399335 -9.6145e-05 0)
(0.39886 -0.000240771 0)
(0.398637 -0.00047109 0)
(0.398758 -0.000630018 0)
(0.399223 -0.000731326 0)
(0.399505 -0.000783672 0)
(0.399341 -0.000741001 0)
(0.398834 -0.000658067 0)
(0.398194 -0.000640165 0)
(0.397495 -0.000730857 0)
(0.396696 -0.000908914 0)
(0.395761 -0.00115162 0)
(0.394665 -0.00145196 0)
(0.393362 -0.00180939 0)
(0.391788 -0.00223481 0)
(0.389883 -0.00275465 0)
(0.387582 -0.00338491 0)
(0.384801 -0.00412524 0)
(0.38143 -0.00498189 0)
(0.377351 -0.00597297 0)
(0.372439 -0.00711499 0)
(0.366564 -0.00841307 0)
(0.359576 -0.00983305 0)
(0.351458 -0.0113947 0)
(0.341836 -0.012771 0)
(0.400008 -0.0001406 0)
(0.400234 -0.000315871 0)
(0.400301 -0.00034747 0)
(0.400079 -0.000216186 0)
(0.399237 0.000171889 0)
(0.398921 0.000158018 0)
(0.399371 -0.00049954 0)
(0.399892 -0.00116637 0)
(0.399993 -0.00127781 0)
(0.400059 -0.00115208 0)
(0.399881 -0.000849281 0)
(0.399363 -0.000542126 0)
(0.398632 -0.000309671 0)
(0.397879 -0.000230239 0)
(0.397148 -0.000296371 0)
(0.396365 -0.000438221 0)
(0.395468 -0.000619816 0)
(0.394412 -0.000836478 0)
(0.39315 -0.00108402 0)
(0.391642 -0.00136425 0)
(0.389764 -0.00168971 0)
(0.387398 -0.00207401 0)
(0.384501 -0.00252452 0)
(0.380991 -0.00304678 0)
(0.376773 -0.00364874 0)
(0.371733 -0.00433669 0)
(0.365745 -0.00510987 0)
(0.358648 -0.00594523 0)
(0.350488 -0.00689197 0)
(0.340445 -0.00751404 0)
(0.399717 -8.78623e-05 0)
(0.399538 -0.000177846 0)
(0.39898 -0.000260839 0)
(0.398286 -4.72424e-05 0)
(0.398304 0.000323199 0)
(0.399024 0.000237153 0)
(0.399017 -0.000442427 0)
(0.397384 -0.000987034 0)
(0.39496 -0.001015 0)
(0.39287 -0.000742623 0)
(0.391459 -0.000312052 0)
(0.390651 6.91116e-07 0)
(0.390291 0.000130819 0)
(0.390178 0.000136413 0)
(0.390057 7.3182e-05 0)
(0.389728 -4.46215e-05 0)
(0.38911 -0.000159427 0)
(0.388187 -0.000257389 0)
(0.386935 -0.000361844 0)
(0.385316 -0.00047482 0)
(0.383295 -0.000591309 0)
(0.380823 -0.000714982 0)
(0.377817 -0.000858163 0)
(0.374179 -0.00103066 0)
(0.369802 -0.00123523 0)
(0.364579 -0.00146907 0)
(0.358401 -0.00173003 0)
(0.351171 -0.00199108 0)
(0.342801 -0.00239247 0)
(0.330849 -0.00202595 0)
(0.479394 -0.00733962 1.36079e-20)
(0.484502 -0.0115127 -1.0492e-17)
(0.489215 -0.0162258 1.05309e-17)
(0.493264 -0.0213401 5.28189e-18)
(0.496996 -0.0267916 3.98163e-18)
(0.500571 -0.032587 8.02652e-18)
(0.504015 -0.0387781 4.01535e-18)
(0.507352 -0.0454274 1.08077e-17)
(0.51062 -0.0525853 5.45011e-18)
(0.513848 -0.0602898 2.7254e-18)
(0.517043 -0.068577 -2.75665e-18)
(0.5202 -0.0774897 5.51269e-18)
(0.523313 -0.0870809 2.81891e-18)
(0.526382 -0.0974166 2.81746e-18)
(0.529409 -0.108577 5.66111e-18)
(0.532403 -0.120662 2.87511e-18)
(0.535377 -0.133788 8.58743e-18)
(0.538344 -0.148101 0)
(0.541321 -0.16378 0)
(0.544326 -0.181053 2.86282e-18)
(0.54738 -0.200204 -4.39722e-20)
(0.550514 -0.221597 2.90333e-18)
(0.553752 -0.245691 0)
(0.557136 -0.273075 5.6319e-18)
(0.5607 -0.304429 2.76745e-18)
(0.56422 -0.341027 -2.8033e-18)
(0.569076 -0.382258 2.64572e-18)
(0.568773 -0.438789 2.61724e-18)
(0.585499 -0.476965 7.20373e-18)
(0.552062 -0.611361 -2.18724e-18)
(0.481957 -0.0158828 -5.29942e-18)
(0.485648 -0.0200073 5.98683e-18)
(0.488807 -0.0249157 -6.02313e-18)
(0.491616 -0.0302093 0)
(0.494364 -0.0358148 -5.44161e-18)
(0.497137 -0.0417837 -5.45607e-18)
(0.499913 -0.0481827 -1.37313e-18)
(0.502673 -0.0550529 -9.69781e-18)
(0.505411 -0.0624174 -5.56582e-18)
(0.508113 -0.0703008 -5.64165e-18)
(0.510754 -0.0787388 2.82502e-18)
(0.513314 -0.0877796 -2.86034e-18)
(0.515783 -0.0974823 -5.72501e-18)
(0.518156 -0.107917 -5.76662e-18)
(0.520432 -0.119168 -5.80833e-18)
(0.52261 -0.131333 -5.84958e-18)
(0.524687 -0.144532 -1.18521e-17)
(0.526657 -0.158909 2.97138e-18)
(0.528512 -0.174642 -3.01513e-18)
(0.530243 -0.191951 -9.09277e-18)
(0.531832 -0.211117 3.48739e-20)
(0.533266 -0.232485 -6.48184e-20)
(0.534504 -0.256496 -4.95629e-20)
(0.535527 -0.283691 -9.2213e-18)
(0.536206 -0.314735 -6.1293e-18)
(0.536416 -0.350668 -2.92984e-18)
(0.536561 -0.391476 1.27825e-19)
(0.532315 -0.444494 -1.51049e-19)
(0.540881 -0.485988 -8.09233e-18)
(0.502848 -0.608813 0)
(0.479723 -0.024082 0)
(0.482484 -0.028194 0)
(0.484952 -0.0331096 0)
(0.487391 -0.03845 -6.8849e-19)
(0.489875 -0.0441278 6.24558e-18)
(0.492357 -0.0501726 -1.398e-18)
(0.494785 -0.0566244 1.41438e-18)
(0.497134 -0.0635092 5.67725e-18)
(0.499391 -0.0708546 -1.43219e-18)
(0.501547 -0.0786995 7.22042e-18)
(0.503588 -0.087093 2.91388e-18)
(0.505508 -0.0960896 -2.95262e-18)
(0.5073 -0.10575 2.96635e-18)
(0.508957 -0.116145 -3.0079e-18)
(0.510469 -0.127355 -6.09273e-18)
(0.511821 -0.139478 6.15291e-18)
(0.512992 -0.152631 6.13496e-18)
(0.513958 -0.166953 0)
(0.514689 -0.182619 0)
(0.515145 -0.199842 6.28764e-18)
(0.515277 -0.218888 0)
(0.515026 -0.240087 9.66988e-18)
(0.514294 -0.263858 3.25181e-18)
(0.512998 -0.290696 6.40374e-18)
(0.510885 -0.321248 9.60007e-18)
(0.507847 -0.356347 3.30791e-18)
(0.503603 -0.396429 0)
(0.495548 -0.446311 1.25532e-17)
(0.495371 -0.490408 0)
(0.454493 -0.601038 5.81226e-18)
(0.477019 -0.0322991 0)
(0.479271 -0.0365301 0)
(0.481262 -0.0415057 0)
(0.48333 -0.0468824 -5.66353e-18)
(0.485421 -0.052585 0)
(0.487427 -0.0586428 0)
(0.489317 -0.0650979 0)
(0.491097 -0.0719823 5.87697e-18)
(0.492768 -0.0793285 0)
(0.494321 -0.0871756 0)
(0.495742 -0.0955686 0)
(0.497017 -0.104557 -6.12602e-18)
(0.49813 -0.114198 -6.19416e-18)
(0.499061 -0.124559 -3.1084e-18)
(0.499787 -0.135722 -6.01119e-20)
(0.500279 -0.147781 -6.31793e-18)
(0.500504 -0.16085 1.57805e-20)
(0.500419 -0.175065 9.83575e-18)
(0.499974 -0.19059 3.28643e-18)
(0.499104 -0.207627 -3.345e-18)
(0.497727 -0.226429 -3.35741e-18)
(0.495745 -0.247301 -3.32332e-18)
(0.49301 -0.27063 -3.42027e-18)
(0.48938 -0.296862 1.05249e-17)
(0.484498 -0.326598 0)
(0.478265 -0.360486 -1.0574e-17)
(0.469846 -0.399227 -3.5543e-18)
(0.458073 -0.445891 3.39115e-19)
(0.449549 -0.4905 -1.0461e-17)
(0.407013 -0.588984 6.86384e-19)
(0.473449 -0.0401721 0)
(0.475189 -0.0444607 5.69468e-18)
(0.476651 -0.0494411 -7.16216e-19)
(0.478258 -0.0548161 1.23132e-17)
(0.479893 -0.0605253 0)
(0.481406 -0.0665938 0)
(0.482776 -0.0730562 5.9925e-18)
(0.484025 -0.0799394 -6.0132e-18)
(0.485149 -0.0872722 0)
(0.486128 -0.0950909 0)
(0.486939 -0.103439 0)
(0.487563 -0.112367 6.28834e-18)
(0.487977 -0.121931 6.36404e-18)
(0.488154 -0.132201 -3.2339e-18)
(0.488062 -0.143254 9.81096e-18)
(0.487664 -0.155181 0)
(0.486913 -0.16809 6.79208e-18)
(0.485752 -0.182108 -1.02659e-17)
(0.484108 -0.19739 -3.4744e-18)
(0.481894 -0.214122 0)
(0.478999 -0.232537 0)
(0.475289 -0.252915 0)
(0.470574 -0.275604 0)
(0.464659 -0.300997 -3.64795e-18)
(0.457109 -0.329634 -3.79448e-18)
(0.447813 -0.362008 3.72702e-18)
(0.435515 -0.398972 3.89564e-18)
(0.420221 -0.44225 -7.59656e-18)
(0.403952 -0.486095 7.6234e-18)
(0.360816 -0.572763 -7.31169e-18)
(0.469036 -0.0476876 -5.77504e-18)
(0.470288 -0.0520324 -5.44324e-18)
(0.471242 -0.05703 -1.10317e-18)
(0.472397 -0.0624116 -4.44515e-18)
(0.473585 -0.0681221 -1.71465e-21)
(0.474616 -0.0741811 -2.28042e-18)
(0.475473 -0.0806189 5.12331e-20)
(0.476184 -0.0874619 -6.2533e-18)
(0.476744 -0.09474 -4.75799e-18)
(0.477126 -0.10249 6.41979e-18)
(0.477303 -0.110756 0)
(0.477253 -0.119586 8.23654e-18)
(0.476947 -0.129035 -8.3589e-18)
(0.476353 -0.139167 -6.7936e-18)
(0.475428 -0.150056 1.03201e-17)
(0.474125 -0.161786 -1.0492e-17)
(0.472383 -0.174456 -3.48859e-18)
(0.470129 -0.188185 -3.7137e-18)
(0.467274 -0.203112 -3.64769e-18)
(0.463709 -0.219409 1.12324e-17)
(0.4593 -0.237286 0)
(0.453881 -0.256993 3.84503e-18)
(0.447229 -0.278834 -7.85519e-18)
(0.439099 -0.303147 8.14803e-18)
(0.429003 -0.330398 4.10064e-18)
(0.416804 -0.36095 8.47276e-18)
(0.40095 -0.395695 0)
(0.38237 -0.435354 8.85357e-18)
(0.359148 -0.477287 0)
(0.316296 -0.55253 -9.1003e-18)
(0.463775 -0.0547568 5.88981e-18)
(0.464548 -0.0591399 2.99717e-18)
(0.464998 -0.0641325 -3.03526e-18)
(0.465694 -0.0694909 2.30794e-18)
(0.466424 -0.0751671 1.40255e-21)
(0.466963 -0.0811802 1.32811e-21)
(0.467296 -0.0875589 -5.5353e-18)
(0.46746 -0.0943293 1.56868e-18)
(0.467448 -0.101521 9.76708e-18)
(0.467227 -0.109168 -8.25023e-18)
(0.466767 -0.117312 1.67946e-18)
(0.466038 -0.125999 -8.49639e-18)
(0.465007 -0.135279 6.89372e-18)
(0.463634 -0.145211 7.00425e-18)
(0.461868 -0.155865 -3.51095e-18)
(0.459651 -0.167317 7.24306e-18)
(0.456911 -0.179657 0)
(0.453563 -0.192991 3.72754e-18)
(0.449503 -0.207445 3.86391e-18)
(0.444603 -0.223172 -7.80663e-18)
(0.438709 -0.240355 0)
(0.431632 -0.259212 -4.10895e-18)
(0.423117 -0.280002 1.57018e-20)
(0.412883 -0.303002 -8.50189e-18)
(0.400407 -0.328598 8.85615e-18)
(0.385519 -0.357045 -1.35229e-17)
(0.366482 -0.389189 0)
(0.34492 -0.42503 -9.31195e-18)
(0.315664 -0.464134 1.10811e-19)
(0.273863 -0.528482 9.92758e-18)
(0.457671 -0.0612788 3.04237e-18)
(0.457972 -0.0656775 -2.67766e-18)
(0.457928 -0.0706397 2.71331e-18)
(0.458165 -0.0759476 -6.31058e-18)
(0.458434 -0.081561 -3.21055e-18)
(0.458482 -0.0874981 -8.09798e-19)
(0.458293 -0.0937852 3.30459e-18)
(0.45791 -0.100447 7.5094e-18)
(0.457326 -0.107511 3.40605e-18)
(0.456502 -0.11501 -1.71994e-18)