/*--------------------------------*- C++ -*----------------------------------*\
  =========                 |
  \\      /  F ield         | OpenFOAM: The Open Source CFD Toolbox
   \\    /   O peration     | Website:  https://openfoam.org
    \\  /    A nd           | Version:  11
     \\/     M anipulation  |
\*---------------------------------------------------------------------------*/
FoamFile
{
    format      ascii;
    class       volScalarField;
    location    "2";
    object      p;
}
// * * * * * * * * * * * * * * * * * * * * * * * * * * * * * * * * * * * * * //

dimensions      [0 2 -2 0 0 0 0];

internalField   nonuniform List<scalar> 
12600
(
0.720864
0.720729
0.720659
0.720629
0.720595
0.720549
0.720494
0.72043
0.720355
0.720266
0.720161
0.720034
0.71988
0.719696
0.719472
0.7192
0.718867
0.718461
0.717962
0.717349
0.716592
0.715657
0.714508
0.713088
0.711322
0.709117
0.706358
0.702886
0.69853
0.692968
0.720792
0.720721
0.720662
0.720629
0.720595
0.72055
0.720495
0.720432
0.720358
0.720271
0.720167
0.720041
0.71989
0.719708
0.719486
0.719217
0.718889
0.71849
0.717998
0.717395
0.716648
0.715722
0.714589
0.713189
0.711447
0.709271
0.706544
0.703116
0.698784
0.693305
0.72076
0.720725
0.720673
0.720634
0.720599
0.720555
0.720503
0.720441
0.720368
0.720283
0.72018
0.720057
0.719909
0.71973
0.719513
0.71925
0.71893
0.718539
0.718058
0.717468
0.71674
0.71584
0.714736
0.713371
0.711671
0.709546
0.70688
0.70353
0.699263
0.693907
0.72074
0.720717
0.720674
0.720635
0.7206
0.720559
0.720509
0.720449
0.720379
0.720296
0.720196
0.720077
0.719934
0.719761
0.719552
0.719297
0.718988
0.71861
0.718146
0.717577
0.716877
0.716014
0.71495
0.713633
0.711995
0.709948
0.707375
0.70414
0.699996
0.694797
0.720727
0.720711
0.720678
0.720642
0.720608
0.720568
0.72052
0.720462
0.720395
0.720315
0.720219
0.720105
0.719968
0.719803
0.719603
0.71936
0.719064
0.718704
0.718263
0.717721
0.717056
0.716236
0.715224
0.713973
0.712416
0.71047
0.708021
0.704938
0.700967
0.695987
0.720719
0.720708
0.720681
0.720649
0.720615
0.720577
0.720531
0.720477
0.720412
0.720337
0.720246
0.720138
0.720009
0.719852
0.719664
0.719435
0.719157
0.718818
0.718403
0.717895
0.717271
0.716504
0.715557
0.714386
0.712928
0.711107
0.708811
0.705916
0.70217
0.697464
0.720716
0.720707
0.720685
0.720656
0.720624
0.720588
0.720546
0.720495
0.720434
0.720363
0.720279
0.720178
0.720057
0.719911
0.719736
0.719524
0.719266
0.718952
0.718568
0.718099
0.717524
0.716817
0.715945
0.714867
0.713527
0.711851
0.709737
0.707067
0.703593
0.699218
0.720716
0.720709
0.72069
0.720665
0.720635
0.720602
0.720562
0.720515
0.720459
0.720393
0.720315
0.720222
0.720111
0.719978
0.719817
0.719623
0.719388
0.719103
0.718754
0.718329
0.717808
0.717169
0.716382
0.71541
0.714202
0.712692
0.710786
0.708375
0.705221
0.701236
0.720719
0.720713
0.720697
0.720674
0.720647
0.720616
0.72058
0.720537
0.720486
0.720426
0.720355
0.720271
0.720171
0.720051
0.719907
0.719734
0.719524
0.71927
0.71896
0.718583
0.718123
0.717558
0.716864
0.716009
0.714947
0.713621
0.711946
0.709826
0.707036
0.703501
0.720724
0.720719
0.720705
0.720685
0.720661
0.720633
0.7206
0.720561
0.720515
0.720462
0.720399
0.720324
0.720236
0.720131
0.720005
0.719854
0.719671
0.719451
0.719183
0.718858
0.718462
0.717978
0.717384
0.716654
0.71575
0.714623
0.713201
0.7114
0.709017
0.705985
0.720731
0.720726
0.720715
0.720697
0.720676
0.72065
0.720621
0.720587
0.720547
0.7205
0.720445
0.720381
0.720306
0.720216
0.720109
0.719982
0.719828
0.719643
0.71942
0.71915
0.718822
0.718423
0.717936
0.717338
0.716601
0.715686
0.714533
0.713075
0.711134
0.708658
0.72074
0.720736
0.720726
0.72071
0.720691
0.720669
0.720644
0.720614
0.72058
0.72054
0.720495
0.720441
0.720379
0.720306
0.720219
0.720116
0.719993
0.719846
0.719669
0.719456
0.719199
0.718888
0.718511
0.718052
0.717489
0.716795
0.715923
0.714825
0.713357
0.711479
0.72075
0.720746
0.720738
0.720724
0.720708
0.720689
0.720667
0.720643
0.720614
0.720582
0.720546
0.720504
0.720455
0.720399
0.720333
0.720255
0.720164
0.720055
0.719926
0.719772
0.719588
0.719368
0.719104
0.718786
0.718401
0.717932
0.71735
0.716622
0.715646
0.714397
0.720761
0.720758
0.72075
0.720739
0.720725
0.72071
0.720692
0.720672
0.72065
0.720625
0.720598
0.720568
0.720533
0.720494
0.720449
0.720398
0.720338
0.720269
0.720189
0.720095
0.719985
0.719857
0.719707
0.719531
0.719325
0.719082
0.71879
0.718437
0.717961
0.717357
0.720773
0.72077
0.720764
0.720755
0.720744
0.720731
0.720717
0.720702
0.720686
0.720669
0.720651
0.720633
0.720612
0.720591
0.720567
0.720542
0.720515
0.720486
0.720455
0.720421
0.720385
0.720348
0.720312
0.720277
0.720248
0.720228
0.720223
0.720238
0.720258
0.720297
0.720786
0.720784
0.720779
0.720771
0.720762
0.720752
0.720742
0.720733
0.720723
0.720714
0.720705
0.720698
0.720692
0.720688
0.720686
0.720687
0.720693
0.720703
0.72072
0.720746
0.720783
0.720837
0.720911
0.721015
0.721158
0.721355
0.721625
0.721995
0.722492
0.723152
0.7208
0.720798
0.720794
0.720787
0.720781
0.720774
0.720768
0.720763
0.720759
0.720757
0.720758
0.720763
0.720771
0.720784
0.720804
0.720831
0.720868
0.720917
0.720982
0.721066
0.721175
0.721316
0.721499
0.721735
0.722043
0.722445
0.722976
0.723678
0.724618
0.725857
0.720814
0.720813
0.720809
0.720804
0.720799
0.720795
0.720793
0.720793
0.720795
0.720801
0.720811
0.720826
0.720848
0.720879
0.720919
0.720972
0.72104
0.721127
0.721238
0.721379
0.721557
0.721782
0.722068
0.72243
0.722893
0.723487
0.724257
0.725261
0.726599
0.728352
0.720829
0.720828
0.720825
0.720821
0.720818
0.720816
0.720818
0.720822
0.72083
0.720843
0.720862
0.720888
0.720924
0.72097
0.721031
0.721108
0.721206
0.72133
0.721486
0.72168
0.721924
0.72223
0.722612
0.723092
0.723698
0.724467
0.725452
0.726721
0.728401
0.730589
0.720844
0.720843
0.72084
0.720837
0.720836
0.720837
0.720841
0.72085
0.720863
0.720883
0.720911
0.720948
0.720996
0.721058
0.721138
0.721239
0.721366
0.721524
0.721722
0.721968
0.722274
0.722654
0.723126
0.723715
0.72445
0.725375
0.726547
0.728042
0.73
0.732528
0.72086
0.720859
0.720856
0.720853
0.720853
0.720856
0.720864
0.720877
0.720895
0.720922
0.720957
0.721004
0.721065
0.721142
0.72124
0.721363
0.721516
0.721707
0.721945
0.722238
0.722602
0.72305
0.723605
0.724292
0.725144
0.726204
0.727535
0.729212
0.73138
0.734151
0.720876
0.720875
0.720871
0.720869
0.720869
0.720875
0.720886
0.720902
0.720925
0.720958
0.721001
0.721057
0.721129
0.72122
0.721335
0.721478
0.721657
0.721878
0.722152
0.722489
0.722905
0.723417
0.724046
0.72482
0.725773
0.726949
0.728409
0.730227
0.73254
0.735453
0.720893
0.720891
0.720886
0.720883
0.720885
0.720892
0.720905
0.720925
0.720953
0.720991
0.721041
0.721105
0.721188
0.721291
0.721422
0.721584
0.721785
0.722034
0.722341
0.722718
0.723182
0.723749
0.724444
0.725294
0.726334
0.727606
0.729168
0.731087
0.733485
0.736449
0.720911
0.720907
0.720901
0.720896
0.720899
0.720908
0.720924
0.720946
0.720978
0.721021
0.721077
0.721149
0.721241
0.721356
0.7215
0.721679
0.721901
0.722175
0.722511
0.722924
0.723429
0.724046
0.724798
0.725714
0.726826
0.728176
0.729814
0.7318
0.73423
0.737171
0.72093
0.720924
0.720914
0.720908
0.720911
0.720922
0.72094
0.720965
0.721
0.721047
0.721109
0.721188
0.721287
0.721413
0.721569
0.721763
0.722003
0.722298
0.72266
0.723103
0.723645
0.724304
0.725105
0.726075
0.727247
0.728658
0.730352
0.732376
0.7348
0.737661
0.72095
0.720942
0.720926
0.720918
0.720923
0.720935
0.720954
0.720981
0.721019
0.72107
0.721137
0.721221
0.721328
0.721462
0.721629
0.721835
0.72209
0.722403
0.722787
0.723257
0.723829
0.724523
0.725364
0.726379
0.727598
0.729055
0.730787
0.732829
0.735223
0.737973
0.720975
0.720959
0.720935
0.720925
0.720931
0.720945
0.720964
0.720993
0.721034
0.721088
0.721158
0.721248
0.72136
0.721501
0.721677
0.721893
0.722161
0.722489
0.722891
0.723381
0.723977
0.724701
0.725574
0.726623
0.727878
0.729369
0.731125
0.73317
0.735526
0.73816
0.721004
0.720977
0.720943
0.720933
0.72094
0.720954
0.720974
0.721005
0.721047
0.721103
0.721177
0.721269
0.721386
0.721533
0.721715
0.721939
0.722216
0.722556
0.722971
0.723477
0.724092
0.724837
0.725734
0.72681
0.728091
0.729605
0.731376
0.733416
0.73574
0.738284
0.721041
0.720979
0.72094
0.720936
0.720945
0.720958
0.720979
0.721011
0.721054
0.721113
0.721188
0.721283
0.721403
0.721554
0.72174
0.72197
0.722253
0.722601
0.723025
0.723543
0.724171
0.72493
0.725843
0.726936
0.728235
0.729764
0.731541
0.733572
0.735864
0.73836
0.721118
0.720989
0.720939
0.720939
0.720949
0.720962
0.720983
0.721015
0.721059
0.721119
0.721195
0.721292
0.721414
0.721566
0.721754
0.721988
0.722275
0.722627
0.723057
0.723581
0.724216
0.724984
0.725907
0.727011
0.72832
0.729858
0.731638
0.733662
0.735902
0.738255
0.687921
0.685827
0.684176
0.68282
0.681389
0.679802
0.678119
0.676391
0.674622
0.672808
0.670941
0.669014
0.667015
0.664923
0.662711
0.660345
0.657781
0.654966
0.651828
0.648275
0.644185
0.639398
0.633695
0.626773
0.618232
0.607403
0.593877
0.573764
0.557334
0.503429
0.689024
0.68729
0.685783
0.684451
0.683059
0.681565
0.680035
0.678501
0.676953
0.675374
0.673755
0.672087
0.670357
0.668546
0.666631
0.664583
0.662365
0.659931
0.657219
0.654151
0.650622
0.646494
0.641579
0.63562
0.628267
0.618972
0.607262
0.590656
0.574628
0.530796
0.689389
0.688025
0.68682
0.685631
0.68439
0.683109
0.681818
0.680521
0.679206
0.677861
0.676484
0.675068
0.673603
0.672073
0.670461
0.668742
0.666886
0.664853
0.662593
0.660038
0.657102
0.653668
0.649577
0.644618
0.638487
0.630753
0.620933
0.607354
0.592895
0.557801
0.690332
0.689315
0.688404
0.687377
0.686283
0.685186
0.684096
0.683002
0.681897
0.680776
0.679638
0.678476
0.677281
0.67604
0.674738
0.673357
0.671872
0.670251
0.668452
0.666421
0.664088
0.661356
0.658096
0.654134
0.649215
0.643005
0.635029
0.624177
0.611772
0.584293
0.691641
0.690873
0.690183
0.689313
0.688375
0.687468
0.686588
0.685711
0.684828
0.683941
0.683049
0.682147
0.681227
0.680281
0.679298
0.678264
0.677161
0.675963
0.674638
0.673145
0.671427
0.669409
0.666986
0.664019
0.6603
0.655572
0.649386
0.641055
0.630884
0.610058
0.693288
0.692744
0.692273
0.691578
0.690814
0.690101
0.689428
0.688764
0.6881
0.687444
0.686797
0.686155
0.685513
0.684867
0.684208
0.683527
0.682812
0.682044
0.6812
0.68025
0.67915
0.677843
0.676248
0.674257
0.671702
0.66839
0.663914
0.657891
0.649956
0.634852
0.695262
0.694931
0.694666
0.694145
0.693555
0.693031
0.692562
0.692109
0.691667
0.691244
0.690845
0.690467
0.690107
0.689764
0.689433
0.68911
0.688786
0.688452
0.68809
0.687682
0.687195
0.686589
0.685803
0.684755
0.683315
0.681336
0.678467
0.674528
0.668745
0.658479
0.697557
0.697427
0.69736
0.697013
0.696597
0.696264
0.695998
0.695757
0.695536
0.695347
0.695195
0.695081
0.695003
0.694963
0.694961
0.694995
0.695062
0.695157
0.695273
0.695397
0.695509
0.695581
0.695572
0.69542
0.695026
0.694281
0.69289
0.690796
0.687016
0.680761
0.700161
0.70022
0.700339
0.700164
0.699924
0.699779
0.699712
0.69968
0.699678
0.699721
0.699815
0.699963
0.700165
0.700426
0.700749
0.701135
0.701587
0.702103
0.702683
0.703322
0.704009
0.704727
0.705449
0.706131
0.7067
0.707073
0.707011
0.706513
0.704541
0.701511
0.703049
0.703285
0.703579
0.703573
0.703506
0.703546
0.703676
0.703849
0.704062
0.704332
0.704668
0.705072
0.705549
0.706104
0.706743
0.707472
0.708294
0.709216
0.71024
0.711367
0.712595
0.713915
0.71531
0.716753
0.718188
0.71955
0.720647
0.721494
0.721106
0.720562
0.706189
0.706588
0.707042
0.7072
0.707304
0.707524
0.707843
0.708215
0.708637
0.709127
0.709696
0.710349
0.71109
0.711928
0.712869
0.713924
0.715098
0.716402
0.717841
0.719421
0.721146
0.723013
0.725016
0.727133
0.729324
0.731536
0.733615
0.735561
0.736511
0.737783
0.709535
0.710081
0.710679
0.710994
0.711264
0.711656
0.712155
0.712716
0.713338
0.714038
0.714828
0.715716
0.716707
0.71781
0.719035
0.720393
0.721894
0.723548
0.725365
0.727355
0.729525
0.731877
0.734409
0.737106
0.739938
0.742857
0.745736
0.748552
0.750586
0.753093
0.713026
0.713702
0.714426
0.714888
0.715316
0.715871
0.716539
0.717277
0.718084
0.718979
0.719976
0.72108
0.722301
0.723648
0.725132
0.726765
0.728559
0.730526
0.732679
0.735028
0.737583
0.740348
0.743325
0.746501
0.749851
0.75333
0.756828
0.7603
0.763166
0.766418
0.716591
0.717377
0.718208
0.718805
0.719381
0.720086
0.720906
0.721805
0.722781
0.723854
0.725036
0.726336
0.727762
0.729325
0.731037
0.732912
0.734961
0.737198
0.739636
0.742287
0.745161
0.748264
0.751596
0.755146
0.758888
0.762775
0.766709
0.770616
0.77403
0.777626
0.720146
0.721022
0.72194
0.722657
0.723368
0.724206
0.725162
0.726202
0.727327
0.728554
0.729898
0.731366
0.732969
0.734717
0.736623
0.7387
0.740961
0.74342
0.746089
0.748981
0.752105
0.755465
0.759061
0.762879
0.766889
0.771038
0.775226
0.77934
0.782983
0.78657
0.723602
0.724548
0.725531
0.726351
0.72718
0.728132
0.729202
0.730361
0.731611
0.732968
0.734445
0.736053
0.7378
0.739697
0.741758
0.743995
0.746422
0.749051
0.751894
0.754963
0.758266
0.761804
0.765574
0.769557
0.77372
0.777997
0.782285
0.786429
0.790091
0.793378
0.726867
0.727862
0.72889
0.729795
0.730721
0.731767
0.732928
0.734181
0.735529
0.736987
0.738568
0.740282
0.742138
0.744147
0.746321
0.748674
0.751217
0.753962
0.756922
0.760104
0.763514
0.767152
0.771009
0.775062
0.77927
0.783559
0.787819
0.791865
0.79542
0.798313
0.729856
0.730881
0.731934
0.732901
0.733904
0.73502
0.736247
0.737568
0.738985
0.740514
0.742167
0.743952
0.745879
0.74796
0.750205
0.752627
0.755237
0.758045
0.761062
0.764294
0.767743
0.771405
0.775268
0.7793
0.783455
0.787647
0.791758
0.795578
0.79886
0.801159
0.732497
0.733532
0.734592
0.735601
0.736656
0.737817
0.739084
0.740444
0.741902
0.743471
0.745161
0.746982
0.748943
0.751054
0.753327
0.755772
0.758399
0.761217
0.764234
0.767454
0.770875
0.77449
0.778279
0.782205
0.786211
0.790199
0.794037
0.797484
0.800288
0.801845
0.734735
0.735765
0.736815
0.737843
0.738925
0.740107
0.741387
0.742759
0.744227
0.745803
0.747497
0.749318
0.751275
0.753377
0.755634
0.758056
0.760651
0.763427
0.766389
0.769537
0.772867
0.776366
0.780006
0.783744
0.787509
0.791189
0.794633
0.797567
0.799759
0.80045
0.736543
0.737551
0.738576
0.739602
0.740688
0.741864
0.743132
0.744487
0.745936
0.747488
0.749153
0.750939
0.752855
0.754908
0.757108
0.759462
0.761979
0.764663
0.767516
0.770536
0.773713
0.777029
0.780449
0.783919
0.787357
0.790634
0.793588
0.7959
0.797416
0.79676
0.737918
0.738891
0.739879
0.740882
0.741946
0.743093
0.744324
0.745636
0.747038
0.748536
0.75014
0.751857
0.753695
0.755661
0.757764
0.760009
0.762402
0.764946
0.767639
0.770476
0.773442
0.776512
0.779645
0.782775
0.785809
0.788598
0.790971
0.792528
0.793309
0.790828
0.738886
0.739812
0.74075
0.741712
0.742733
0.743828
0.744998
0.746243
0.74757
0.748986
0.750499
0.752116
0.753842
0.755686
0.757653
0.759748
0.761974
0.764332
0.766818
0.76942
0.772121
0.774887
0.777669
0.780389
0.782942
0.78515
0.786846
0.787509
0.787512
0.78304
0.739499
0.740366
0.741243
0.742148
0.743106
0.744128
0.745216
0.746372
0.7476
0.748907
0.750301
0.751787
0.753372
0.75506
0.756856
0.758763
0.760782
0.762911
0.765142
0.76746
0.769841
0.772244
0.77461
0.776847
0.778837
0.780372
0.781295
0.780916
0.780021
0.773336
0.739816
0.74062
0.74143
0.742262
0.743141
0.744074
0.745063
0.746109
0.747217
0.748394
0.749645
0.750975
0.752388
0.753888
0.75548
0.757163
0.758937
0.760795
0.762727
0.764712
0.766718
0.768698
0.770581
0.772261
0.773606
0.774368
0.774404
0.772802
0.770818
0.761476
0.739939
0.74067
0.741399
0.742143
0.742926
0.743754
0.744628
0.745547
0.746518
0.747544
0.748629
0.749777
0.750992
0.752277
0.753632
0.755056
0.756546
0.758091
0.759678
0.76128
0.762858
0.764357
0.765692
0.766742
0.767354
0.767232
0.766252
0.763226
0.759976
0.747514
0.739949
0.740605
0.741243
0.741889
0.742569
0.743285
0.744033
0.744813
0.745632
0.746491
0.747394
0.748343
0.749339
0.750385
0.751478
0.752615
0.753787
0.754982
0.756181
0.757352
0.758447
0.7594
0.760115
0.760447
0.760225
0.759094
0.756959
0.752301
0.747628
0.731556
0.739993
0.740525
0.741007
0.741533
0.742108
0.742707
0.743319
0.743952
0.744607
0.745283
0.745982
0.746708
0.747464
0.748248
0.74905
0.749865
0.750684
0.751492
0.752262
0.752955
0.753516
0.753865
0.753891
0.753426
0.752278
0.750019
0.746601
0.740087
0.733909
0.713623
0.740371
0.740661
0.740884
0.741271
0.741751
0.742237
0.742718
0.743213
0.74372
0.744225
0.744721
0.745206
0.745711
0.746236
0.746736
0.747206
0.747644
0.748029
0.748326
0.748489
0.748451
0.74812
0.747365
0.74599
0.743783
0.74023
0.735376
0.726629
0.719012
0.693647
0.740769
0.740579
0.740539
0.740833
0.741231
0.741607
0.741956
0.742278
0.742578
0.74287
0.743154
0.743402
0.743624
0.743824
0.743981
0.744079
0.744102
0.744026
0.74381
0.7434
0.74272
0.74166
0.74007
0.737722
0.734384
0.729414
0.723155
0.711482
0.703213
0.671238
0.647443
0.620978
0.590523
0.557367
0.521931
0.483587
0.442066
0.398017
0.352453
0.306273
0.261078
0.217079
0.175703
0.14185
0.120774
0.113717
0.117657
0.127577
0.138803
0.14847
0.155908
0.161842
0.167176
0.172471
0.177918
0.183632
0.189733
0.195923
0.202732
0.209633
0.68722
0.664328
0.637186
0.607828
0.575834
0.540654
0.501349
0.458337
0.411823
0.36229
0.310967
0.259091
0.2084
0.163653
0.133861
0.122072
0.124312
0.134075
0.145403
0.154699
0.161376
0.166676
0.171695
0.176833
0.182359
0.188447
0.194702
0.200457
0.202581
0.209997
0.695474
0.674962
0.650193
0.622232
0.591125
0.556078
0.516931
0.474358
0.428345
0.379396
0.32807
0.275974
0.224906
0.178923
0.147875
0.135961
0.138543
0.149118
0.161667
0.17233
0.180878
0.188776
0.197016
0.205836
0.215256
0.224858
0.233874
0.241108
0.247293
0.256827
0.71125
0.692938
0.670453
0.645311
0.616716
0.583222
0.54487
0.501943
0.454634
0.403674
0.350277
0.296244
0.243597
0.196515
0.164051
0.15088
0.15261
0.163575
0.177047
0.189127
0.199784
0.210448
0.221755
0.233612
0.245709
0.257184
0.267265
0.275275
0.283155
0.288818
0.719146
0.703454
0.683708
0.661198
0.635187
0.604262
0.56796
0.52635
0.479585
0.428195
0.373437
0.317336
0.262516
0.21349
0.178911
0.16396
0.165355
0.177067
0.191677
0.205288
0.21795
0.230999
0.244659
0.258608
0.272338
0.284756
0.29555
0.304087
0.313323
0.316509
0.725929
0.712472
0.694953
0.674527
0.65041
0.62134
0.586634
0.546172
0.500035
0.448613
0.393022
0.335376
0.278763
0.228035
0.191785
0.17565
0.177182
0.189771
0.205502
0.220532
0.235024
0.250242
0.265914
0.281615
0.296742
0.310089
0.321635
0.329624
0.33828
0.334868
0.730657
0.719038
0.703813
0.685585
0.663553
0.63649
0.603537
0.564326
0.518797
0.467287
0.410884
0.351804
0.2935
0.241211
0.2036
0.186577
0.188348
0.201831
0.218719
0.235195
0.251537
0.268841
0.286213
0.303415
0.319844
0.334
0.346698
0.353234
0.355467
0.338168
0.734177
0.724271
0.710972
0.694727
0.674693
0.649644
0.618603
0.580936
0.536346
0.485023
0.428
0.367579
0.307554
0.25363
0.214681
0.196846
0.198927
0.213404
0.231538
0.249485
0.267629
0.286775
0.305497
0.324348
0.342261
0.356911
0.368762
0.371436
0.365034
0.333913
0.736739
0.728306
0.716736
0.702293
0.684117
0.660981
0.631818
0.595792
0.55236
0.501507
0.444134
0.382557
0.320873
0.265288
0.22504
0.206526
0.209062
0.224642
0.24406
0.263441
0.283285
0.303967
0.323825
0.344488
0.362869
0.379029
0.386017
0.380899
0.363638
0.324742
0.738613
0.731458
0.72143
0.708611
0.692152
0.67083
0.643495
0.609128
0.566955
0.516739
0.459211
0.396656
0.333414
0.276206
0.234748
0.215716
0.218843
0.235593
0.256291
0.27705
0.298494
0.320638
0.34153
0.362959
0.382678
0.395868
0.394847
0.379415
0.350869
0.306138
0.739983
0.733928
0.725236
0.713901
0.699025
0.679422
0.653869
0.621177
0.580348
0.530902
0.473376
0.409982
0.34527
0.286473
0.24388
0.224469
0.228301
0.24627
0.268232
0.290312
0.313313
0.337207
0.359125
0.380384
0.399295
0.40471
0.393641
0.368008
0.329512
0.281594
0.74098
0.735882
0.728378
0.718338
0.704908
0.686925
0.663092
0.632074
0.592658
0.544108
0.486729
0.422626
0.356516
0.296146
0.252471
0.232806
0.237456
0.256686
0.279888
0.30326
0.327877
0.353049
0.375301
0.396537
0.409142
0.405245
0.38507
0.351316
0.308285
0.26683
0.7417
0.73743
0.730963
0.722078
0.709964
0.693491
0.671303
0.641935
0.603973
0.556421
0.499321
0.434628
0.367189
0.305257
0.260544
0.240751
0.246331
0.266854
0.291273
0.315954
0.342296
0.366291
0.390644
0.408095
0.412209
0.399923
0.372143
0.334096
0.294726
0.264229
0.74221
0.738659
0.733104
0.725254
0.714334
0.699256
0.678628
0.650873
0.614387
0.567912
0.511205
0.446032
0.377324
0.313838
0.268126
0.248331
0.254946
0.276786
0.302407
0.328401
0.356061
0.379196
0.403188
0.414033
0.41017
0.390595
0.357198
0.319359
0.287584
0.267649
0.742559
0.739637
0.734884
0.727952
0.718126
0.704334
0.685179
0.65899
0.623987
0.578651
0.522437
0.456881
0.386962
0.321922
0.275246
0.255571
0.263321
0.286495
0.313308
0.34052
0.367309
0.392815
0.411394
0.414941
0.404674
0.378596
0.342402
0.307913
0.283097
0.268939
0.742782
0.740411
0.736371
0.730269
0.721427
0.708818
0.69105
0.666374
0.632848
0.588701
0.533068
0.46722
0.39614
0.329538
0.281928
0.262494
0.271469
0.296002
0.323982
0.352184
0.378215
0.403271
0.415218
0.412662
0.396581
0.365448
0.329234
0.299439
0.279335
0.267502
0.742903
0.741018
0.737612
0.732259
0.724311
0.71279
0.696323
0.6731
0.641037
0.598116
0.543142
0.477085
0.404889
0.336713
0.288193
0.269117
0.279406
0.305335
0.334455
0.362886
0.389399
0.410128
0.415597
0.408326
0.386615
0.352481
0.318324
0.292987
0.275946
0.265461
0.742942
0.741484
0.738644
0.733971
0.726842
0.716322
0.701069
0.679237
0.648615
0.606947
0.5527
0.486509
0.413239
0.34347
0.294063
0.27546
0.287148
0.314506
0.344705
0.372647
0.398578
0.413735
0.413889
0.4023
0.375647
0.340498
0.309632
0.287909
0.272904
0.262864
0.742917
0.741835
0.739499
0.735442
0.729068
0.719474
0.705353
0.684847
0.655638
0.61524
0.561778
0.495524
0.421217
0.349828
0.299557
0.281538
0.294713
0.323488
0.354335
0.38192
0.405371
0.414713
0.410954
0.394813
0.364451
0.33014
0.302606
0.283356
0.269927
0.259668
0.742841
0.742086
0.740202
0.736704
0.73102
0.722295
0.709229
0.689984
0.662154
0.623038
0.570412
0.504158
0.428849
0.355809
0.304695
0.287365
0.302126
0.332233
0.362615
0.390576
0.409644
0.413989
0.407062
0.386302
0.353829
0.321404
0.296674
0.279085
0.266598
0.255912
0.742721
0.742253
0.740772
0.737787
0.732743
0.724821
0.712744
0.694698
0.668208
0.630377
0.578634
0.51244
0.436155
0.36144
0.309489
0.292946
0.309415
0.340729
0.370381
0.397492
0.411626
0.412324
0.401989
0.37739
0.344162
0.313916
0.29102
0.274957
0.262886
0.251749
0.742564
0.742344
0.741226
0.738711
0.734264
0.727085
0.715935
0.699029
0.673841
0.637295
0.586474
0.520394
0.443159
0.366753
0.313959
0.298278
0.31658
0.348846
0.378021
0.402334
0.412146
0.410168
0.395965
0.368561
0.335502
0.307313
0.285909
0.270776
0.25881
0.247334
0.742374
0.742371
0.741575
0.739492
0.735599
0.729115
0.718837
0.703016
0.679088
0.643822
0.593956
0.528042
0.449874
0.371776
0.318053
0.303338
0.323568
0.356127
0.384824
0.405332
0.41193
0.407503
0.389555
0.36004
0.327748
0.301314
0.281026
0.266254
0.254568
0.242781
0.742159
0.742343
0.741832
0.740145
0.736768
0.730937
0.721482
0.70669
0.683981
0.649989
0.601111
0.535413
0.456331
0.376482
0.321792
0.30822
0.330334
0.362483
0.390333
0.406917
0.411438
0.404222
0.382903
0.351939
0.32072
0.295658
0.276311
0.262007
0.250315
0.238244
0.741937
0.742275
0.74201
0.740684
0.737785
0.732568
0.723896
0.710083
0.688548
0.655812
0.607943
0.542504
0.462526
0.38088
0.325132
0.312932
0.336848
0.368579
0.39421
0.407742
0.410731
0.400536
0.376143
0.344358
0.31424
0.2901
0.271691
0.257805
0.246039
0.233915
0.74171
0.74217
0.742116
0.741122
0.738666
0.734019
0.726097
0.713222
0.692837
0.661361
0.614532
0.549397
0.468529
0.38508
0.328305
0.317394
0.342948
0.3741
0.396679
0.408472
0.409743
0.396414
0.36936
0.337291
0.308214
0.284914
0.267194
0.253623
0.241842
0.229914
0.741477
0.742028
0.74216
0.741465
0.739426
0.735318
0.728091
0.716078
0.696762
0.666505
0.620726
0.555931
0.474194
0.388767
0.330654
0.32155
0.348215
0.378135
0.398199
0.409257
0.4085
0.391882
0.362725
0.330694
0.302407
0.279801
0.262682
0.249634
0.23783
0.226246
0.741257
0.74185
0.74215
0.741727
0.740052
0.736497
0.730003
0.718918
0.700718
0.671687
0.626999
0.562639
0.480185
0.393298
0.333858
0.32568
0.352767
0.380484
0.399263
0.409784
0.406819
0.386921
0.356743
0.32471
0.296769
0.275032
0.258614
0.24586
0.234035
0.222944
0.741095
0.741654
0.742089
0.741936
0.740574
0.737308
0.731282
0.72089
0.703627
0.675612
0.631742
0.567453
0.483885
0.394793
0.334735
0.328194
0.35632
0.382202
0.400679
0.41046
0.405494
0.383749
0.351186
0.319088
0.291948
0.270606
0.254629
0.242149
0.230354
0.220065
0.74101
0.741446
0.741947
0.742044
0.741205
0.738676
0.733531
0.724261
0.708436
0.682159
0.640093
0.576872
0.492534
0.400969
0.338562
0.330696
0.358755
0.384291
0.402008
0.410553
0.402627
0.376104
0.341204
0.310248
0.284618
0.264472
0.249252
0.237168
0.225964
0.217757
0.392864
0.371479
0.322197
0.261465
0.215483
0.203627
0.244133
0.321485
0.391968
0.438026
0.466531
0.485541
0.498478
0.507504
0.51432
0.519967
0.525083
0.530099
0.535291
0.540818
0.546744
0.553078
0.559906
0.567009
0.57474
0.582519
0.591472
0.599942
0.611499
0.616282
0.400453
0.374018
0.314289
0.236744
0.18263
0.169419
0.21257
0.293918
0.375065
0.431395
0.465838
0.487549
0.500938
0.50946
0.515547
0.520385
0.524645
0.528797
0.533161
0.537922
0.543159
0.548845
0.555071
0.561737
0.568964
0.576317
0.584315
0.591611
0.600448
0.606705
0.413047
0.38495
0.320858
0.235156
0.171848
0.151239
0.188835
0.267983
0.355248
0.422491
0.465693
0.490886
0.505078
0.513252
0.518465
0.522168
0.525226
0.528178
0.531383
0.535078
0.539353
0.544246
0.549747
0.555806
0.562507
0.569593
0.577221
0.584941
0.5935
0.602319
0.422817
0.39554
0.336373
0.254809
0.184058
0.159732
0.189617
0.263693
0.351167
0.425037
0.474938
0.503491
0.517553
0.524055
0.527003
0.528452
0.529469
0.530589
0.532129
0.534372
0.537514
0.541565
0.546353
0.551883
0.558247
0.565227
0.57285
0.58097
0.589572
0.598447
0.415018
0.390818
0.34168
0.27938
0.220921
0.193373
0.216363
0.283264
0.366235
0.439341
0.492658
0.523489
0.53714
0.541112
0.540707
0.53881
0.536803
0.535314
0.534516
0.534774
0.536193
0.538747
0.542358
0.546988
0.552654
0.559125
0.566373
0.574276
0.582664
0.591356
0.378164
0.361571
0.323956
0.282772
0.250615
0.237847
0.260844
0.316356
0.390884
0.461245
0.515626
0.548247
0.561953
0.563694
0.559565
0.553464
0.547605
0.542475
0.538336
0.535789
0.534936
0.535622
0.53749
0.540893
0.545502
0.55099
0.557613
0.565166
0.573417
0.582138
0.315739
0.309157
0.282845
0.258966
0.246176
0.25471
0.288111
0.344431
0.414382
0.481755
0.535429
0.570216
0.586574
0.58853
0.581998
0.571897
0.561885
0.553188
0.545451
0.538807
0.534546
0.532598
0.532568
0.534249
0.537021
0.541245
0.54712
0.554025
0.561946
0.570826
0.239629
0.247484
0.230004
0.216155
0.215472
0.234469
0.277362
0.341913
0.415978
0.487669
0.543144
0.579656
0.600091
0.60592
0.600094
0.588639
0.575713
0.563602
0.552904
0.543407
0.536116
0.531072
0.527648
0.526145
0.526671
0.529901
0.534979
0.540637
0.547584
0.555699
0.16476
0.190617
0.179575
0.173726
0.1777
0.198036
0.238917
0.30166
0.3806
0.459955
0.52549
0.571108
0.597387
0.608277
0.606781
0.597453
0.584329
0.570422
0.557012
0.544677
0.534385
0.526491
0.520611
0.516847
0.515561
0.516182
0.518121
0.522495
0.528899
0.535691
0.103066
0.141639
0.135461
0.135879
0.142655
0.162571
0.198248
0.254214
0.32785
0.406674
0.476552
0.530159
0.565796
0.585402
0.592627
0.590502
0.581788
0.569987
0.556887
0.543714
0.531434
0.520623
0.511639
0.504755
0.500269
0.498146
0.498351
0.50119
0.50563
0.511516
0.0559565
0.101877
0.09868
0.104464
0.113054
0.131704
0.162319
0.209859
0.274516
0.347071
0.415177
0.470438
0.509923
0.534797
0.547848
0.552163
0.551073
0.545624
0.537325
0.527751
0.517729
0.50786
0.49867
0.490586
0.483997
0.479232
0.476532
0.476236
0.478198
0.483133
0.024418
0.0711412
0.0710204
0.0795931
0.0889835
0.106525
0.132857
0.172635
0.227561
0.290642
0.351799
0.403606
0.443157
0.470744
0.488126
0.497398
0.500576
0.499237
0.495064
0.488909
0.481691
0.474111
0.466689
0.459853
0.453981
0.449366
0.44623
0.44474
0.444876
0.447171
0.00642507
0.0531464
0.0514245
0.0590219
0.0691304
0.0844612
0.107413
0.141508
0.188173
0.241764
0.294351
0.340319
0.377199
0.404743
0.423857
0.435882
0.442241
0.444208
0.442826
0.438849
0.433004
0.425996
0.418527
0.411222
0.40461
0.399226
0.395312
0.393758
0.394218
0.395533
-0.000145813
0.0433355
0.0386617
0.0424456
0.0505539
0.0625795
0.0824426
0.113117
0.154322
0.200313
0.245327
0.285292
0.31821
0.343645
0.362048
0.374305
0.381477
0.384568
0.384376
0.381466
0.376286
0.369307
0.361061
0.352162
0.343286
0.335137
0.32836
0.323549
0.320893
0.320743
0.00398823
0.037648
0.0304009
0.0285391
0.0304591
0.0376053
0.0537106
0.0830254
0.121866
0.163711
0.203917
0.239271
0.268255
0.290592
0.306664
0.317227
0.323205
0.325452
0.32455
0.320765
0.314267
0.305374
0.294527
0.282397
0.269847
0.25774
0.246806
0.237711
0.231034
0.227488
0.0188843
0.0384189
0.0255556
0.0155865
0.00728591
0.00744625
0.0188611
0.0484711
0.0884008
0.130088
0.168909
0.20191
0.228054
0.247484
0.260774
0.268753
0.272366
0.272399
0.269247
0.262906
0.253241
0.240635
0.225418
0.208116
0.189759
0.171455
0.154237
0.139049
0.126691
0.117543
0.0436719
0.0481529
0.0266172
0.00539873
-0.0156896
-0.027316
-0.0203844
0.010848
0.0550189
0.0999741
0.140552
0.17365
0.198614
0.21612
0.227073
0.232485
0.233416
0.23066
0.224436
0.214541
0.200712
0.183296
0.162806
0.139796
0.115185
0.0902497
0.066164
0.0438912
0.0246256
0.00853269
0.0784601
0.0700853
0.039847
0.00617166
-0.0290104
-0.0534154
-0.0538763
-0.0220101
0.0270764
0.0767341
0.121184
0.156442
0.181764
0.19849
0.207893
0.211216
0.209681
0.20417
0.194837
0.181424
0.163801
0.14159
0.115878
0.0873547
0.0571223
0.0263977
-0.00355152
-0.0317746
-0.0569021
-0.0792856
0.12186
0.106262
0.0710638
0.0276469
-0.0204169
-0.0581572
-0.0677511
-0.0375886
0.0148384
0.0684599
0.116442
0.153664
0.17973
0.196242
0.204703
0.206487
0.202946
0.195058
0.18301
0.166423
0.145251
0.11954
0.0897837
0.0569597
0.0223461
-0.0128508
-0.0473174
-0.0799531
-0.109471
-0.136494
0.171106
0.15375
0.118727
0.0723124
0.0171693
-0.0315123
-0.0510893
-0.0250428
0.0276394
0.082325
0.130005
0.166732
0.192723
0.208893
0.216665
0.217389