/*--------------------------------*- C++ -*----------------------------------*\
  =========                 |
  \\      /  F ield         | OpenFOAM: The Open Source CFD Toolbox
   \\    /   O peration     | Website:  https://openfoam.org
    \\  /    A nd           | Version:  11
     \\/     M anipulation  |
\*---------------------------------------------------------------------------*/
FoamFile
{
    format      ascii;
    class       volScalarField;
    location    "2";
    object      p;
}
// * * * * * * * * * * * * * * * * * * * * * * * * * * * * * * * * * * * * * //

dimensions      [0 2 -2 0 0 0 0];

internalField   nonuniform List<scalar> 
12600
(
0.0889973
0.0888622
0.0887998
0.0887835
0.0887707
0.0887531
0.0887343
0.0887161
0.0886986
0.0886809
0.0886629
0.0886441
0.0886244
0.0886037
0.0885816
0.0885577
0.0885316
0.0885025
0.0884697
0.0884327
0.0883902
0.0883398
0.0882795
0.0882069
0.0881175
0.0880051
0.0878608
0.0876687
0.0874084
0.0869856
0.0889224
0.0888528
0.0888018
0.0887823
0.0887684
0.0887516
0.0887333
0.0887153
0.0886978
0.0886804
0.0886624
0.0886437
0.0886241
0.0886035
0.0885816
0.0885579
0.088532
0.0885034
0.0884709
0.0884345
0.0883926
0.0883434
0.0882848
0.0882137
0.0881261
0.0880157
0.087878
0.0876961
0.0874921
0.0872927
0.088886
0.0888534
0.0888093
0.0887839
0.0887684
0.0887523
0.0887344
0.0887165
0.0886991
0.0886816
0.0886637
0.0886451
0.0886257
0.0886053
0.0885836
0.0885602
0.0885348
0.0885072
0.0884752
0.0884395
0.0883984
0.0883506
0.0882938
0.0882251
0.0881411
0.0880366
0.0879061
0.0877413
0.0875519
0.0873276
0.0888606
0.0888407
0.0888063
0.0887807
0.0887648
0.0887496
0.0887326
0.0887151
0.088698
0.0886809
0.0886633
0.088645
0.0886258
0.0886058
0.0885846
0.0885614
0.0885366
0.0885088
0.0884787
0.0884441
0.0884045
0.0883588
0.0883047
0.0882397
0.0881606
0.088063
0.0879416
0.0877908
0.0876041
0.0873702
0.0888418
0.0888289
0.0888036
0.0887806
0.0887644
0.0887495
0.0887332
0.0887161
0.0886992
0.0886823
0.0886649
0.0886469
0.0886281
0.0886084
0.0885879
0.0885647
0.0885404
0.0885137
0.0884845
0.0884514
0.0884138
0.0883704
0.0883196
0.088259
0.0881858
0.0880963
0.0879854
0.0878479
0.0876701
0.0874482
0.0888275
0.0888187
0.0887995
0.0887791
0.0887628
0.088748
0.0887322
0.0887157
0.0886991
0.0886823
0.0886652
0.0886474
0.0886289
0.0886095
0.0885885
0.0885672
0.0885437
0.0885181
0.0884901
0.0884588
0.0884234
0.0883829
0.0883359
0.0882806
0.0882143
0.0881341
0.088035
0.0879126
0.0877507
0.0875489
0.0888165
0.08881
0.088795
0.0887772
0.0887614
0.088747
0.088732
0.0887161
0.0886998
0.0886834
0.0886666
0.0886492
0.0886311
0.0886122
0.088592
0.0885711
0.0885485
0.0885241
0.0884975
0.088468
0.0884351
0.0883979
0.0883553
0.0883057
0.0882471
0.0881772
0.0880915
0.0879864
0.0878456
0.0876713
0.0888079
0.0888028
0.0887907
0.0887752
0.0887603
0.0887462
0.0887316
0.0887162
0.0887003
0.0886841
0.0886676
0.0886506
0.0886329
0.0886144
0.088595
0.0885747
0.0885531
0.0885299
0.0885049
0.0884775
0.0884473
0.0884137
0.0883757
0.0883324
0.0882822
0.0882234
0.0881525
0.0880668
0.0879514
0.087811
0.088801
0.0887968
0.0887868
0.0887733
0.0887592
0.0887455
0.0887314
0.0887164
0.0887009
0.0886851
0.088669
0.0886523
0.0886351
0.0886172
0.0885986
0.0885791
0.0885586
0.0885367
0.0885134
0.0884882
0.0884608
0.0884309
0.0883979
0.0883612
0.0883199
0.0882729
0.0882178
0.0881535
0.0880668
0.0879653
0.0887956
0.0887921
0.0887835
0.0887714
0.0887583
0.088745
0.0887313
0.0887168
0.0887017
0.0886862
0.0886704
0.0886542
0.0886375
0.0886201
0.0886022
0.0885836
0.0885641
0.0885436
0.088522
0.0884991
0.0884747
0.0884487
0.0884208
0.0883909
0.0883586
0.0883239
0.0882854
0.0882436
0.0881883
0.0881294
0.0887915
0.0887884
0.0887808
0.0887699
0.0887576
0.0887447
0.0887313
0.0887172
0.0887025
0.0886874
0.088672
0.0886562
0.0886399
0.0886232
0.088606
0.0885883
0.08857
0.0885509
0.0885312
0.0885106
0.0884892
0.088467
0.0884443
0.0884212
0.088398
0.0883756
0.088354
0.0883354
0.0883129
0.0882992
0.0887885
0.0887857
0.0887788
0.0887688
0.0887571
0.0887446
0.0887316
0.0887178
0.0887035
0.0886887
0.0886736
0.0886583
0.0886425
0.0886264
0.08861
0.0885932
0.088576
0.0885584
0.0885404
0.0885221
0.0885037
0.0884854
0.0884677
0.0884512
0.088437
0.0884267
0.0884217
0.0884261
0.0884368
0.0884692
0.0887864
0.0887839
0.0887775
0.088768
0.0887569
0.0887448
0.088732
0.0887185
0.0887045
0.0886901
0.0886754
0.0886604
0.0886452
0.0886297
0.0886141
0.0885982
0.0885821
0.0885659
0.0885497
0.0885337
0.0885182
0.0885036
0.0884907
0.0884806
0.0884749
0.088476
0.0884869
0.0885134
0.0885564
0.088634
0.0887853
0.0887828
0.0887768
0.0887678
0.0887569
0.0887451
0.0887326
0.0887194
0.0887057
0.0886916
0.0886772
0.0886627
0.0886479
0.0886331
0.0886182
0.0886032
0.0885883
0.0885735
0.088559
0.0885452
0.0885324
0.0885213
0.0885129
0.0885086
0.0885107
0.0885224
0.0885478
0.0885945
0.0886677
0.0887876
0.0887849
0.0887826
0.0887767
0.0887679
0.0887573
0.0887457
0.0887333
0.0887204
0.0887069
0.0886931
0.0886791
0.0886649
0.0886507
0.0886365
0.0886223
0.0886082
0.0885943
0.0885809
0.0885681
0.0885563
0.088546
0.0885382
0.0885339
0.0885349
0.0885439
0.0885647
0.0886028
0.0886671
0.0887668
0.088924
0.0887854
0.0887831
0.0887773
0.0887685
0.088758
0.0887465
0.0887343
0.0887215
0.0887082
0.0886947
0.088681
0.0886672
0.0886535
0.0886398
0.0886263
0.0886131
0.0886003
0.0885881
0.0885769
0.088567
0.0885591
0.0885541
0.0885533
0.0885589
0.0885737
0.0886022
0.0886506
0.0887291
0.0888503
0.0890378
0.0887868
0.0887844
0.0887785
0.0887696
0.088759
0.0887475
0.0887354
0.0887227
0.0887096
0.0886963
0.0886829
0.0886695
0.0886562
0.0886431
0.0886303
0.0886179
0.0886061
0.0885951
0.0885853
0.0885771
0.0885713
0.0885688
0.0885711
0.0885803
0.0885997
0.088634
0.08869
0.0887786
0.0889153
0.0891241
0.0887889
0.0887864
0.0887803
0.0887711
0.0887603
0.0887487
0.0887366
0.088724
0.088711
0.0886979
0.0886848
0.0886718
0.0886589
0.0886464
0.0886342
0.0886225
0.0886116
0.0886018
0.0885932
0.0885866
0.0885825
0.0885821
0.0885869
0.088599
0.0886216
0.0886597
0.0887204
0.0888147
0.0889597
0.0891793
0.0887919
0.0887893
0.0887827
0.088773
0.0887618
0.0887501
0.088738
0.0887254
0.0887125
0.0886995
0.0886867
0.088674
0.0886616
0.0886495
0.0886379
0.088627
0.0886169
0.088608
0.0886007
0.0885953
0.0885928
0.0885941
0.0886006
0.0886147
0.0886393
0.0886792
0.0887415
0.0888367
0.0889826
0.0892015
0.0887959
0.088793
0.0887857
0.0887753
0.0887636
0.0887517
0.0887395
0.0887268
0.088714
0.0887012
0.0886885
0.0886761
0.0886641
0.0886525
0.0886414
0.0886312
0.0886219
0.0886139
0.0886075
0.0886034
0.088602
0.0886046
0.0886124
0.0886274
0.0886527
0.0886925
0.0887534
0.0888449
0.0889842
0.0891906
0.0888009
0.0887976
0.0887893
0.0887779
0.0887656
0.0887534
0.088741
0.0887283
0.0887155
0.0887027
0.0886903
0.0886782
0.0886665
0.0886553
0.0886448
0.0886351
0.0886265
0.0886193
0.0886138
0.0886106
0.0886102
0.0886136
0.0886221
0.0886374
0.0886621
0.0886999
0.0887565
0.0888401
0.0889657
0.0891486
0.0888071
0.0888032
0.0887935
0.0887807
0.0887676
0.0887552
0.0887427
0.0887298
0.0887169
0.0887043
0.088692
0.0886801
0.0886687
0.0886579
0.0886479
0.0886388
0.0886308
0.0886243
0.0886196
0.0886171
0.0886174
0.0886213
0.08863
0.0886448
0.0886679
0.0887022
0.0887523
0.0888242
0.0889301
0.0890801
0.0888148
0.0888099
0.0887983
0.0887836
0.0887698
0.0887571
0.0887444
0.0887313
0.0887183
0.0887057
0.0886936
0.0886819
0.0886708
0.0886603
0.0886506
0.088642
0.0886346
0.0886286
0.0886245
0.0886226
0.0886234
0.0886276
0.088636
0.0886498
0.0886704
0.0886999
0.0887416
0.0887991
0.0888809
0.0889909
0.0888242
0.0888179
0.0888034
0.0887865
0.0887719
0.088759
0.088746
0.0887327
0.0887196
0.0887071
0.0886952
0.0886837
0.0886728
0.0886627
0.0886534
0.0886452
0.0886383
0.0886328
0.0886292
0.0886278
0.0886289
0.0886331
0.088641
0.0886532
0.0886708
0.0886947
0.0887267
0.0887681
0.0888231
0.0888893
0.0888358
0.0888272
0.0888086
0.0887892
0.0887741
0.088761
0.0887475
0.0887337
0.0887205
0.0887081
0.0886962
0.0886849
0.0886742
0.0886643
0.0886554
0.0886475
0.088641
0.088636
0.0886328
0.0886316
0.0886329
0.0886369
0.0886441
0.0886546
0.0886688
0.0886867
0.0887085
0.0887332
0.088761
0.0887832
0.0888506
0.088838
0.0888133
0.0887913
0.0887764
0.0887634
0.0887495
0.0887354
0.0887221
0.0887097
0.0886979
0.0886867
0.0886762
0.0886666
0.0886579
0.0886504
0.0886441
0.0886395
0.0886366
0.0886357
0.088637
0.0886408
0.0886471
0.0886558
0.0886664
0.0886782
0.0886898
0.0886983
0.0887008
0.0886826
0.08887
0.0888503
0.0888166
0.0887921
0.0887775
0.0887642
0.0887497
0.0887353
0.0887221
0.0887097
0.0886981
0.0886871
0.0886768
0.0886673
0.0886589
0.0886517
0.0886458
0.0886414
0.0886388
0.0886381
0.0886394
0.088643
0.0886486
0.0886555
0.0886629
0.0886688
0.0886709
0.0886642
0.0886461
0.0885942
0.0888957
0.0888635
0.0888202
0.0887956
0.0887815
0.0887673
0.0887519
0.0887373
0.0887239
0.0887116
0.0886999
0.0886889
0.0886786
0.0886693
0.088661
0.088654
0.0886483
0.0886441
0.0886417
0.0886412
0.0886424
0.0886455
0.0886505
0.0886559
0.0886605
0.0886613
0.0886546
0.0886337
0.0886002
0.0885311
0.0889324
0.0888632
0.088813
0.0887944
0.0887821
0.088767
0.0887512
0.0887366
0.0887234
0.0887112
0.0886996
0.0886887
0.0886787
0.0886695
0.0886615
0.0886546
0.0886491
0.0886451
0.0886429
0.0886425
0.088644
0.0886473
0.0886516
0.0886559
0.0886583
0.0886553
0.088641
0.0886064
0.0885509
0.0884901
0.0890075
0.0888726
0.0888111
0.0887959
0.0887845
0.0887687
0.0887524
0.0887377
0.0887245
0.0887122
0.0887006
0.0886897
0.0886797
0.0886706
0.0886625
0.0886556
0.0886502
0.0886465
0.0886442
0.0886439
0.0886459
0.0886493
0.0886532
0.0886569
0.0886583
0.0886532
0.088634
0.0885888
0.0884822
0.088265
0.0872122
0.0865777
0.0863017
0.0863551
0.0863984
0.0863476
0.0862527
0.0861648
0.0860925
0.0860337
0.0859898
0.0859642
0.0859594
0.0859769
0.0860191
0.0860888
0.0861894
0.0863249
0.0864991
0.0867157
0.0869777
0.087282
0.087635
0.0879473
0.0884069
0.0879692
0.0890657
0.0825211
0.0872316
0.0405613
0.0876472
0.087066
0.0867022
0.0866694
0.0866433
0.0865613
0.0864658
0.0863901
0.0863421
0.0863121
0.0862982
0.0863038
0.086332
0.0863851
0.0864662
0.0865796
0.0867299
0.0869226
0.087164
0.087461
0.0878204
0.088248
0.0887486
0.0892915
0.0899408
0.0901436
0.0912268
0.0870089
0.090801
0.0526958
0.0872076
0.0869108
0.0867296
0.0867322
0.0867313
0.0866726
0.0866133
0.0865778
0.0865631
0.0865624
0.0865775
0.0866139
0.0866755
0.0867653
0.0868874
0.0870468
0.0872498
0.0875036
0.0878168
0.0881997
0.0886639
0.0892222
0.0898869
0.0906576
0.0915618
0.0923225
0.093631
0.0914451
0.0947804
0.0649251
0.0871553
0.0870442
0.0869691
0.0869433
0.0869182
0.0868746
0.0868396
0.0868278
0.0868361
0.0868612
0.0869057
0.0869748
0.087072
0.087201
0.0873669
0.0875758
0.0878355
0.0881551
0.0885459
0.0890218
0.0895994
0.0902987
0.091142
0.0921511
0.0933511
0.0946364
0.0963339
0.0959571
0.0992454
0.0770619
0.0872094
0.0871577
0.0871236
0.0870997
0.0870823
0.0870691
0.0870682
0.087086
0.0871221
0.0871768
0.0872535
0.0873568
0.0874912
0.0876614
0.0878734
0.0881348
0.0884548
0.0888447
0.0893185
0.0898939
0.0905927
0.0914426
0.0924769
0.0937362
0.0952622
0.097055
0.0992701
0.100504
0.104139
0.0890232
0.0873167
0.087304
0.0873071
0.0873021
0.0873005
0.0873106
0.0873356
0.0873779
0.0874396
0.0875229
0.0876314
0.0877697
0.0879427
0.0881559
0.0884165
0.0887332
0.089117
0.0895813
0.090143
0.0908238
0.0916512
0.0926606
0.0938967
0.0954181
0.0972901
0.0995863
0.102402
0.105085
0.109355
0.10067
0.0874611
0.0874764
0.087506
0.0875187
0.0875339
0.0875662
0.087617
0.0876863
0.0877761
0.0878899
0.0880318
0.0882065
0.0884196
0.0886777
0.088989
0.0893636
0.0898142
0.0903565
0.0910106
0.0918022
0.0927644
0.0939407
0.0953874
0.0971807
0.0994119
0.10221
0.105677
0.109665
0.114792
0.111832
0.087631
0.0876697
0.0877222
0.0877544
0.0877894
0.0878446
0.0879208
0.0880165
0.0881342
0.0882783
0.0884536
0.0886652
0.0889194
0.0892236
0.0895872
0.0900217
0.0905416
0.0911649
0.0919149
0.0928213
0.0939231
0.0952718
0.0969353
0.0990068
0.101604
0.104901
0.109039
0.114203
0.12035
0.122326
0.0878221
0.0878811
0.0879539
0.0880054
0.0880605
0.0881379
0.0882385
0.0883603
0.088506
0.0886809
0.0888901
0.0891392
0.0894352
0.0897864
0.0902034
0.0906992
0.0912899
0.0919961
0.0928441
0.093868
0.0951122
0.0966362
0.0985192
0.100871
0.103833
0.10762
0.112426
0.118643
0.125908
0.131991
0.0880279
0.0881053
0.0881965
0.0882669
0.0883421
0.0884414
0.0885657
0.0887133
0.0888869
0.0890922
0.0893349
0.0896214
0.0899591
0.0903575
0.0908281
0.0913854
0.0920474
0.092837
0.0937836
0.0949253
0.0963123
0.0980114
0.100113
0.10274
0.106061
0.110319
0.115768
0.122917
0.131329
0.140676
0.0882439
0.0883374
0.0884447
0.0885332
0.0886279
0.0887482
0.0888954
0.0890677
0.0892683
0.0895032
0.0897787
0.0901017
0.0904804
0.0909251
0.0914485
0.0920664
0.0927987
0.0936705
0.0947143
0.095972
0.097499
0.0993692
0.101683
0.104577
0.108239
0.112941
0.118987
0.126946
0.136453
0.148172
0.0884628
0.0885703
0.0886916
0.0887969
0.0889104
0.0890505
0.089219
0.0894146
0.0896408
0.0899038
0.0902106
0.0905685
0.0909864
0.0914754
0.0920495
0.0927257
0.0935255
0.0944764
0.0956134
0.0969823
0.0986431
0.100676
0.10319
0.106335
0.110314
0.11542
0.122002
0.130644
0.141103
0.154216
0.0886777
0.0887968
0.0889294
0.08905
0.0891807
0.0893389
0.0895268
0.0897436
0.0899933
0.0902822
0.0906177
0.0910078
0.0914619
0.0919922
0.0926133
0.0933436
0.0942064
0.0952308
0.0964546
0.0979267
0.0997113
0.101894
0.104592
0.107963
0.112226
0.117688
0.124729
0.133921
0.145131
0.158819
0.0888802
0.0890083
0.0891496
0.0892832
0.0894292
0.0896033
0.0898079
0.0900432
0.0903133
0.090625
0.0909858
0.0914042
0.0918905
0.0924572
0.0931202
0.0938988
0.0948177
0.0959078
0.0972089
0.0987727
0.100667
0.102983
0.105841
0.109409
0.113914
0.119671
0.127084
0.136688
0.14844
0.162367
0.0890618
0.0891962
0.0893433
0.0894874
0.089646
0.0898329
0.090051
0.0903013
0.090588
0.0909182
0.0912998
0.0917416
0.0922545
0.0928516
0.0935495
0.0943686
0.0953345
0.0964798
0.0978459
0.0994868
0.101473
0.103899
0.106889
0.110616
0.115314
0.1213
0.128986
0.138856
0.150952
0.164605
0.0892143
0.089352
0.0895018
0.0896531
0.089821
0.0900172
0.0902448
0.0905057
0.0908045
0.0911481
0.0915449
0.0920039
0.0925365
0.0931564
0.0938806
0.0947304
0.0957323
0.0969198
0.0983358
0.100036
0.102092
0.104601
0.10769
0.111534
0.116367
0.122505
0.130358
0.140343
0.152544
0.165231
0.08933
0.0894678
0.0896173
0.0897722
0.0899454
0.0901466
0.0903792
0.0906456
0.0909509
0.091302
0.0917073
0.0921763
0.0927205
0.0933541
0.0940946
0.0949636
0.0959883
0.097203
0.0986512
0.100389
0.102491
0.105052
0.108202
0.112114
0.117022
0.123228
0.131133
0.141064
0.153061
0.16443
0.0894029
0.0895377
0.0896835
0.0898381
0.0900121
0.0902136
0.0904458
0.0907122
0.0910177
0.0913695
0.0917759
0.0922466
0.0927933
0.0934304
0.0941757
0.095051
0.0960838
0.0973086
0.0987693
0.100522
0.102641
0.105222
0.108392
0.112321
0.117236
0.123423
0.131257
0.140949
0.152428
0.162271
0.0894294
0.0895579
0.0896968
0.0898467
0.0900165
0.0902129
0.0904393
0.0906994
0.0909984
0.0913435
0.0917428
0.0922062
0.0927455
0.0933751
0.0941128
0.0949804
0.0960054
0.0972221
0.0986742
0.100418
0.102524
0.105089
0.108236
0.112128
0.116982
0.123058
0.130697
0.139962
0.150761
0.158608
0.0894087
0.0895276
0.0896564
0.0897971
0.0899576
0.0901434
0.090358
0.0906054
0.0908908
0.0912213
0.091605
0.0920518
0.0925732
0.0931836
0.0939006
0.094746
0.0957466
0.0969364
0.098358
0.100066
0.102131
0.104644
0.107724
0.111525
0.11625
0.122127
0.129455
0.138119
0.148174
0.153285
0.089343
0.0894489
0.0895644
0.0896915
0.0898373
0.0900069
0.0902038
0.0904319
0.0906966
0.0910047
0.0913643
0.0917848
0.0922779
0.0928575
0.0935409
0.0943493
0.0953091
0.0964531
0.0978228
0.0994708
0.101464
0.103891
0.106862
0.11052
0.115052
0.120645
0.127559
0.135455
0.144715
0.146526
0.0892387
0.0893286
0.0894275
0.0895365
0.0896624
0.0898104
0.0899837
0.0901862
0.090423
0.0907009
0.0910277
0.0914127
0.091867
0.0924044
0.0930416
0.0937989
0.0947019
0.0957822
0.0970792
0.0986433
0.100538
0.102845
0.105667
0.109134
0.113411
0.118637
0.125046
0.132016
0.140441
0.138563
0.089104
0.0891748
0.0892536
0.0893404
0.0894417
0.089563
0.0897075
0.0898784
0.090081
0.0903215
0.0906076
0.0909482
0.0913542
0.0918386
0.0924174
0.0931103
0.0939415
0.0949409
0.096146
0.0976037
0.0993732
0.101529
0.104166
0.107396
0.111363
0.11615
0.121982
0.127878
0.135429
0.129172
0.0889519
0.0890007
0.0890557
0.0891159
0.0891881
0.0892778
0.0893879
0.0895214
0.0896832
0.0898796
0.0901177
0.090406
0.0907548
0.0911765
0.0916864
0.0923029
0.0930488
0.0939522
0.095048
0.0963795
0.098001
0.0999794
0.102398
0.105352
0.108963
0.11325
0.118448
0.123124
0.129792
0.118347
0.0887947
0.0888186
0.0888455
0.0888754
0.0889161
0.088972
0.0890443
0.0891356
0.089251
0.0893968
0.0895798
0.0898081
0.0900914
0.0904414
0.0908723
0.0914016
0.0920504
0.0928447
0.0938164
0.0950051
0.0964592
0.0982376
0.100413
0.103058
0.106276
0.110012
0.114534
0.117827
0.123668
0.106305
0.0886528
0.0886481
0.0886377
0.0886295
0.0886341
0.0886522
0.0886833
0.0887296
0.0887959
0.0888876
0.089011
0.0891739
0.0893855
0.0896568
0.090001
0.0904341
0.0909758
0.0916498
0.0924852
0.0935169
0.0947878
0.0963482
0.0982583
0.100571
0.103368
0.106508
0.11033
0.112098
0.117169
0.0932339
0.088545
0.0885091
0.0884549
0.0884104
0.0883817
0.0883585
0.0883401
0.0883332
0.0883436
0.0883749
0.0884326
0.0885241
0.0886582
0.0888447
0.0890957
0.089426
0.0898536
0.0903998
0.0910903
0.0919558
0.093033
0.094363
0.0959941
0.097956
0.100313
0.102821
0.105941
0.105994
0.11041
0.0793786
0.0885184
0.0883906
0.088246
0.0881649
0.0881197
0.088071
0.0880125
0.0879567
0.0879119
0.0878806
0.087869
0.0878852
0.0879371
0.0880331
0.0881843
0.0884044
0.0887096
0.0891192
0.0896557
0.0903454
0.0912189
0.092308
0.0936493
0.0952474
0.0971559
0.0989981
0.101448
0.0995753
0.103557
0.0649408
0.0888028
0.0884968
0.088177
0.0880101
0.0879157
0.0878194
0.0877163
0.0876129
0.0875084
0.0874121
0.0873278
0.0872662
0.0872352
0.0872406
0.0872923
0.0874032
0.0875877
0.0878626
0.088247
0.0887627
0.0894339
0.0902829
0.0913348
0.0925673
0.0940288
0.0951779
0.0970152
0.0930003
0.0967547
0.0501288
0.0886562
0.0881428
0.0878674
0.087792
0.0877468
0.0876395
0.0874899
0.0873253
0.087159
0.0869976
0.086834
0.0866886
0.0865667
0.0864697
0.0864065
0.0863908
0.0864366
0.0865587
0.0867735
0.0870987
0.0875526
0.0881477
0.0889011
0.0897549
0.0907836
0.0911828
0.0925594
0.0861022
0.089921
0.0351649
0.0217571
0.00755814
-0.00852775
-0.0254211
-0.0424169
-0.0592895
-0.0758073
-0.0916457
-0.106394
-0.119529
-0.130473
-0.138626
-0.143421
-0.144547
-0.142545
-0.13834
-0.133177
-0.128207
-0.123859
-0.12036
-0.118022
-0.116471
-0.115004
-0.113411
-0.111806
-0.11007
-0.107848
-0.105323
-0.102694
-0.100388
0.0827841
0.0723913
0.0609427
0.0494869
0.0374569
0.02456
0.0110547
-0.00281816
-0.0168405
-0.0306752
-0.0440752
-0.0568385
-0.0680515
-0.0769126
-0.0839212
-0.0893508
-0.0933038
-0.0963371
-0.0990398
-0.101691
-0.104431
-0.107038
-0.108865
-0.10969
-0.109001
-0.105402
-0.0988292
-0.0909036
-0.0849247
-0.0804138
0.0803079
0.0731507
0.0649621
0.055801
0.0453986
0.0338485
0.0212532
0.00797427
-0.00522738
-0.0179972
-0.0303483
-0.0418999
-0.0520049
-0.0604127
-0.067025
-0.0719301
-0.0753704
-0.0777333
-0.0793212
-0.0805267
-0.0814625
-0.0816372
-0.0803933
-0.077866
-0.0744579
-0.0703965
-0.0672445
-0.0656862
-0.0674983
-0.0713039
0.088895
0.0838565
0.077496
0.0702405
0.0620107
0.0526066
0.0420412
0.0305533
0.0184263
0.00587041
-0.00672076
-0.0187706
-0.029676
-0.0389596
-0.0463618
-0.0518967
-0.0557737
-0.0582963
-0.0597188
-0.0602099
-0.0597556
-0.0582438
-0.0557886
-0.0527421
-0.049661
-0.0471059
-0.045204
-0.0442935
-0.0434153
-0.0430405
0.0881704
0.0845063
0.0799849
0.074638
0.0682687
0.0607432
0.0520167
0.0421274
0.0312356
0.0196435
0.00776968
-0.00387499
-0.0147131
-0.0241841
-0.0318985
-0.0377255
-0.0417566
-0.0441983
-0.0452563
-0.045071
-0.0437859
-0.0415528
-0.0386141
-0.0352839
-0.0318495
-0.0284018
-0.0248109
-0.0209176
-0.0163824
-0.0116344
0.0884594
0.0857484
0.0822592
0.0779104
0.0726084
0.0662249
0.0586672
0.0499198
0.0400771
0.0293748
0.0181845
0.00700101
-0.00358448
-0.0129698
-0.0206827
-0.0264887
-0.0303921
-0.0325486
-0.0331386
-0.0323604
-0.0304251
-0.0275531
-0.0239801
-0.0199299
-0.0155424
-0.010843
-0.00579502
-0.00045365
0.00515071
0.0103028
0.0878254
0.0856956
0.0829355
0.0794564
0.0751154
0.0697761
0.063319
0.0556807
0.0468901
0.0371068
0.0266487
0.0159934
0.00574245
-0.00346682
-0.0110956
-0.0168242
-0.0205814
-0.0224756
-0.0226823
-0.0214279
-0.0189514
-0.0154968
-0.0113013
-0.00656687
-0.00143265
0.003996
0.00958979
0.0151137
0.0203782
0.0244944
0.0872865
0.0855782
0.0833457
0.0804776
0.0768076
0.0722294
0.0666094
0.0598554
0.0519486
0.0429887
0.0332387
0.0231402
0.0132848
0.00432976
-0.00313502
-0.00871978
-0.0122906
-0.0139094
-0.0137408
-0.0120293
-0.00904215
-0.00504937
-0.000306759
0.00496184
0.0105633
0.0162916
0.021914
0.0271596
0.0317994
0.0351022
0.0867644
0.0853268
0.0834362
0.080982
0.077868
0.0739051
0.0689651
0.0629432
0.0557883
0.0475561
0.0384615
0.0289078
0.0194696
0.0108154
0.00357324
-0.00181165
-0.00515621
-0.00647962
-0.00594196
-0.00380756
-0.000371019
0.00407228
0.0092388
0.0148657
0.0206979
0.0264651
0.0319234
0.0368373
0.0409898
0.0439737
0.0863535
0.0851085
0.0834688
0.0813417
0.078612
0.0751228
0.0707285
0.0653098
0.0587939
0.0512012
0.0427033
0.0336652
0.0246404
0.0163009
0.00930277
0.00413632
0.00102604
-8.47668e-06
0.000870937
0.00338254
0.00720578
0.0120163
0.0174976
0.0233489
0.0292724
0.034987
0.0402877
0.0449776
0.0489125
0.0519709
0.0860472
0.0849336
0.0834665
0.0815779
0.07915
0.0760313
0.0720753
0.0671549
0.0611809
0.054145
0.0461822
0.0376217
0.0289935
0.0209673
0.0142201
0.00927814
0.00640453
0.00565079
0.00684972
0.00970095
0.0138567
0.0189616
0.0246688
0.0306516
0.0366001
0.0422622
0.0474767
0.0520772
0.0560142
0.0592372
0.0858441
0.0848226
0.0834774
0.0817661
0.0795742
0.0767464
0.0731415
0.0686307
0.0631135
0.0565587
0.0490703
0.0409453
0.0326898
0.0249671
0.0184699
0.0137541
0.0111121
0.0106264
0.0121208
0.0152744
0.0197119
0.0250489
0.0309145
0.0369719
0.0429241
0.0485649
0.0537631
0.0583674
0.0623623
0.0655809
0.0857326
0.0847771
0.0835188
0.0819396
0.0799264
0.0773331
0.0740124
0.0698398
0.0647079
0.0585678
0.0514979
0.0437662
0.0358552
0.0284201
0.0221643
0.0176669
0.0152516
0.0150175
0.0167819
0.0202032
0.0248793
0.0304002
0.0363782
0.0424788
0.0484329
0.0540782
0.0592917
0.0639065
0.0678715
0.0708745
0.0856995
0.0847932
0.083599
0.0821216
0.0802507
0.0778392
0.0747486
0.0708558
0.0660485
0.0602646
0.0535616
0.0461818
0.0385853
0.0314178
0.0253905
0.0211013
0.0189034
0.018904
0.0209143
0.0245726
0.0294512
0.0351187
0.0411782
0.0473063
0.0532642
0.058917
0.0641263
0.0686836
0.072531
0.0751789
0.0857318
0.0848638
0.0837184
0.0823204
0.0805626
0.0782971
0.0753931
0.0717314
0.0671972
0.0617185
0.0553353
0.0482675
0.0409549
0.034033
0.0282185
0.0241255
0.0221321
0.0223507
0.0245854
0.0284538
0.0335045
0.0392893
0.045409
0.0515564
0.0575148
0.0631517
0.0682913
0.0727034
0.0763243
0.0783226
0.0858173
0.084981
0.0838746
0.0825406
0.0808744
0.078728
0.0759761
0.0725054
0.0682005
0.0629823
0.0568764
0.0500831
0.0430236
0.0363239
0.0307047
0.0267943
0.0249916
0.0254122
0.0278516
0.0319066
0.0371039
0.0429827
0.0491464
0.0553041
0.0612476
0.0668212
0.0718192
0.0759939
0.0791896
0.0803567
0.0859448
0.0851368
0.0840637
0.0827831
0.0811927
0.0791454
0.0765195
0.0732071
0.0690942
0.0640973
0.0582299
0.0516756
0.0448393
0.0383375
0.0328948
0.029152
0.0275262
0.0281344
0.030761
0.0349821
0.0403047
0.0462582
0.0524519
0.058606
0.0645043
0.0699661
0.0747376
0.0785499
0.081001
0.0811892
0.0861042
0.0853234
0.0842806
0.0830465
0.0815208
0.0795577
0.0770378
0.0738573
0.0699055
0.0650957
0.0594318
0.0530833
0.0464405
0.040112
0.0348259
0.0312355
0.0297728
0.0305549
0.0333536
0.0377238
0.0431546
0.0491671
0.0553763
0.0615072
0.0673238
0.0726201
0.0770568
0.0803399
0.0816748
0.0807394
0.0862871
0.0855339
0.0845201
0.0833286
0.0818603
0.079968
0.0775402
0.0744714
0.0706552
0.066003
0.060511
0.0543372
0.0478591
0.0416787
0.0365288
0.0330749
0.0317618
0.0327056
0.0356639
0.0401701
0.0456954
0.0517534
0.0579629
0.0640463
0.0697514
0.0748115
0.078786
0.08133
0.0812917
0.0790174
0.0864879
0.0857626
0.0847772
0.0836264
0.0822114
0.0803844
0.0780348
0.0750619
0.0713601
0.0668395
0.0614912
0.0554627
0.049121
0.0430636
0.0380288
0.0346953
0.0335188
0.0346139
0.037722
0.0423539
0.0479641
0.0540573
0.0602524
0.0662666
0.071823
0.0765606
0.0799383
0.0815097
0.080035
0.0761668
0.0867012
0.0860042
0.0850477
0.0839362
0.0825723
0.0808063
0.0785274
0.0756378
0.0720332
0.0676224
0.062392
0.0564812
0.0502484
0.0442883
0.0393467
0.036117
0.0350648
0.0363026
0.0395536
0.0443047
0.0499941
0.0561154
0.0622817
0.068212
0.0735749
0.0778887
0.0805316
0.0809287
0.0779732
0.0723754
0.0869212
0.0862538
0.0853263
0.084254
0.0829402
0.0812336
0.0790215
0.0762061
0.0726847
0.0683649
0.0632295
0.0574107
0.0512598
0.0453711
0.0405005
0.0373576
0.0364179
0.0377918
0.0411817
0.0460493
0.0518158
0.0579604
0.0640878
0.0699202
0.075037
0.0788168
0.0805891
0.0796773
0.0752579
0.0680726
0.0871451
0.0865068
0.0856088
0.0845761
0.0833121
0.081664
0.0795178
0.0767715
0.0733229
0.0690786
0.064018
0.0582664
0.0521706
0.0463269
0.0415056
0.0384328
0.0375948
0.039101
0.0426286
0.0476132
0.0534596
0.0596153
0.0657127
0.0714313
0.0762222
0.0793631
0.0801526
0.0778869
0.07215
0.0637795
0.0873705
0.0867623
0.0858935
0.0849
0.0836859
0.0820965
0.0800163
0.0773366
0.0739533
0.0697723
0.0647697
0.0590633
0.0529959
0.0471687
0.0423694
0.0393485
0.0386024
0.0402388
0.0439085
0.0490147
0.054946
0.0611215
0.067196
0.0727713
0.0771566
0.0795572
0.0792856
0.0757042
0.0688777
0.0597488
0.0875922
0.0870178
0.086179
0.0852233
0.0840584
0.0825287
0.0805119
0.0779029
0.0745811
0.0704526
0.0654923
0.0598109
0.0537489
0.0479145
0.0431157
0.0401215
0.0394617
0.0412281
0.0450433
0.0502818
0.0563019
0.0624863
0.0685459
0.0739445
0.0778453
0.0794262
0.0780576
0.0732637
0.0655748
0.0560552
0.0877972
0.08727
0.0864649
0.0855465
0.084428
0.0829578
0.0810106
0.0784709
0.075213
0.0711314
0.0661994
0.0605198
0.0544343
0.048558
0.0437649
0.0407681
0.0401832
0.0420817
0.04605
0.0514257
0.0575606
0.0638185
0.0698446
0.0749858
0.0783212
0.0790083
0.0765292
0.0706603
0.0622583
0.0525922
0.0879846
0.0875105
0.0867444
0.0858698
0.0847971
0.083384
0.0815075
0.07903
0.075832
0.0717932
0.0668831
0.0611899
0.0550575
0.0491001
0.0441712
0.0412314
0.0407286
0.0427761
0.0469257
0.0524484
0.0586476
0.0649707
0.0710016
0.0758464
0.0785553
0.0783369
0.0748152
0.068032
0.0588233
0.0492121
0.0881515
0.087716
0.0870053
0.086186
0.0851647
0.0838163
0.0820321
0.0796724
0.0765374
0.0725415
0.0676437
0.0619231
0.0557325
0.049747
0.0447887
0.0416682
0.0412123
0.0434022
0.047744
0.0534962
0.0599459
0.0662982
0.0722298
0.0766964
0.0786421
0.0773975
0.0727437
0.0651513
0.0550848
0.0459207
0.088334
0.0879024
0.0872425
0.086449
0.0854473
0.0841275
0.0823532
0.0800221
0.0769793
0.0730474
0.0681166
0.0623148
0.0560058
0.0499156
0.0448945
0.0418579
0.0414859
0.0438335
0.0483259
0.0541143
0.0604896
0.0671281
0.0731116
0.0772169
0.0784284
0.0766241
0.0720461
0.0625531
0.0510779
0.0417899
0.0885718
0.0881498
0.087607
0.0869074
0.0859969
0.0847951
0.0831695
0.0809569
0.0780253
0.0741878
0.0693091
0.0634291
0.056933
0.0505779
0.0452572
0.0420424
0.0417321
0.0443496
0.0492836
0.0556073
0.0623302
0.0689721
0.0744956
0.077937
0.0779916
0.0741374
0.0674525
0.0571381
0.0463212
0.0401757
0.00208407
0.0217863
0.0436547
0.054626
0.0589975
0.0585409
0.058428
0.0594081
0.0610197
0.0629093
0.0648076
0.0665664
0.0680775
0.0693468
0.070384
0.0712197
0.07188
0.0723959
0.0727953
0.0731007
0.0733394
0.0735131
0.0736795
0.0737751
0.0739711
0.0740651
0.0744111
0.0745743
0.0753592
0.0739965
0.000583528
0.0204327
0.043054
0.0574124
0.0601876
0.0592052
0.0581234
0.0585676
0.0599461
0.0617658
0.0637044
0.0655529
0.0671763
0.0685583
0.069704
0.0706391
0.0713911
0.0719885
0.0724598
0.0728251
0.0731155
0.0733286
0.0735191
0.0736325
0.0737808
0.0738423
0.0739787
0.0739085
0.0740934
0.073447
-0.000127226
0.0179023
0.0420113
0.0608979
0.061724
0.0601244
0.0579461
0.0576044
0.0586397
0.0603419
0.0623153
0.0642703
0.0660361
0.0675708
0.0688686
0.0699444
0.0708254
0.071538
0.072109
0.0725598
0.0729183
0.0731916
0.0734139
0.0735704
0.0737026
0.0737728
0.0738483
0.0738585
0.0739214
0.0738577
-0.000816271
0.0156242
0.0414162
0.0637679
0.0647994
0.0607532
0.0579267
0.0566562
0.0573206
0.0589868
0.061078
0.0632015
0.0651448
0.0668526
0.0683095
0.0695226
0.0705202
0.0713306
0.0719811
0.0724957
0.0729018
0.0732151
0.0734609
0.0736476
0.0737982
0.0739116
0.0740196
0.0741097
0.0742159
0.0742725
-0.00260614
0.0133747
0.0404781
0.0651964
0.0688379
0.0619001
0.057918
0.0556432
0.0557983
0.0574139
0.0596799
0.0620206
0.0641684
0.0660714
0.0677067
0.0690714
0.0701955
0.0711115
0.0718477
0.072431
0.072889
0.0732433
0.0735164
0.0737248
0.073888
0.0740156
0.0741232
0.0742126
0.0742932
0.0743718
-0.00590801
0.00982796
0.0375191
0.0655118
0.0726292
0.0640614
0.0569929
0.0544127
0.0538492
0.0552935
0.0578069
0.0604501
0.0628531
0.0649968
0.0668599
0.0684217
0.0697123
0.0707693
0.0716226
0.0723013
0.0728343
0.0732461
0.0735598
0.0737946
0.0739692
0.074098
0.0741951
0.0742726
0.0743346
0.0744279
-0.0103342
0.00498608
0.0325907
0.0639015
0.0754021
0.0666562
0.0561573
0.0526094
0.051258
0.0523915
0.0552687
0.0584005
0.0611598
0.0636089
0.0657633
0.0675789
0.0690827
0.0703202
0.0713243
0.0721263
0.0727575
0.0732454
0.0736146
0.0738874
0.0740841
0.0742227
0.0743193
0.0743911
0.0744383
0.0745187
-0.0161255
-0.00136008
0.0259533
0.0591376
0.0761449
0.0698426
0.0560345
0.0493084
0.0479491
0.0485652
0.0518108
0.0557278
0.0590168
0.0618616
0.064383
0.0665172
0.0682858
0.0697457
0.070936
0.0718911
0.0726458
0.0732308
0.0736735
0.0739985
0.0742288
0.074385
0.074485
0.0745494
0.0745784
0.0746375
-0.0233295
-0.00931378
0.0170685
0.0518013
0.0733748
0.0722128
0.0565242
0.0454886
0.0432466
0.0436743
0.0471062
0.0521814
0.0562597
0.0596292
0.0626137
0.0651482
0.0672461
0.0689809
0.0704018
0.0715481
0.0724592