/*--------------------------------*- C++ -*----------------------------------*\
  =========                 |
  \\      /  F ield         | OpenFOAM: The Open Source CFD Toolbox
   \\    /   O peration     | Website:  https://openfoam.org
    \\  /    A nd           | Version:  11
     \\/     M anipulation  |
\*---------------------------------------------------------------------------*/
FoamFile
{
    format      ascii;
    class       volScalarField;
    location    "2";
    object      p;
}
// * * * * * * * * * * * * * * * * * * * * * * * * * * * * * * * * * * * * * //

dimensions      [0 2 -2 0 0 0 0];

internalField   nonuniform List<scalar> 
12600
(
0.132398
0.132308
0.132257
0.132238
0.132224
0.132207
0.132187
0.132167
0.132146
0.13212
0.132089
0.132052
0.13201
0.131959
0.131897
0.13182
0.131724
0.131603
0.131453
0.131263
0.131023
0.13072
0.130337
0.129853
0.129243
0.128474
0.127513
0.126311
0.124849
0.122997
0.13233
0.13229
0.132254
0.132237
0.132223
0.132208
0.13219
0.13217
0.132148
0.132123
0.132093
0.132057
0.132016
0.131967
0.131908
0.131833
0.131741
0.131625
0.13148
0.131297
0.131065
0.130772
0.1304
0.129929
0.129332
0.128578
0.127629
0.126441
0.124963
0.123126
0.132302
0.132286
0.13226
0.132241
0.132226
0.13221
0.132193
0.132173
0.132153
0.132129
0.132101
0.132067
0.132028
0.131982
0.131926
0.131856
0.131769
0.13166
0.131523
0.131351
0.131132
0.130854
0.130501
0.130052
0.129481
0.128755
0.127832
0.126672
0.125192
0.123385
0.132283
0.132274
0.132256
0.132237
0.132224
0.13221
0.132194
0.132176
0.132157
0.132135
0.132109
0.132078
0.132043
0.132
0.131948
0.131885
0.131806
0.131707
0.131583
0.131426
0.131227
0.130973
0.130648
0.130233
0.1297
0.129017
0.12814
0.127026
0.125574
0.123793
0.132271
0.132266
0.132253
0.132239
0.132226
0.132213
0.132199
0.132183
0.132165
0.132144
0.132121
0.132094
0.132062
0.132025
0.131979
0.131923
0.131854
0.131768
0.13166
0.131522
0.131348
0.131124
0.130836
0.130465
0.129984
0.12936
0.128547
0.1275
0.126104
0.124377
0.132264
0.13226
0.132251
0.132239
0.132227
0.132216
0.132203
0.132188
0.132172
0.132154
0.132134
0.13211
0.132083
0.132051
0.132013
0.131966
0.131909
0.131838
0.131748
0.131635
0.13149
0.131303
0.131061
0.130744
0.130329
0.129782
0.129054
0.128099
0.126789
0.125147
0.132259
0.132256
0.132249
0.13224
0.13223
0.132219
0.132208
0.132195
0.132181
0.132166
0.132149
0.132129
0.132107
0.132082
0.132051
0.132015
0.131971
0.131916
0.131848
0.131762
0.131651
0.131507
0.131317
0.131066
0.13073
0.130277
0.129657
0.128824
0.127636
0.126119
0.132256
0.132254
0.132249
0.132241
0.132232
0.132223
0.132213
0.132203
0.132191
0.132178
0.132164
0.132149
0.132132
0.132113
0.132092
0.132066
0.132036
0.132
0.131955
0.131898
0.131824
0.131728
0.131598
0.131422
0.131177
0.130836
0.130349
0.12967
0.128646
0.127305
0.132255
0.132253
0.132249
0.132243
0.132236
0.132228
0.13222
0.132211
0.132201
0.132191
0.132181
0.13217
0.132158
0.132146
0.132134
0.13212
0.132104
0.132087
0.132066
0.13204
0.132006
0.131961
0.131896
0.131802
0.131661
0.131448
0.131118
0.130627
0.129818
0.128716
0.132255
0.132254
0.13225
0.132245
0.132239
0.132233
0.132226
0.132219
0.132212
0.132204
0.132197
0.132191
0.132184
0.132179
0.132175
0.132172
0.132172
0.132173
0.132177
0.132183
0.13219
0.132198
0.132201
0.132195
0.132166
0.132096
0.131946
0.131678
0.131137
0.130349
0.132256
0.132255
0.132252
0.132248
0.132243
0.132238
0.132233
0.132227
0.132222
0.132217
0.132213
0.13221
0.132209
0.132211
0.132215
0.132223
0.132237
0.132256
0.132284
0.132321
0.132369
0.13243
0.132503
0.132587
0.132677
0.132761
0.132809
0.132795
0.132577
0.132182
0.132258
0.132257
0.132255
0.132252
0.132248
0.132244
0.132239
0.132235
0.132232
0.132229
0.132228
0.132229
0.132233
0.13224
0.132252
0.13227
0.132297
0.132333
0.132383
0.13245
0.132536
0.132648
0.132789
0.132963
0.133173
0.133415
0.133676
0.133939
0.134093
0.134166
0.132261
0.13226
0.132258
0.132256
0.132252
0.132249
0.132246
0.132243
0.132241
0.132241
0.132242
0.132246
0.132254
0.132266
0.132285
0.132312
0.132349
0.132401
0.132471
0.132563
0.132685
0.132843
0.133047
0.133306
0.133631
0.13403
0.134505
0.13506
0.13562
0.136222
0.132264
0.132263
0.132262
0.13226
0.132257
0.132254
0.132252
0.13225
0.13225
0.132251
0.132254
0.132261
0.132272
0.132288
0.132312
0.132346
0.132393
0.132457
0.132543
0.132657
0.132808
0.133007
0.133265
0.1336
0.134028
0.134573
0.135253
0.136093
0.137071
0.138235
0.132268
0.132267
0.132266
0.132264
0.132262
0.132259
0.132258
0.132257
0.132257
0.132259
0.132264
0.132273
0.132286
0.132306
0.132334
0.132373
0.132426
0.132499
0.132597
0.132727
0.132901
0.13313
0.133431
0.133826
0.134342
0.13501
0.13587
0.136971
0.138343
0.14006
0.132272
0.132271
0.13227
0.132268
0.132266
0.132264
0.132263
0.132263
0.132263
0.132266
0.132272
0.132282
0.132296
0.132318
0.132348
0.13239
0.132447
0.132525
0.13263
0.13277
0.132957
0.133206
0.133536
0.133972
0.13455
0.135311
0.136311
0.137622
0.139329
0.141532
0.132276
0.132276
0.132274
0.132273
0.132271
0.132269
0.132268
0.132267
0.132269
0.132272
0.132278
0.132288
0.132303
0.132324
0.132355
0.132397
0.132455
0.132534
0.13264
0.132783
0.132974
0.13323
0.133571
0.134027
0.134635
0.135448
0.136534
0.137981
0.139924
0.142485
0.132281
0.132281
0.132279
0.132277
0.132275
0.132273
0.132272
0.132271
0.132272
0.132275
0.132281
0.132291
0.132305
0.132326
0.132355
0.132395
0.132451
0.132526
0.132628
0.132766
0.132951
0.133199
0.133533
0.133983
0.134588
0.135405
0.13651
0.138002
0.140045
0.142783
0.132286
0.132286
0.132284
0.132282
0.132279
0.132277
0.132275
0.132275
0.132275
0.132277
0.132282
0.13229
0.132303
0.132321
0.132348
0.132384
0.132434
0.132502
0.132594
0.132719
0.132887
0.133115
0.133423
0.133839
0.134405
0.135174
0.136225
0.137658
0.139649
0.142342
0.132292
0.132291
0.132289
0.132286
0.132284
0.132281
0.132279
0.132277
0.132277
0.132278
0.132281
0.132288
0.132298
0.132312
0.132334
0.132364
0.132405
0.132462
0.132539
0.132644
0.132786
0.13298
0.133243
0.133601
0.134091
0.134762
0.135686
0.136955
0.138733
0.14115
0.132298
0.132297
0.132295
0.132291
0.132288
0.132284
0.132281
0.132279
0.132277
0.132277
0.132279
0.132282
0.132289
0.132299
0.132315
0.132337
0.132367
0.132409
0.132467
0.132545
0.132653
0.1328
0.133002
0.133279
0.133661
0.134188
0.134918
0.135927
0.137346
0.139275
0.132305
0.132304
0.132301
0.132296
0.132292
0.132288
0.132284
0.13228
0.132277
0.132275
0.132274
0.132275
0.132278
0.132283
0.132291
0.132304
0.132321
0.132346
0.13238
0.132428
0.132494
0.132586
0.132713
0.13289
0.133137
0.133481
0.133964
0.134634
0.135579
0.136856
0.132313
0.132311
0.132307
0.132302
0.132296
0.132291
0.132286
0.132281
0.132276
0.132272
0.132269
0.132267
0.132265
0.132265
0.132265
0.132267
0.13227
0.132276
0.132285
0.132298
0.132318
0.132347
0.13239
0.132453
0.132547
0.132682
0.13288
0.133159
0.133554
0.134073
0.132322
0.13232
0.132315
0.132307
0.1323
0.132294
0.132287
0.132281
0.132275
0.132269
0.132264
0.132258
0.132252
0.132245
0.132238
0.132228
0.132217
0.132203
0.132185
0.132162
0.132133
0.132097
0.132051
0.131994
0.131924
0.131838
0.131731
0.131595
0.13141
0.131133
0.132333
0.13233
0.132322
0.132313
0.132304
0.132296
0.132289
0.132281
0.132273
0.132266
0.132257
0.132248
0.132238
0.132225
0.13221
0.13219
0.132164
0.13213
0.132086
0.132027
0.13195
0.131848
0.131713
0.131536
0.131303
0.130995
0.130586
0.130038
0.129284
0.128238
0.132346
0.132341
0.13233
0.132318
0.132308
0.1323
0.132291
0.132282
0.132273
0.132263
0.132252
0.13224
0.132226
0.132208
0.132185
0.132155
0.132116
0.132064
0.131994
0.131902
0.131779
0.131615
0.131398
0.131107
0.13072
0.130204
0.129513
0.128583
0.127309
0.125576
0.132363
0.132355
0.132339
0.132323
0.132311
0.132301
0.132291
0.132281
0.13227
0.132259
0.132247
0.132232
0.132214
0.132191
0.132162
0.132123
0.132072
0.132004
0.131913
0.131791
0.131628
0.13141
0.131119
0.130729
0.130206
0.129507
0.128569
0.127309
0.125589
0.123282
0.132385
0.132371
0.132348
0.132329
0.132317
0.132306
0.132295
0.132283
0.132271
0.132259
0.132244
0.132227
0.132206
0.13218
0.132145
0.1321
0.132039
0.131958
0.131849
0.131704
0.131508
0.131246
0.130895
0.130423
0.129791
0.128943
0.127806
0.126285
0.124231
0.121481
0.132417
0.13238
0.132347
0.13233
0.132318
0.132306
0.132294
0.132281
0.132269
0.132255
0.13224
0.132222
0.132199
0.13217
0.132132
0.132081
0.132014
0.131924
0.131803
0.13164
0.131422
0.131129
0.130735
0.130207
0.129495
0.12854
0.12726
0.125552
0.12328
0.120243
0.132491
0.132401
0.13235
0.132333
0.132322
0.13231
0.132297
0.132284
0.132271
0.132257
0.132241
0.132222
0.132198
0.132168
0.132128
0.132075
0.132005
0.13191
0.131782
0.131611
0.13138
0.131069
0.130652
0.13009
0.129335
0.128321
0.126962
0.125146
0.122736
0.119497
0.121169
0.12021
0.119678
0.11938
0.119038
0.118598
0.118105
0.117586
0.117035
0.116441
0.115797
0.115096
0.114326
0.11347
0.112508
0.111416
0.110161
0.108705
0.106997
0.104972
0.102542
0.0995928
0.0959612
0.0914277
0.0856599
0.0782287
0.068438
0.0544626
0.0403696
-0.000392694
0.121762
0.121177
0.12072
0.120358
0.119948
0.119469
0.118967
0.118462
0.11794
0.117388
0.116796
0.116156
0.115454
0.114677
0.113806
0.112821
0.111694
0.110393
0.108875
0.107085
0.104951
0.102375
0.0992245
0.0953181
0.0903844
0.0840815
0.0757616
0.0645287
0.0511592
0.0196876
0.121791
0.121368
0.121017
0.120666
0.120285
0.119883
0.119474
0.119057
0.118619
0.118148
0.117639
0.117087
0.116481
0.115812
0.115064
0.11422
0.11326
0.112156
0.110875
0.109372
0.107588
0.105447
0.102843
0.0996335
0.0956026
0.0904859
0.083746
0.0748625
0.0632543
0.0397785
0.122143
0.121893
0.121687
0.121399
0.121067
0.12073
0.12039
0.120036
0.119662
0.119264
0.118839
0.118381
0.117885
0.117339
0.116734
0.116056
0.115288
0.114412
0.1134
0.112219
0.110827
0.109163
0.10715
0.104678
0.101582
0.0976659
0.0924863
0.0857409
0.0763274
0.0595851
0.122701
0.122568
0.12246
0.122222
0.121936
0.121664
0.121403
0.121135
0.120852
0.120555
0.120241
0.119906
0.119545
0.119151
0.118718
0.118237
0.117696
0.117084
0.116381
0.115565
0.114607
0.113466
0.112084
0.110386
0.108249
0.105531
0.101876
0.0971331
0.0900482
0.0788654
0.123463
0.123439
0.123437
0.123271
0.123055
0.122869
0.122703
0.122534
0.122356
0.122173
0.121984
0.121788
0.121581
0.121362
0.121126
0.120869
0.120585
0.120268
0.119908
0.119491
0.119
0.118411
0.117687
0.116778
0.115597
0.114047
0.111849
0.108956
0.104136
0.0974171
0.124453
0.124542
0.124651
0.124569
0.124432
0.124339
0.124278
0.124221
0.124163
0.124111
0.124068
0.124034
0.124006
0.123986
0.123974
0.123969
0.123971
0.123979
0.123989
0.123999
0.124
0.123982
0.123926
0.123801
0.123551
0.123111
0.122273
0.121044
0.118301
0.115092
0.125701
0.125909
0.126137
0.126149
0.126105
0.126118
0.126176
0.126247
0.126328
0.126426
0.126548
0.126694
0.126866
0.127067
0.127301
0.127571
0.12788
0.128233
0.128634
0.129086
0.12959
0.130145
0.130746
0.131378
0.132008
0.132591
0.132979
0.133191
0.132258
0.131679
0.127237
0.127566
0.127918
0.128037
0.128099
0.12823
0.12842
0.128634
0.128867
0.129131
0.129434
0.129778
0.130168
0.130607
0.131104
0.131665
0.132296
0.133007
0.133807
0.134702
0.135703
0.136816
0.138043
0.139381
0.140811
0.142303
0.143747
0.145145
0.14571
0.146974
0.129074
0.129528
0.130006
0.130241
0.13042
0.130681
0.131015
0.131383
0.131781
0.132224
0.13272
0.133275
0.133894
0.134583
0.135352
0.136211
0.137168
0.138237
0.139428
0.140755
0.142229
0.143863
0.145663
0.147633
0.149759
0.152017
0.15432
0.156637
0.15836
0.160785
0.131206
0.131783
0.132386
0.132743
0.13305
0.133451
0.133935
0.134464
0.135036
0.135664
0.13636
0.137131
0.137982
0.138922
0.139963
0.141115
0.14239
0.143802
0.145364
0.147092
0.148998
0.151098
0.153399
0.155904
0.158604
0.161472
0.16443
0.167409
0.169961
0.17297
0.133596
0.134288
0.135005
0.135488
0.13593
0.136473
0.13711
0.137802
0.138547
0.139361
0.140255
0.141238
0.142315
0.143498
0.144798
0.146227
0.147797
0.149523
0.15142
0.153502
0.155783
0.158276
0.160988
0.163921
0.167061
0.170378
0.173794
0.177216
0.180309
0.183471
0.136156
0.13695
0.137766
0.138372
0.138949
0.139633
0.140417
0.141266
0.142177
0.143167
0.144248
0.145429
0.146717
0.148122
0.149656
0.151331
0.153162
0.15516
0.15734
0.159717
0.162301
0.165103
0.168127
0.17137
0.174812
0.178414
0.182096
0.18575
0.189103
0.192166
0.138748
0.139623
0.140517
0.141235
0.141943
0.142757
0.143675
0.144666
0.145727
0.146875
0.148123
0.149477
0.150948
0.152543
0.154276
0.156158
0.158202
0.160419
0.162822
0.165423
0.168231
0.171252
0.174484
0.177918
0.181526
0.185256
0.18902
0.19268
0.195978
0.19873
0.141179
0.142111
0.143056
0.143871
0.144694
0.145622
0.146652
0.147761
0.148948
0.150227
0.151611
0.153107
0.154723
0.156469
0.158357
0.160396
0.162598
0.164974
0.167534
0.170287
0.173238
0.176388
0.179731
0.183249
0.186905
0.190637
0.19434
0.197854
0.200916
0.203179
0.143217
0.144179
0.145149
0.146037
0.146953
0.147969
0.149084
0.150281
0.151561
0.152937
0.15442
0.156018
0.157737
0.159589
0.161581
0.163724
0.166028
0.168501
0.171152
0.173986
0.177004
0.180204
0.183573
0.187087
0.190701
0.194344
0.197904
0.201204
0.203991
0.205849
0.144621
0.145588
0.146558
0.14749
0.148469
0.149542
0.150708
0.151959
0.153295
0.154729
0.15627
0.157926
0.159703
0.16161
0.163656
0.16585
0.168199
0.17071
0.17339
0.17624
0.17926
0.182442
0.185768
0.189209
0.192715
0.196205
0.19956
0.202593
0.205048
0.20642
0.145184
0.146132
0.14708
0.148027
0.149032
0.150126
0.151308
0.152574
0.153928
0.155378
0.156934
0.158603
0.160391
0.162306
0.164357
0.166549
0.16889
0.171385
0.174038
0.176849
0.179813
0.18292
0.186149
0.189463
0.192806
0.196091
0.199187
0.201889
0.203933
0.204787
0.144772
0.145681
0.146591
0.147519
0.148512
0.14959
0.150751
0.151994
0.153324
0.15475
0.156279
0.157917
0.159671
0.161547
0.163554
0.165697
0.167981
0.170411
0.172988
0.17571
0.17857
0.181555
0.184638
0.187781
0.190919
0.19396
0.196764
0.199112
0.200746
0.201067
0.143361
0.144211
0.145069
0.145948
0.146888
0.14791
0.149013
0.150196
0.151464
0.152824
0.154284
0.15585
0.157528
0.159321
0.16124
0.163289
0.165472
0.167792
0.170249
0.17284
0.175555
0.178378
0.181281
0.184219
0.187124
0.189895
0.192385
0.194356
0.195579
0.195097
0.141038
0.14181
0.142604
0.143403
0.144254
0.145183
0.146193
0.14728
0.148448
0.149704
0.151055
0.152507
0.154066
0.15574
0.157532
0.159447
0.161488
0.163658
0.165955
0.168375
0.170906
0.173529
0.176214
0.178911
0.181547
0.184011
0.186153
0.187704
0.188516
0.187031
0.138004
0.138678
0.139387
0.140077
0.140803
0.141607
0.14249
0.143448
0.14448
0.145596
0.146802
0.148105
0.149509
0.151019
0.152642
0.15438
0.156237
0.158213
0.160307
0.162512
0.164815
0.167195
0.169617
0.172028
0.174351
0.176465
0.17822
0.179297
0.179716
0.177197
0.134508
0.135057
0.135659
0.136211
0.136782
0.137428
0.138155
0.13895
0.139814
0.140755
0.141782
0.142898
0.144109
0.14542
0.146835
0.148358
0.14999
0.151733
0.153581
0.155528
0.157559
0.15965
0.161763
0.163841
0.1658
0.167509
0.168815
0.16932
0.169225
0.165663
0.130832
0.131232
0.131698
0.132086
0.132476
0.132939
0.13348
0.134084
0.13475
0.135487
0.136302
0.1372
0.138185
0.139262
0.140434
0.141705
0.143075
0.144544
0.146106
0.147752
0.149465
0.151219
0.152971
0.154658
0.156191
0.15742
0.158194
0.158014
0.157241
0.152388
0.127249
0.12747
0.127766
0.127968
0.128158
0.128416
0.128747
0.129135
0.129578
0.130084
0.13066
0.131312
0.132042
0.132854
0.133752
0.134738
0.13581
0.136968
0.138204
0.139507
0.140857
0.142222
0.143558
0.144792
0.145826
0.146489
0.146627
0.145629
0.144015
0.137477
0.123981
0.123995
0.124089
0.124082
0.124055
0.124089
0.124189
0.124339
0.124536
0.124789
0.125104
0.125486
0.125937
0.126459
0.127056
0.127727
0.128472
0.129286
0.13016
0.13108
0.132022
0.132951
0.133814
0.13453
0.134989
0.134993
0.134384
0.132419
0.129819
0.121162
0.121195
0.120975
0.120841
0.120617
0.120371
0.120169
0.12002
0.119913
0.119847
0.119828
0.119862
0.119953
0.120103
0.120314
0.120588
0.120922
0.121314
0.121758
0.122241
0.122745
0.123242
0.12369
0.124028
0.124163
0.123971
0.123221
0.121747
0.118651
0.114931
0.10366
0.119038
0.118514
0.118087
0.117636
0.117174
0.11673
0.116316
0.115938
0.115597
0.115296
0.115037
0.114823
0.114657
0.114539
0.114469
0.114446
0.114464
0.114513
0.114579
0.114639
0.11466
0.114592
0.114362
0.113865
0.112957
0.11137
0.108929
0.104542
0.0996299
0.0851347
0.117791
0.116872
0.11606
0.115373
0.114715
0.114025
0.113326
0.112653
0.112013
0.111406
0.110835
0.110303
0.10981
0.109355
0.108936
0.108549
0.108185
0.107832
0.10747
0.107072
0.106595
0.105981
0.105146
0.103963
0.10227
0.0997518
0.096223
0.0903181
0.0842568
0.0656986
0.116798
0.115521
0.114511
0.113652
0.112722
0.111723
0.110746
0.109799
0.108867
0.107947
0.107046
0.106171
0.105322
0.104499
0.1037
0.102918
0.102145
0.101364
0.100553
0.0996778
0.0986897
0.0975188
0.0960665
0.094185
0.0916852
0.0882029
0.0835745
0.0758253
0.0691693
0.0455175
0.0254145
0.0047931
-0.0169809
-0.0390921
-0.0608941
-0.0821092
-0.102471
-0.121743
-0.139294
-0.154965
-0.168474
-0.179418
-0.187234
-0.191798
-0.192845
-0.190112
-0.183589
-0.17402
-0.165458
-0.16213
-0.165996
-0.17148
-0.17419
-0.173964
-0.171951
-0.168716
-0.166256
-0.164593
-0.162554
-0.158855
0.0548783
0.0370503
0.0175965
-0.00186726
-0.0212581
-0.0405657
-0.0593953
-0.0774153
-0.0944671
-0.110476
-0.124891
-0.137389
-0.146923
-0.153373
-0.157838
-0.159785
-0.15854
-0.155133
-0.151838
-0.153425
-0.161449
-0.170108
-0.173167
-0.171023
-0.166567
-0.16413
-0.164812
-0.166346
-0.165314
-0.16063
0.0615863
0.0447644
0.0269097
0.00860388
-0.010236
-0.0290365
-0.0474931
-0.0655072
-0.0829833
-0.0993617
-0.114068
-0.126647
-0.136647
-0.143879
-0.148749
-0.150955
-0.15054
-0.148721
-0.146492
-0.147989
-0.153135
-0.158018
-0.159294
-0.158591
-0.158521
-0.160168
-0.162649
-0.16389
-0.162686
-0.157124
0.0720818
0.0576464
0.041191
0.0241982
0.00698603
-0.0104669
-0.0282344
-0.0459908
-0.063241
-0.079519
-0.0943399
-0.107257
-0.117891
-0.126
-0.131667
-0.134968
-0.136172
-0.136121
-0.136005
-0.137729
-0.140794
-0.14316
-0.143864
-0.144093
-0.145028
-0.146652
-0.14846
-0.149343
-0.147711
-0.140777
0.0779141
0.0645381
0.0494974
0.0339622
0.0179829
0.00137674
-0.0157513
-0.0329034
-0.0497083
-0.065771
-0.0806354
-0.0938346
-0.104956
-0.11371
-0.120064
-0.12415
-0.12628
-0.127138
-0.127668
-0.128849
-0.130587
-0.131946
-0.132286
-0.131853
-0.131231
-0.130655
-0.130005
-0.12805
-0.124691
-0.120044
0.0825893
0.0705896
0.0568718
0.0425395
0.0275892
0.011832
-0.00456829
-0.0212046
-0.0376816
-0.0535937
-0.0684785
-0.0818509
-0.0932798
-0.102463
-0.10932
-0.113975
-0.116753
-0.118231
-0.119127
-0.120086
-0.121123
-0.121617
-0.121068
-0.119687
-0.117995
-0.116138
-0.113839
-0.110817
-0.107839
-0.106577
0.0860398
0.0751381
0.0625218
0.0492368
0.0352615
0.0203896
0.00474806
-0.0113008
-0.0273525
-0.042997
-0.0577777
-0.0712078
-0.0828437
-0.0923639
-0.0996434
-0.104771
-0.108039
-0.10993
-0.111021
-0.111768
-0.11218
-0.111858
-0.11055
-0.108466
-0.105921
-0.103005
-0.0997257
-0.0963147
-0.093453
-0.0918391
0.0887134
0.0787611
0.0671372
0.0547951
0.0416943
0.0276156
0.0126604
-0.00283116
-0.0184638
-0.0338314
-0.0484822
-0.0619278
-0.0737111
-0.0834868
-0.0910912
-0.0965726
-0.100179
-0.102322
-0.103464
-0.103946
-0.103792
-0.102785
-0.100817
-0.0980508
-0.0947268
-0.0909448
-0.0868457
-0.082629
-0.0786542
-0.0755509
0.0908392
0.0816932
0.0709302
0.0594223
0.0471046
0.03375
0.0194413
0.00449294
-0.0107203
-0.0258004
-0.0402971
-0.0537179
-0.0655922
-0.0755514
-0.0833979
-0.0891398
-0.0929798
-0.0952635
-0.0963718
-0.0965748
-0.0959227
-0.0943094
-0.0917007
-0.0882449
-0.0841459
-0.0795361
-0.0745164
-0.0692511
-0.0637894
-0.0587013
0.092591
0.0841285
0.0741029
0.0633312
0.0517152
0.0390191
0.0253082
0.0108726
-0.00393394
-0.0187241
-0.0330506
-0.0464175
-0.0583421
-0.0684341
-0.0764641
-0.0824002
-0.0863988
-0.0887484
-0.0897682
-0.0896858
-0.0885704
-0.0863883
-0.0831604
-0.0790326
-0.0741806
-0.0687301
-0.0627339
-0.0563012
-0.0493336
-0.0423815
0.0940879
0.0862045
0.0768088
0.0666814
0.0556934
0.0435934
0.0304293
0.0164702
0.00205031
-0.0124566
-0.0266078
-0.0399044
-0.0518522
-0.0620401
-0.0702076
-0.0762843
-0.0803822
-0.0827413
-0.0836329
-0.0832559
-0.0816968
-0.0789745
-0.0751492
-0.0703647
-0.064775
-0.0584871
-0.0515298
-0.0439673
-0.0357005
-0.0272879
0.0954144
0.0880222
0.079166
0.0695988
0.0591694
0.0476059
0.0349386
0.0214185
0.00736086
-0.00687492
-0.0208524
-0.0340703
-0.0460232
-0.0562793
-0.0645489
-0.0707244
-0.0748768
-0.0772042
-0.0779393
-0.0772611
-0.0752729
-0.0720325
-0.067629
-0.0622051
-0.0559019
-0.0488141
-0.0409718
-0.0324316
-0.0231647
-0.0137817
0.0966303
0.0896551
0.0812581
0.0721795
0.0622456
0.0511629
0.0389448
0.0258257
0.0121032
-0.00187804
-0.0156889
-0.0288259
-0.040773
-0.0510786
-0.0594241
-0.0656672
-0.0698405
-0.0721063
-0.0726638
-0.0716798
-0.0692733
-0.0655326
-0.0605693
-0.0545298
-0.0475515
-0.03973
-0.0311171
-0.0217993
-0.0118265
-0.00186644
0.0977788
0.091158
0.0831516
0.0744985
0.0650033
0.0543501
0.0425358
0.0297802
0.0163643
0.0026179
-0.0110375
-0.024097
-0.0360338
-0.0463768
-0.05478
-0.0610675
-0.0652366
-0.0674179
-0.0677816
-0.066489
-0.0636729
-0.0594476
-0.0539454
-0.0473211
-0.0397182
-0.0312474
-0.0219978
-0.0121005
-0.00167654
0.00856749
0.0988905
0.0925723
0.0848977
0.0766149
0.0675074
0.0572368
0.045784
0.0333554
0.0202168
0.00668336
-0.00683111
-0.0198205
-0.0317476
-0.042122
-0.0505706
-0.0568857
-0.0610322
-0.0631115
-0.0632698
-0.0616667
-0.0584489
-0.0537543
-0.0477364
-0.0405638
-0.0323955
-0.0233682
-0.0136158
-0.00331465
0.00735063
0.0176689
0.0999873
0.0939287
0.0865362
0.0785753
0.0698101
0.0598794
0.0487488
0.0366124
0.0237217
0.010378
-0.00301264
-0.0159429
-0.0278651
-0.0382697
-0.0467567
-0.0530878
-0.0571973
-0.0591625
-0.059107
-0.0571926
-0.0535803
-0.0484317
-0.0419232
-0.0342425
-0.0255722
-0.0160809
-0.00594957
0.00460714
0.0153507
0.0256051
0.101085
0.0952504
0.0880977
0.0804171
0.0719543
0.0623247
0.0514798
0.0396025
0.0269306
0.0137525
0.000466578
-0.0124184
-0.0243443
-0.0347818
-0.0433047
-0.0496446
-0.0537085
-0.0555491
-0.0552736
-0.0530475
-0.0490478
-0.0434605
-0.0364876
-0.0283408
-0.0192319
-0.00936416
0.00103714
0.0117299
0.0224327
0.0325384
0.102193
0.0965545
0.0896064
0.0821703
0.0739744
0.0646113
0.0540186
0.0423692
0.0298878
0.0168503
0.00364837
-0.00920775
-0.0211488
-0.0316257
-0.0401856
-0.0465308
-0.0505437
-0.0522518
-0.051752
-0.0492139
-0.0448334
-0.0388225
-0.0314115
-0.0228408
-0.0133541
-0.00318887
0.00739027
0.018126
0.0287064
0.0386146
0.10332
0.0978537
0.0910812
0.083859
0.0758982
0.0667704
0.0564002
0.0449496
0.032631
0.0197089
0.00656893
-0.00627684
-0.0182475
-0.0287735
-0.0373747
-0.0437249
-0.0476829
-0.0492534
-0.0485258
-0.045676
-0.0409205
-0.0345003
-0.0266772
-0.0177228
-0.00791452
0.00247899
0.0131603
0.0238698
0.0342778
0.0439661
0.104468
0.0991567
0.0925367
0.0855027
0.0777492
0.0688291
0.0586543
0.0473757
0.035193
0.022361
0.00925978
-0.00359614
-0.0156134
-0.0262009
-0.0348506
-0.0412079
-0.0451091
-0.0465391
-0.0455809
-0.0424187
-0.0372932
-0.0304773
-0.0222665
-0.012966
-0.00288658
0.00767639
0.0183996
0.0290352
0.0392441
0.0487081
0.105637
0.100469
0.0939843
0.0871174
0.079547
0.07081
0.0608065
0.0496748
0.0376025
0.0248353
0.0117486
-0.00113976
-0.013223
-0.0238873
-0.0325953
-0.038964
-0.0428084
-0.0440966
-0.0429049
-0.0394287
-0.033937
-0.0267373
-0.0181611
-0.0085484
0.0017584
0.0124422
0.0231605
0.033696
0.0436986
0.052939
0.106825
0.101795
0.0954336
0.088712
0.0813063
0.0727312
0.0628785
0.0518713
0.0398849
0.0271572
0.0140598
0.00111502
-0.0110557
-0.0218145
-0.0305925
-0.0369784
-0.0407676
-0.0419146
-0.0404862
-0.0366937
-0.0308385
-0.0232654
-0.0143438
-0.00444888
0.00604854
0.0168158
0.0274982
0.0379211
0.047716
0.0567485
0.108024
0.103132
0.0968919
0.0903043
0.0830403
0.0746086
0.0648888
0.0539858
0.0420624
0.0293498
0.0162154
0.00318814
-0.00909464
-0.0199689
-0.0288314
-0.0352427
-0.0389788
-0.0399848
-0.0383142
-0.034201
-0.0279825
-0.0200436
-0.0107934
-0.000642574
0.0100122
0.0208302
0.0314652
0.0417928
0.0513632
0.0601821
0.109228
0.104477
0.0983624
0.0918997
0.0847601
0.0764563
0.0668538
0.0560361
0.0441544
0.031434
0.0182374
0.00510231
-0.0073172
-0.0183288
-0.0272909
-0.0337347
-0.037423
-0.0382895
-0.0363725
-0.0319356
-0.0253554
-0.0170576
-0.00749132
0.0028979
0.0136887
0.0245277
0.0350876
0.0453301
0.0547035
0.0633647
0.110427
0.105824
0.0998484
0.093502
0.0864722
0.0782864
0.06879
0.0580396
0.0461751
0.0334187
0.0201276
0.00685229
-0.00573499
-0.0169115
-0.0259881
-0.0324989
-0.0361555
-0.0368732
-0.0346912
-0.0299141
-0.0229614
-0.0143042
-0.00443142
0.00618182
0.0171043
0.0279846
0.03849
0.0485551
0.0576486
0.0663372
0.111614
0.107171
0.101356
0.0951163
0.0881757
0.0801007
0.070712
0.060032
0.0481799
0.0353772
0.0219737
0.00853273
-0.00424961
-0.0156151
-0.0248095
-0.0312608
-0.0349906
-0.0355822
-0.0331487
-0.0280444
-0.0207309
-0.0117293
-0.00157522
0.00921906
0.0202154
0.0311119
0.0416713
0.051795
0.0609009
0.0694087
0.112765
0.108503
0.102891
0.096768
0.0898798
0.0818656
0.0725314
0.061884
0.0500084
0.0371152
0.023572
0.00992916
-0.00309356
-0.0147051
-0.0241194
-0.0307629
-0.0342916
-0.0346963
-0.0319548
-0.0264747
-0.0187562
-0.00936637
0.0011137
0.0121253
0.023189
0.0339742
0.0442539
0.0540545
0.0632691
0.072089
0.113858
0.109792
0.104404
0.0985187
0.0918087
0.0839245
0.0746884
0.06409
0.0521926
0.0391995
0.0255036
0.0116539
-0.00159732
-0.0134166
-0.0228979
-0.029692
-0.0334823
-0.0337894
-0.0307866
-0.0249679
-0.0168778
-0.00712464
0.0036859
0.0149945
0.0263548
0.0374753
0.0480665
0.057874
0.0665374
0.0750083
0.114875
0.111054
0.105749
0.0997211
0.0929547
0.085138
0.0760047
0.0654009
0.0534196
0.0402789
0.0263716
0.0122776
-0.00123098
-0.0133075
-0.0229105
-0.0295698
-0.0332282
-0.033324
-0.0299873
-0.0237904
-0.0153558
-0.00536132
0.00553218
0.0167371
0.0278301
0.0386424
0.0490016
0.058942
0.0683865
0.0770575
0.115883
0.112794
0.108084
0.102366
0.0957826
0.0881294
0.0791239
0.0686036
0.0565979
0.0432902
0.0290792
0.014564
0.000548875
-0.0120462
-0.0221625
-0.0292187
-0.0329454
-0.032877
-0.0291416
-0.0223653
-0.0132551
-0.00252232
0.00905883
0.0208423
0.0324222
0.0434764
0.0539106
0.0637491
0.0725487
0.0798458
0.055674
0.0399335
0.0385257
0.0558738
0.0720372
0.0768796
0.0783235
0.0795597
0.0809422
0.0827172
0.0850257
0.08781
0.0909336
0.0942792
0.0977562
0.101286
0.104797
0.108233
0.11155
0.114709
0.117703
0.120505
0.123151
0.125588
0.127955
0.130103
0.132384
0.134446
0.137133
0.136209
0.0607079
0.0367463
0.0389856
0.0578641
0.0755936
0.0809195
0.0809499
0.0809524
0.0812071
0.0819698
0.0834687
0.0856563
0.0883439
0.0913742
0.0946398
0.0980528
0.101531
0.105002
0.10841
0.111703
0.11485
0.117812
0.120596
0.123148
0.125527
0.127625
0.129616
0.131143
0.133079
0.133955
0.0657872
0.0414181
0.0442404
0.0601522
0.0801508
0.0863368
0.0849437
0.0833032
0.0821339
0.081647
0.0820712
0.0834198
0.0854907
0.0880843
0.0910532
0.094289
0.0976969
0.10119
0.1047
0.108164
0.111534
0.114763
0.117827
0.120688
0.12335
0.125767
0.128023
0.129986
0.132012
0.133913
0.0623328
0.0475467
0.048763
0.0676934
0.0876312
0.094439
0.0915537
0.0876364
0.0846178
0.0825927
0.0817837
0.0821929
0.0835641
0.0856734
0.0883309
0.0913959
0.0947447
0.0982673
0.101879
0.105512
0.109109
0.112618
0.116004
0.119231
0.122285
0.125134
0.127797
0.130225
0.132447
0.134437
0.0480081
0.0399739
0.0495177
0.0770051
0.0969389
0.104221
0.100222
0.0940259
0.0890153
0.0846966
0.082033
0.081167
0.0816592
0.0831253
0.0852963
0.0880401
0.0912206
0.0946941
0.0983458
0.10209
0.10586
0.109598
0.113256
0.116796
0.120188
0.123401
0.126416
0.129214
0.131776
0.134072
0.0322596
0.0224328
0.0379559
0.0759036
0.105623
0.114902
0.110284
0.101072
0.094026
0.0884563
0.0832177
0.0800548
0.0791606
0.0798589
0.0814448
0.0837127
0.0865607
0.0898587
0.0934664
0.0972683
0.101177
0.105122
0.109046
0.1129
0.116648
0.120258
0.1237
0.126957
0.130005
0.132802
0.0252603
0.0137242
0.0238703
0.0621483
0.101149
0.118935
0.119802
0.109106
0.0981784
0.0912304
0.0854732
0.0799423
0.076437
0.0756797
0.0765267
0.0783271
0.0808022
0.0838475
0.0873385
0.091149
0.0951649
0.099296
0.103474
0.107646
0.111765
0.115796
0.119704
0.123464
0.127042
0.130386
0.0271545
0.0175033
0.0190768
0.0452696
0.0809977
0.108157
0.119094
0.114327
0.10232
0.0916091
0.0844319
0.0790064
0.0748681
0.071517
0.0706477
0.071575
0.0735984
0.0763375
0.0796232
0.0833736
0.0874591
0.0917608
0.0961819
0.100651
0.105122
0.109555
0.113915
0.118173
0.122293
0.126215
0.0307959
0.0262085
0.0223471
0.0361015
0.0613973
0.0843762
0.0997752
0.106253
0.102188
0.0916613
0.0811202
0.0737474
0.0689108
0.0656244
0.0639099
0.0630211
0.0643374
0.0667297
0.0698017
0.0733872
0.0774025
0.0817981
0.0864363
0.0912062
0.0960387
0.100881
0.105693
0.110447
0.115104
0.119599
0.0316182
0.0326986
0.0287994
0.0326695
0.0468137
0.0631447
0.076727
0.0852388
0.0882935
0.0848941
0.0761867
0.0664561
0.0585079
0.054081
0.0518223
0.0509935
0.0514537
0.0528985
0.0562554
0.0601204
0.0642765
0.0688128
0.0735865
0.0785933
0.0837615
0.0890032
0.094268
0.0995225
0.104719
0.109787
0.0279238
0.034649
0.0314195
0.0301938
0.0364153
0.0457129
0.0550784
0.0624262
0.0663981
0.0667963
0.0633866
0.0563138
0.047344
0.0394959
0.0341987
0.0324329
0.0326178
0.0341257
0.036516
0.0398207
0.0451298
0.0509012
0.056349
0.0618816
0.0674794
0.0731375
0.0788473
0.0845756
0.0902767
0.0958877
0.019052
0.0271594
0.0262877
0.0252898
0.0269516
0.0308939
0.035672
0.0398963
0.0424596
0.0427363
0.0407907
0.0368968
0.0308881
0.0232941
0.0157297
0.0100991
0.00728867
0.00790355
0.0106434
0.0141011
0.0178322
0.0228269
0.0299988
0.0376101
0.044531
0.0511815
0.0577507
0.0642325
0.0705853
0.0767742
0.00432029
0.0136723
0.0151582
0.0158291
0.0159779
0.0167499
0.0178925
0.0187337
0.0185918
0.0170301
0.013906
0.00944057
0.00422638
-0.00156876
-0.00797016
-0.0144852
-0.0199254
-0.0231817
-0.023502
-0.0206498
-0.0158083
-0.0104108
-0.00506694
0.00170065
0.0104739
0.0192398
0.0275027
0.0354687
0.0430857
0.0503415
-0.0120001
-0.00250182
0.000154937
0.00191698
0.00199512
0.00147266
0.000382083
-0.00144392
-0.00428581
-0.00831287
-0.0135858
-0.0199408
-0.0270287
-0.0343007
-0.0411417
-0.0473537
-0.0529571