/*--------------------------------*- C++ -*----------------------------------*\
  =========                 |
  \\      /  F ield         | OpenFOAM: The Open Source CFD Toolbox
   \\    /   O peration     | Website:  https://openfoam.org
    \\  /    A nd           | Version:  11
     \\/     M anipulation  |
\*---------------------------------------------------------------------------*/
FoamFile
{
    format      ascii;
    class       surfaceScalarField;
    location    "2";
    object      phi;
}
// * * * * * * * * * * * * * * * * * * * * * * * * * * * * * * * * * * * * * //

dimensions      [0 3 -1 0 0 0 0];

internalField   nonuniform List<scalar> 
24840
(
1.57972e-05
1.3796e-08
1.57785e-05
1.86561e-08
1.5761e-05
1.74691e-08
1.57437e-05
1.73777e-08
1.5726e-05
1.76652e-08
1.57083e-05
1.77312e-08
1.56906e-05
1.76678e-08
1.5673e-05
1.7567e-08
1.56556e-05
1.74336e-08
1.56383e-05
1.72576e-08
1.56213e-05
1.70328e-08
1.56046e-05
1.67512e-08
1.55882e-05
1.63962e-08
1.55722e-05
1.59486e-08
1.55568e-05
1.53825e-08
1.55422e-05
1.46718e-08
1.55284e-05
1.37957e-08
1.55156e-05
1.27462e-08
1.55042e-05
1.14607e-08
1.54943e-05
9.82147e-09
1.54866e-05
7.73298e-09
1.54814e-05
5.20819e-09
1.54793e-05
2.10717e-09
1.54812e-05
-1.86735e-09
1.54881e-05
-6.95659e-09
1.55014e-05
-1.33328e-08
1.55234e-05
-2.19912e-08
1.55567e-05
-3.32516e-08
1.56106e-05
-5.39206e-08
-1.24741e-07
1.57354e-05
1.58171e-05
7.70758e-09
1.58206e-05
1.51216e-08
1.5823e-05
1.50754e-08
1.5825e-05
1.535e-08
1.58269e-05
1.5758e-08
1.58288e-05
1.58282e-08
1.58308e-05
1.57123e-08
1.58328e-05
1.55294e-08
1.5835e-05
1.52792e-08
1.58373e-05
1.49495e-08
1.58398e-05
1.45273e-08
1.58425e-05
1.39966e-08
1.58456e-05
1.33224e-08
1.58491e-05
1.24684e-08
1.58531e-05
1.13864e-08
1.58577e-05
1.0029e-08
1.58632e-05
8.37134e-09
1.58695e-05
6.37191e-09
1.58771e-05
3.93392e-09
1.5886e-05
8.86662e-10
1.58967e-05
-3.00524e-09
1.59096e-05
-7.69781e-09
1.59253e-05
-1.35222e-08
1.59443e-05
-2.08577e-08
1.59673e-05
-2.99596e-08
1.59957e-05
-4.1744e-08
1.60297e-05
-5.60474e-08
1.60737e-05
-7.72595e-08
1.6121e-05
-1.01197e-07
-1.32068e-07
1.61283e-05
1.58136e-05
5.06212e-09
1.58169e-05
1.18417e-08
1.58188e-05
1.31306e-08
1.58208e-05
1.33509e-08
1.58228e-05
1.38033e-08
1.58247e-05
1.39174e-08
1.58267e-05
1.37449e-08
1.58287e-05
1.3448e-08
1.5831e-05
1.30638e-08
1.58333e-05
1.25882e-08
1.58359e-05
1.19957e-08
1.58386e-05
1.12566e-08
1.58416e-05
1.0324e-08
1.58449e-05
9.13502e-09
1.58487e-05
7.59752e-09
1.58531e-05
5.67592e-09
1.58581e-05
3.29675e-09
1.58641e-05
3.75658e-10
1.58712e-05
-3.12184e-09
1.58796e-05
-7.51915e-09
1.58896e-05
-1.29736e-08
1.59015e-05
-1.96607e-08
1.5916e-05
-2.79574e-08
1.59335e-05
-3.83531e-08
1.59549e-05
-5.13455e-08
1.5981e-05
-6.78625e-08
1.60135e-05
-8.85848e-08
1.60513e-05
-1.15084e-07
1.60987e-05
-1.48529e-07
-1.76624e-07
1.61432e-05
1.58125e-05
3.55134e-09
1.58152e-05
9.14777e-09
1.58171e-05
1.12014e-08
1.58188e-05
1.16177e-08
1.58207e-05
1.19812e-08
1.58225e-05
1.20713e-08
1.58244e-05
1.18476e-08
1.58264e-05
1.14364e-08
1.58286e-05
1.09122e-08
1.58309e-05
1.02886e-08
1.58333e-05
9.5289e-09
1.5836e-05
8.58596e-09
1.58389e-05
7.39687e-09
1.58422e-05
5.86672e-09
1.58459e-05
3.88577e-09
1.58501e-05
1.45745e-09
1.58551e-05
-1.63974e-09
1.58608e-05
-5.3992e-09
1.58677e-05
-9.97446e-09
1.58758e-05
-1.56241e-08
1.58854e-05
-2.25927e-08
1.58969e-05
-3.11794e-08
1.59108e-05
-4.18333e-08
1.59276e-05
-5.51552e-08
1.59481e-05
-7.18399e-08
1.59731e-05
-9.28605e-08
1.60038e-05
-1.19279e-07
1.60406e-05
-1.51896e-07
1.60865e-05
-1.94372e-07
-2.31584e-07
1.61414e-05
1.58119e-05
2.62308e-09
1.58139e-05
7.16235e-09
1.58157e-05
9.42093e-09
1.58172e-05
1.00534e-08
1.58189e-05
1.02906e-08
1.58207e-05
1.02932e-08
1.58225e-05
9.9941e-09
1.58245e-05
9.46935e-09
1.58266e-05
8.81153e-09
1.58289e-05
8.04509e-09
1.58313e-05
7.12791e-09
1.58339e-05
5.99489e-09
1.58367e-05
4.55916e-09
1.58399e-05
2.69478e-09
1.58435e-05
2.73442e-10
1.58476e-05
-2.65967e-09
1.58523e-05
-6.39907e-09
1.58579e-05
-1.0958e-08
1.58645e-05
-1.65218e-08
1.58722e-05
-2.33561e-08
1.58814e-05
-3.1767e-08
1.58923e-05
-4.2141e-08
1.59055e-05
-5.50126e-08
1.59214e-05
-7.10837e-08
1.59408e-05
-9.12063e-08
1.59644e-05
-1.16447e-07
1.59933e-05
-1.4817e-07
1.60285e-05
-1.87169e-07
1.60721e-05
-2.37927e-07
-2.87511e-07
1.6128e-05
1.58116e-05
2.01347e-09
1.58131e-05
5.6682e-09
1.58147e-05
7.82055e-09
1.58162e-05
8.56165e-09
1.58177e-05
8.70846e-09
1.58194e-05
8.58997e-09
1.58212e-05
8.19183e-09
1.58232e-05
7.55751e-09
1.58252e-05
6.77331e-09
1.58274e-05
5.86675e-09
1.58297e-05
4.79228e-09
1.58322e-05
3.46713e-09
1.5835e-05
1.80425e-09
1.58381e-05
-3.64036e-10
1.58415e-05
-3.14436e-09
1.58454e-05
-6.59747e-09
1.58499e-05
-1.0931e-08
1.58552e-05
-1.62421e-08
1.58614e-05
-2.27228e-08
1.58687e-05
-3.06608e-08
1.58774e-05
-4.04118e-08
1.58877e-05
-5.24356e-08
1.59e-05
-6.7348e-08
1.59149e-05
-8.59455e-08
1.59329e-05
-1.09218e-07
1.59548e-05
-1.38364e-07
1.59816e-05
-1.74996e-07
1.60146e-05
-2.20172e-07
1.60554e-05
-2.78731e-07
-3.40997e-07
1.61089e-05
1.58114e-05
1.57838e-09
1.58126e-05
4.51223e-09
1.5814e-05
6.41884e-09
1.58154e-05
7.162e-09
1.58168e-05
7.23259e-09
1.58184e-05
6.97976e-09
1.58202e-05
6.46138e-09
1.5822e-05
5.71368e-09
1.5824e-05
4.80722e-09
1.58261e-05
3.76886e-09
1.58283e-05
2.55034e-09
1.58307e-05
1.04364e-09
1.58334e-05
-8.39248e-10
1.58363e-05
-3.28601e-09
1.58396e-05
-6.41283e-09
1.58433e-05
-1.03292e-08
1.58476e-05
-1.52128e-08
1.58526e-05
-2.12083e-08
1.58584e-05
-2.85231e-08
1.58652e-05
-3.74652e-08
1.58732e-05
-4.84338e-08
1.58827e-05
-6.19515e-08
1.58941e-05
-7.87066e-08
1.59077e-05
-9.95826e-08
1.59242e-05
-1.25687e-07
1.59442e-05
-1.58364e-07
1.59686e-05
-1.99434e-07
1.59988e-05
-2.50348e-07
1.60361e-05
-3.16052e-07
-3.90209e-07
1.60853e-05
1.58113e-05
1.24639e-09
1.58122e-05
3.59129e-09
1.58134e-05
5.19921e-09
1.58147e-05
5.85862e-09
1.58161e-05
5.84054e-09
1.58177e-05
5.45066e-09
1.58193e-05
4.80085e-09
1.58211e-05
3.93679e-09
1.5823e-05
2.91304e-09
1.5825e-05
1.74827e-09
1.58272e-05
3.94469e-10
1.58295e-05
-1.27055e-09
1.5832e-05
-3.35988e-09
1.58348e-05
-6.05459e-09
1.58379e-05
-9.49894e-09
1.58414e-05
-1.38256e-08
1.58454e-05
-1.92072e-08
1.585e-05
-2.58152e-08
1.58553e-05
-3.38747e-08
1.58616e-05
-4.37119e-08
1.58689e-05
-5.57627e-08
1.58775e-05
-7.06006e-08
1.58878e-05
-8.89758e-08
1.59001e-05
-1.11848e-07
1.59148e-05
-1.40428e-07
1.59326e-05
-1.76196e-07
1.59544e-05
-2.21155e-07
1.59812e-05
-2.77173e-07
1.60143e-05
-3.49174e-07
-4.34024e-07
1.60581e-05
1.58112e-05
9.79812e-10
1.5812e-05
2.8332e-09
1.58131e-05
4.13041e-09
1.58143e-05
4.64824e-09
1.58156e-05
4.52237e-09
1.5817e-05
3.99852e-09
1.58186e-05
3.21566e-09
1.58203e-05
2.23461e-09
1.58221e-05
1.09972e-09
1.58241e-05
-1.79874e-10
1.58261e-05
-1.66062e-09
1.58283e-05
-3.46613e-09
1.58307e-05
-5.73756e-09
1.58333e-05
-8.65341e-09
1.58362e-05
-1.23794e-08
1.58394e-05
-1.70656e-08
1.58431e-05
-2.28859e-08
1.58473e-05
-3.00284e-08
1.58522e-05
-3.87347e-08
1.58578e-05
-4.93471e-08
1.58644e-05
-6.23303e-08
1.58721e-05
-7.82987e-08
1.58811e-05
-9.8053e-08
1.58919e-05
-1.22615e-07
1.59048e-05
-1.5328e-07
1.59202e-05
-1.91647e-07
1.59389e-05
-2.39867e-07
1.5962e-05
-3.00195e-07
1.59902e-05
-3.77449e-07
-4.71522e-07
1.60277e-05
1.58112e-05
7.56592e-10
1.58118e-05
2.18853e-09
1.58128e-05
3.18141e-09
1.58139e-05
3.5238e-09
1.58152e-05
3.27248e-09
1.58165e-05
2.61765e-09
1.5818e-05
1.70515e-09
1.58197e-05
6.09536e-10
1.58214e-05
-6.29763e-10
1.58232e-05
-2.01374e-09
1.58252e-05
-3.60681e-09
1.58273e-05
-5.53751e-09
1.58295e-05
-7.96499e-09
1.58319e-05
-1.10728e-08
1.58346e-05
-1.50402e-08
1.58375e-05
-2.00316e-08
1.58409e-05
-2.62245e-08
1.58447e-05
-3.38184e-08
1.5849e-05
-4.30677e-08
1.5854e-05
-5.43276e-08
1.58597e-05
-6.8084e-08
1.58664e-05
-8.49813e-08
1.58742e-05
-1.05858e-07
1.58834e-05
-1.31782e-07
1.58942e-05
-1.6411e-07
1.59071e-05
-2.04533e-07
1.59225e-05
-2.55314e-07
1.59414e-05
-3.1903e-07
1.59643e-05
-4.00339e-07
-5.01904e-07
1.59946e-05
1.58112e-05
5.62862e-10
1.58117e-05
1.62341e-09
1.58126e-05
2.32504e-09
1.58136e-05
2.47465e-09
1.58148e-05
2.08492e-09
1.58161e-05
1.3018e-09
1.58176e-05
2.66454e-10
1.58191e-05
-9.37401e-10
1.58208e-05
-2.27232e-09
1.58225e-05
-3.7483e-09
1.58243e-05
-5.43788e-09
1.58263e-05
-7.47558e-09
1.58283e-05
-1.00326e-08
1.58306e-05
-1.32999e-08
1.5833e-05
-1.74658e-08
1.58357e-05
-2.2706e-08
1.58386e-05
-2.92021e-08
1.5842e-05
-3.71603e-08
1.58458e-05
-4.68437e-08
1.585e-05
-5.86169e-08
1.58549e-05
-7.29792e-08
1.58606e-05
-9.05945e-08
1.5867e-05
-1.12325e-07
1.58745e-05
-1.39267e-07
1.58832e-05
-1.72815e-07
1.58934e-05
-2.14717e-07
1.59054e-05
-2.67298e-07
1.59197e-05
-3.33384e-07
1.59368e-05
-4.17409e-07
-5.24461e-07
1.59594e-05
1.58111e-05
3.89224e-10
1.58116e-05
1.11367e-09
1.58124e-05
1.53816e-09
1.58134e-05
1.48828e-09
1.58146e-05
9.53247e-10
1.58158e-05
4.58487e-11
1.58172e-05
-1.10333e-09
1.58186e-05
-2.40631e-09
1.58202e-05
-3.82622e-09
1.58218e-05
-5.38051e-09
1.58235e-05
-7.14964e-09
1.58253e-05
-9.27425e-09
1.58272e-05
-1.1934e-08
1.58293e-05
-1.53262e-08
1.58315e-05
-1.96461e-08
1.58338e-05
-2.50769e-08
1.58364e-05
-3.18036e-08
1.58393e-05
-4.00357e-08
1.58425e-05
-5.00414e-08
1.58461e-05
-6.21895e-08
1.58501e-05
-7.69857e-08
1.58546e-05
-9.51025e-08
1.58597e-05
-1.17411e-07
1.58654e-05
-1.45019e-07
1.58719e-05
-1.79328e-07
1.58793e-05
-2.22107e-07
1.58877e-05
-2.75691e-07
1.58974e-05
-3.43057e-07
1.59083e-05
-4.28356e-07
-5.38653e-07
1.59225e-05
1.58111e-05
2.28762e-10
1.58116e-05
6.4135e-10
1.58123e-05
8.01148e-10
1.58133e-05
5.51745e-10
1.58144e-05
-1.29198e-10
1.58156e-05
-1.15466e-09
1.58169e-05
-2.40732e-09
1.58183e-05
-3.79851e-09
1.58197e-05
-5.29137e-09
1.58212e-05
-6.90926e-09
1.58228e-05
-8.73997e-09
1.58245e-05
-1.09298e-08
1.58262e-05
-1.36642e-08
1.5828e-05
-1.71453e-08
1.583e-05
-2.15727e-08
1.5832e-05
-2.71344e-08
1.58342e-05
-3.4017e-08
1.58366e-05
-4.2431e-08
1.58392e-05
-5.26452e-08
1.58421e-05
-6.50282e-08
1.58452e-05
-8.00844e-08
1.58486e-05
-9.84844e-08
1.58522e-05
-1.21094e-07
1.58562e-05
-1.49011e-07
1.58605e-05
-1.83619e-07
1.58651e-05
-2.26666e-07
1.58698e-05
-2.80437e-07
1.58747e-05
-3.47958e-07
1.58794e-05
-4.33027e-07
-5.44132e-07
1.58849e-05
1.58111e-05
7.57965e-11
1.58116e-05
1.92799e-10
1.58123e-05
9.83479e-11
1.58132e-05
-3.46491e-10
1.58142e-05
-1.17015e-09
1.58154e-05
-2.30618e-09
1.58166e-05
-3.65054e-09
1.58179e-05
-5.11655e-09
1.58193e-05
-6.66822e-09
1.58207e-05
-8.33389e-09
1.58222e-05
-1.02076e-08
1.58237e-05
-1.244e-08
1.58253e-05
-1.52202e-08
1.58269e-05
-1.8753e-08
1.58285e-05
-2.32404e-08
1.58303e-05
-2.88724e-08
1.58321e-05
-3.58357e-08
1.5834e-05
-4.4339e-08
1.5836e-05
-5.46479e-08
1.58381e-05
-6.71257e-08
1.58403e-05
-8.22688e-08
1.58425e-05
-1.00735e-07
1.58448e-05
-1.23373e-07
1.5847e-05
-1.51247e-07
1.58491e-05
-1.85699e-07
1.58509e-05
-2.28411e-07
1.5852e-05
-2.81563e-07
1.58522e-05
-3.48114e-07
1.58506e-05
-4.31441e-07
-5.40816e-07
1.58473e-05
1.58111e-05
-7.42914e-11
1.58116e-05
-2.42722e-10
1.58122e-05
-5.83265e-10
1.58131e-05
-1.21853e-09
1.58141e-05
-2.17955e-09
1.58152e-05
-3.41635e-09
1.58164e-05
-4.83828e-09
1.58177e-05
-6.3635e-09
1.58189e-05
-7.9582e-09
1.58203e-05
-9.65482e-09
1.58216e-05
-1.15521e-08
1.5823e-05
-1.38038e-08
1.58244e-05
-1.66003e-08
1.58258e-05
-2.01472e-08
1.58272e-05
-2.46469e-08
1.58286e-05
-3.02891e-08
1.583e-05
-3.72583e-08
1.58314e-05
-4.57586e-08
1.58328e-05
-5.60494e-08
1.58342e-05
-6.84839e-08
1.58355e-05
-8.35438e-08
1.58366e-05
-1.01866e-07
1.58375e-05
-1.24264e-07
1.5838e-05
-1.51758e-07
1.58379e-05
-1.85616e-07
1.58369e-05
-2.27416e-07
1.58345e-05
-2.79177e-07
1.58301e-05
-3.43675e-07
1.58224e-05
-4.23803e-07
-5.28918e-07
1.58105e-05
1.58111e-05
-2.23533e-10
1.58115e-05
-6.74453e-10
1.58122e-05
-1.25838e-09
1.58131e-05
-2.07887e-09
1.58141e-05
-3.16783e-09
1.58151e-05
-4.49185e-09
1.58163e-05
-5.97542e-09
1.58175e-05
-7.54316e-09
1.58187e-05
-9.16381e-09
1.58199e-05
-1.08734e-08
1.58211e-05
-1.27742e-08
1.58223e-05
-1.50215e-08
1.58235e-05
-1.78049e-08
1.58247e-05
-2.13289e-08
1.58259e-05
-2.57938e-08
1.5827e-05
-3.13865e-08
1.5828e-05
-3.82875e-08
1.58289e-05
-4.66941e-08
1.58297e-05
-5.68562e-08
1.58304e-05
-6.9113e-08
1.58307e-05
-8.39254e-08
1.58308e-05
-1.019e-07
1.58303e-05
-1.23807e-07
1.58292e-05
-1.50601e-07
1.5827e-05
-1.83455e-07
1.58234e-05
-2.23809e-07
1.58177e-05
-2.73466e-07
1.58089e-05
-3.34914e-07
1.57956e-05
-4.10508e-07
-5.08982e-07
1.57757e-05
1.58111e-05
-3.7378e-10
1.58116e-05
-1.11365e-09
1.58122e-05
-1.94256e-09
1.58131e-05
-2.94091e-09
1.58141e-05
-4.14413e-09
1.58151e-05
-5.5393e-09
1.58162e-05
-7.06768e-09
1.58173e-05
-8.66027e-09
1.58185e-05
-1.02885e-08
1.58196e-05
-1.1992e-08
1.58207e-05
-1.3876e-08
1.58218e-05
-1.60953e-08
1.58228e-05
-1.88369e-08
1.58238e-05
-2.23013e-08
1.58246e-05
-2.66849e-08
1.58254e-05
-3.21699e-08
1.58261e-05
-3.89301e-08
1.58265e-05
-4.71547e-08
1.58268e-05
-5.70813e-08
1.58267e-05
-6.90315e-08
1.58262e-05
-8.34403e-08
1.58252e-05
-1.00877e-07
1.58234e-05
-1.22057e-07
1.58207e-05
-1.47858e-07
1.58166e-05
-1.79335e-07
1.58105e-05
-2.17764e-07
1.58017e-05
-2.64689e-07
1.5789e-05
-3.22217e-07
1.57707e-05
-3.9213e-07
-4.81881e-07
1.57436e-05
1.58111e-05
-5.29553e-10
1.58116e-05
-1.57316e-09
1.58123e-05
-2.65045e-09
1.58132e-05
-3.81694e-09
1.58141e-05
-5.11757e-09
1.58152e-05
-6.56602e-09
1.58162e-05
-8.12143e-09
1.58173e-05
-9.72013e-09
1.58183e-05
-1.13366e-08
1.58193e-05
-1.30146e-08
1.58203e-05
-1.48614e-08
1.58213e-05
-1.70293e-08
1.58221e-05
-1.97005e-08
1.58229e-05
-2.30696e-08
1.58235e-05
-2.73266e-08
1.5824e-05
-3.26471e-08
1.58243e-05
-3.91969e-08
1.58243e-05
-4.71547e-08
1.58239e-05
-5.67441e-08
1.58232e-05
-6.82659e-08
1.58219e-05
-8.21249e-08
1.58198e-05
-9.88468e-08
1.58169e-05
-1.19086e-07
1.58126e-05
-1.43629e-07
1.58067e-05
-1.73404e-07
1.57984e-05
-2.09495e-07
1.57869e-05
-2.53164e-07
1.57708e-05
-3.06066e-07
1.5748e-05
-3.69397e-07
-4.48785e-07
1.57149e-05
1.58111e-05
-6.97005e-10
1.58116e-05
-2.06649e-09
1.58124e-05
-3.39854e-09
1.58133e-05
-4.72041e-09
1.58143e-05
-6.09752e-09
1.58153e-05
-7.57967e-09
1.58163e-05
-9.1436e-09
1.58173e-05
-1.07286e-08
1.58183e-05
-1.2313e-08
1.58192e-05
-1.39459e-08
1.58201e-05
-1.57352e-08
1.58209e-05
-1.78288e-08
1.58216e-05
-2.04018e-08
1.58222e-05
-2.36408e-08
1.58226e-05
-2.77277e-08
1.58227e-05
-3.28294e-08
1.58226e-05
-3.91023e-08
1.58222e-05
-4.67132e-08
1.58213e-05
-5.58697e-08
1.58199e-05
-6.68497e-08
1.58178e-05
-8.00243e-08
1.58148e-05
-9.58716e-08
1.58107e-05
-1.14978e-07
1.58051e-05
-1.38035e-07
1.57976e-05
-1.65831e-07
1.57873e-05
-1.9925e-07
1.57734e-05
-2.39257e-07
1.57544e-05
-2.87015e-07
1.57281e-05
-3.43156e-07
-4.11099e-07
1.56904e-05
1.58112e-05
-8.83247e-10
1.58117e-05
-2.61128e-09
1.58125e-05
-4.20645e-09
1.58135e-05
-5.66513e-09
1.58144e-05
-7.09313e-09
1.58155e-05
-8.58832e-09
1.58165e-05
-1.01416e-08
1.58174e-05
-1.16918e-08
1.58183e-05
-1.32232e-08
1.58192e-05
-1.47913e-08
1.58199e-05
-1.65034e-08
1.58206e-05
-1.85004e-08
1.58212e-05
-2.09485e-08
1.58215e-05
-2.40243e-08
1.58217e-05
-2.78995e-08
1.58216e-05
-3.2731e-08
1.58212e-05
-3.86643e-08
1.58203e-05
-4.5853e-08
1.58189e-05
-5.44879e-08
1.58169e-05
-6.48219e-08
1.58141e-05
-7.71902e-08
1.58102e-05
-9.20203e-08
1.58051e-05
-1.09829e-07
1.57982e-05
-1.31205e-07
1.57892e-05
-1.568e-07
1.57773e-05
-1.87293e-07
1.57614e-05
-2.23356e-07
1.574e-05
-2.65655e-07
1.57112e-05
-3.14318e-07
-3.70356e-07
1.56704e-05
1.58112e-05
-1.09796e-09
1.58118e-05
-3.23173e-09
1.58127e-05
-5.09753e-09
1.58137e-05
-6.66475e-09
1.58147e-05
-8.11317e-09
1.58157e-05
-9.60062e-09
1.58167e-05
-1.1123e-08
1.58176e-05
-1.26159e-08
1.58185e-05
-1.40727e-08
1.58192e-05
-1.55569e-08
1.58199e-05
-1.71727e-08
1.58205e-05
-1.90519e-08
1.58209e-05
-2.13498e-08
1.58211e-05
-2.42311e-08
1.5821e-05
-2.78557e-08
1.58207e-05
-3.23693e-08
1.58199e-05
-3.79045e-08
1.58187e-05
-4.46017e-08
1.58168e-05
-5.26336e-08
1.58142e-05
-6.22273e-08
1.58107e-05
-7.36805e-08
1.5806e-05
-8.73693e-08
1.58e-05
-1.03739e-07
1.5792e-05
-1.2328e-07
1.57817e-05
-1.46504e-07
1.57683e-05
-1.73896e-07
1.57508e-05
-2.05857e-07
1.57278e-05
-2.42582e-07
1.56972e-05
-2.83792e-07
-3.28153e-07
1.5655e-05
1.58112e-05
-1.35544e-09
1.5812e-05
-3.96237e-09
1.5813e-05
-6.09952e-09
1.5814e-05
-7.73132e-09
1.58151e-05
-9.16586e-09
1.58161e-05
-1.0626e-08
1.58171e-05
-1.20958e-08
1.5818e-05
-1.35067e-08
1.58188e-05
-1.48675e-08
1.58195e-05
-1.62493e-08
1.582e-05
-1.77507e-08
1.58205e-05
-1.94921e-08
1.58207e-05
-2.16158e-08
1.58208e-05
-2.42728e-08
1.58205e-05
-2.76105e-08
1.58199e-05
-3.17619e-08
1.58189e-05
-3.68457e-08
1.58173e-05
-4.29882e-08
1.5815e-05
-5.03441e-08
1.58118e-05
-5.91138e-08
1.58077e-05
-6.95568e-08
1.58024e-05
-8.19988e-08
1.57954e-05
-9.6815e-08
1.57866e-05
-1.144e-07
1.57752e-05
-1.35135e-07
1.57606e-05
-1.59328e-07
1.57419e-05
-1.87141e-07
1.57177e-05
-2.18358e-07
1.56863e-05
-2.5243e-07
-2.8592e-07
1.56441e-05
1.58113e-05
-1.67792e-09
1.58122e-05
-4.85364e-09
1.58133e-05
-7.24425e-09
1.58145e-05
-8.87379e-09
1.58156e-05
-1.02591e-08
1.58166e-05
-1.16743e-08
1.58176e-05
-1.30671e-08
1.58184e-05
-1.43704e-08
1.58192e-05
-1.56148e-08
1.58198e-05
-1.68771e-08
1.58203e-05
-1.82471e-08
1.58207e-05
-1.98315e-08
1.58208e-05
-2.17583e-08
1.58207e-05
-2.41667e-08
1.58203e-05
-2.71865e-08
1.58194e-05
-3.09329e-08
1.58181e-05
-3.55151e-08
1.58162e-05
-4.10459e-08
1.58135e-05
-4.76611e-08
1.58099e-05
-5.55334e-08
1.58052e-05
-6.48843e-08
1.57992e-05
-7.59914e-08
1.57916e-05
-8.91642e-08
1.57819e-05
-1.04706e-07
1.57696e-05
-1.22881e-07
1.57541e-05
-1.43841e-07
1.57346e-05
-1.67556e-07
1.57097e-05
-1.93472e-07
1.56782e-05
-2.20951e-07
-2.44913e-07
1.56372e-05
1.58114e-05
-2.1031e-09
1.58125e-05
-5.97822e-09
1.58138e-05
-8.5629e-09
1.58151e-05
-1.00989e-08
1.58162e-05
-1.14055e-08
1.58173e-05
-1.27555e-08
1.58183e-05
-1.40399e-08
1.58191e-05
-1.52084e-08
1.58198e-05
-1.63178e-08
1.58204e-05
-1.7445e-08
1.58208e-05
-1.86676e-08
1.5821e-05
-2.00782e-08
1.58211e-05
-2.17898e-08
1.58208e-05
-2.39239e-08
1.58202e-05
-2.65946e-08
1.58192e-05
-2.99024e-08
1.58176e-05
-3.39415e-08
1.58154e-05
-3.88103e-08
1.58124e-05
-4.46283e-08
1.58084e-05
-5.15407e-08
1.58032e-05
-5.97302e-08
1.57967e-05
-6.94321e-08
1.57884e-05
-8.08944e-08
1.5778e-05
-9.43355e-08
1.57651e-05
-1.0992e-07
1.57489e-05
-1.27665e-07
1.57287e-05
-1.47405e-07
1.57036e-05
-1.68318e-07
1.56725e-05
-1.89904e-07
-2.05956e-07
1.56336e-05
1.58116e-05
-2.70235e-09
1.5813e-05
-7.44051e-09
1.58145e-05
-1.00697e-08
1.58158e-05
-1.14088e-08
1.58171e-05
-1.26276e-08
1.58182e-05
-1.38881e-08
1.58192e-05
-1.50253e-08
1.582e-05
-1.60315e-08
1.58207e-05
-1.69879e-08
1.58212e-05
-1.79642e-08
1.58216e-05
-1.90248e-08
1.58217e-05
-2.0247e-08
1.58217e-05
-2.17265e-08
1.58213e-05
-2.35657e-08
1.58206e-05
-2.58607e-08
1.58194e-05
-2.86974e-08
1.58176e-05
-3.21547e-08
1.58151e-05
-3.63171e-08
1.58117e-05
-4.12898e-08
1.58074e-05
-4.71895e-08
1.58018e-05
-5.41599e-08
1.57948e-05
-6.24014e-08
1.5786e-05
-7.21066e-08
1.57751e-05
-8.34169e-08
1.57616e-05
-9.64151e-08
1.57449e-05
-1.11006e-07
1.57245e-05
-1.26944e-07
1.56993e-05
-1.43174e-07
1.5669e-05
-1.59619e-07
-1.6943e-07
1.56325e-05
1.58119e-05
-3.61776e-09
1.58138e-05
-9.3984e-09
1.58155e-05
-1.17448e-08
1.58169e-05
-1.27938e-08
1.58182e-05
-1.39272e-08
1.58194e-05
-1.50595e-08
1.58204e-05
-1.60124e-08
1.58212e-05
-1.68392e-08
1.58218e-05
-1.76297e-08
1.58223e-05
-1.84409e-08
1.58226e-05
-1.93266e-08
1.58227e-05
-2.03468e-08
1.58225e-05
-2.158e-08
1.58221e-05
-2.31072e-08
1.58212e-05
-2.50056e-08
1.58199e-05
-2.73452e-08
1.58179e-05
-3.01893e-08
1.58152e-05
-3.3608e-08
1.58116e-05
-3.76971e-08
1.5807e-05
-4.25409e-08
1.5801e-05
-4.82452e-08
1.57936e-05
-5.4986e-08
1.57844e-05
-6.29033e-08
1.57731e-05
-7.20723e-08
1.57592e-05
-8.25143e-08
1.57422e-05
-9.40427e-08
1.57216e-05
-1.06375e-07
1.56967e-05
-1.18214e-07
1.56674e-05
-1.30302e-07
-1.34623e-07
1.56326e-05
1.58125e-05
-5.11426e-09
1.58151e-05
-1.20473e-08
1.58169e-05
-1.35817e-08
1.58185e-05
-1.43344e-08
1.58199e-05
-1.5353e-08
1.58211e-05
-1.62718e-08
1.58221e-05
-1.69961e-08
1.58229e-05
-1.76295e-08
1.58235e-05
-1.82423e-08
1.58239e-05
-1.88761e-08
1.58242e-05
-1.95795e-08
1.58242e-05
-2.03901e-08
1.5824e-05
-2.13669e-08
1.58235e-05
-2.25684e-08
1.58225e-05
-2.40527e-08
1.58211e-05
-2.58726e-08
1.5819e-05
-2.80749e-08
1.58161e-05
-3.07179e-08
1.58123e-05
-3.38972e-08
1.58074e-05
-3.76466e-08
1.58012e-05
-4.20436e-08
1.57934e-05
-4.72635e-08
1.57839e-05
-5.3384e-08
1.57723e-05
-6.04235e-08
1.57581e-05
-6.83673e-08
1.57411e-05
-7.69693e-08
1.57206e-05
-8.5911e-08
1.56958e-05
-9.34665e-08
1.56677e-05
-1.02197e-07
-9.95636e-08
1.56327e-05
1.58136e-05
-7.73341e-09
1.58168e-05
-1.52785e-08
1.58187e-05
-1.54539e-08
1.58205e-05
-1.61231e-08
1.5822e-05
-1.69213e-08
1.58233e-05
-1.75324e-08
1.58243e-05
-1.80048e-08
1.58251e-05
-1.84317e-08
1.58257e-05
-1.88515e-08
1.58261e-05
-1.92956e-08
1.58264e-05
-1.98037e-08
1.58264e-05
-2.0396e-08
1.58261e-05
-2.11067e-08
1.58255e-05
-2.1969e-08
1.58245e-05
-2.30239e-08
1.58229e-05
-2.43094e-08
1.58207e-05
-2.58492e-08
1.58177e-05
-2.76832e-08
1.58137e-05
-2.99446e-08
1.58087e-05
-3.25877e-08
1.58022e-05
-3.56314e-08
1.57943e-05
-3.93005e-08
1.57845e-05
-4.36171e-08
1.57726e-05
-4.85445e-08
1.57583e-05
-5.40492e-08
1.57413e-05
-5.9909e-08
1.57211e-05
-6.57585e-08
1.56968e-05
-6.92123e-08
1.56695e-05
-7.48023e-08
-5.84246e-08
1.56283e-05
1.58171e-05
-1.38302e-08
1.58206e-05
-1.87882e-08
1.58228e-05
-1.7662e-08
1.58244e-05
-1.77495e-08
1.58257e-05
-1.82388e-08
1.58268e-05
-1.85821e-08
1.58276e-05
-1.88188e-08
1.58282e-05
-1.90349e-08
1.58286e-05
-1.92518e-08
1.58288e-05
-1.94802e-08
1.58287e-05
-1.97386e-08
1.58284e-05
-2.0041e-08
1.58277e-05
-2.04051e-08
1.58265e-05
-2.08487e-08
1.58249e-05
-2.13959e-08
1.58227e-05
-2.20673e-08
1.58197e-05
-2.28713e-08
1.58158e-05
-2.38271e-08
1.58109e-05
-2.50326e-08
1.58048e-05
-2.64266e-08
1.57971e-05
-2.80106e-08
1.57878e-05
-2.99592e-08
1.57764e-05
-3.22697e-08
1.57628e-05
-3.49018e-08
1.57466e-05
-3.78457e-08
1.57276e-05
-4.09242e-08
1.57058e-05
-4.39601e-08
1.56807e-05
-4.40818e-08
1.56491e-05
-4.32503e-08
7.36361e-09
1.55833e-05
1.57971e-05
1.57783e-05
1.57607e-05
1.57429e-05
1.57247e-05
1.57061e-05
1.56873e-05
1.56683e-05
1.5649e-05
1.56295e-05
1.56098e-05
1.55898e-05
1.55693e-05
1.55485e-05
1.55271e-05
1.5505e-05
1.54822e-05
1.54583e-05
1.54333e-05
1.54069e-05
1.53789e-05
1.53489e-05
1.53166e-05
1.52817e-05
1.52439e-05
1.5203e-05
1.5159e-05
1.51149e-05
1.50717e-05
1.5079e-05
1.54436e-05
-9.01995e-06
9.31165e-06
1.51068e-05
-9.09943e-06
9.43628e-06
1.47157e-05
-9.15486e-06
9.546e-06
1.42801e-05
-9.18536e-06
9.62091e-06
1.382e-05
-9.21167e-06
9.67176e-06
1.33485e-05
-9.24061e-06
9.71216e-06
1.28708e-05
-9.27194e-06
9.74958e-06
1.23897e-05
-9.30567e-06
9.78676e-06
1.19064e-05
-9.34195e-06
9.82528e-06
1.1421e-05
-9.3807e-06
9.86606e-06
1.09334e-05
-9.42167e-06
9.90932e-06
1.04432e-05
-9.46478e-06
9.95501e-06
9.95016e-06
-9.51023e-06
1.00032e-05
9.45432e-06
-9.55841e-06
1.00543e-05
8.95553e-06
-9.60985e-06
1.01086e-05
8.45366e-06
-9.66514e-06
1.0167e-05
7.9485e-06
-9.72507e-06
1.02302e-05
7.43974e-06
-9.79064e-06
1.02994e-05
6.92698e-06
-9.86322e-06
1.0376e-05
6.40968e-06
-9.94469e-06
1.0462e-05
5.88715e-06
-1.00377e-05
1.05602e-05
5.35805e-06
-1.01461e-05
1.06752e-05
4.82184e-06
-1.02749e-05
1.08111e-05
4.27298e-06
-1.04359e-05
1.09848e-05
3.71679e-06
-1.06323e-05
1.11884e-05
3.12414e-06
-1.09277e-05
1.15204e-05
2.53379e-06
-1.12458e-05
1.18362e-05
1.8207e-06
-1.20283e-05
1.27414e-05
1.09563e-06
-1.25493e-05
1.32744e-05
-1.56198e-05
1.67154e-05
1.57226e-05
-8.61423e-06
1.52699e-05
-8.64672e-06
1.4794e-05
-8.67899e-06
1.43128e-05
-8.70407e-06
1.38318e-05
-8.73071e-06
1.33513e-05
-8.76013e-06
1.2871e-05
-8.79159e-06
1.23905e-05
-8.82516e-06
1.19087e-05
-8.86021e-06
1.14249e-05
-8.89684e-06
1.09385e-05
-8.93526e-06
1.04494e-05
-8.97569e-06
9.95757e-06
-9.01844e-06
9.46304e-06
-9.06389e-06
8.96566e-06
-9.11247e-06
8.46524e-06
-9.16472e-06
7.96153e-06
-9.22135e-06
7.45419e-06
-9.2833e-06
6.94281e-06
-9.35183e-06
6.4268e-06
-9.42868e-06
5.90538e-06
-9.51625e-06
5.37736e-06
-9.61805e-06
4.84147e-06
-9.73902e-06
4.29385e-06
-9.88829e-06
3.73523e-06
-1.00736e-05
3.14561e-06
-1.03381e-05
2.54645e-06
-1.06467e-05
1.83892e-06
-1.13208e-05
1.10735e-06
-1.18178e-05
-1.45125e-05
1.5687e-05
-8.15799e-06
1.52209e-05
-8.1806e-06
1.47498e-05
-8.20792e-06
1.42797e-05
-8.23396e-06
1.38085e-05
-8.25956e-06
1.33358e-05
-8.2874e-06
1.28611e-05
-8.31692e-06
1.23837e-05
-8.34778e-06
1.19036e-05
-8.38005e-06
1.14208e-05
-8.41403e-06
1.09354e-05
-8.44994e-06
1.04477e-05
-8.48791e-06
9.9574e-06
-8.52817e-06
9.4645e-06
-8.57099e-06
8.9688e-06
-8.61676e-06
8.47007e-06
-8.66599e-06
7.96804e-06
-8.71933e-06
7.46239e-06
-8.77765e-06
6.95266e-06
-8.8421e-06
6.43825e-06
-8.91427e-06
5.91832e-06
-8.99632e-06
5.39168e-06
-9.09141e-06
4.85675e-06
-9.20409e-06
4.31042e-06
-9.34196e-06
3.75079e-06
-9.51401e-06
3.16349e-06
-9.75079e-06
2.55786e-06
-1.0041e-05
1.85449e-06
-1.06174e-05
1.11422e-06
-1.10775e-05
-1.33982e-05
1.56798e-05
-7.6964e-06
1.52158e-05
-7.71654e-06
1.47476e-05
-7.73975e-06
1.42771e-05
-7.76343e-06
1.3805e-05
-7.78753e-06
1.33309e-05
-7.81323e-06
1.28546e-05
-7.84066e-06
1.23764e-05
-7.86955e-06
1.18962e-05
-7.89992e-06
1.14141e-05
-7.93193e-06
1.09299e-05
-7.96572e-06
1.04434e-05
-8.00141e-06
9.95446e-06
-8.03921e-06
9.46288e-06
-8.07941e-06
8.96851e-06
-8.12239e-06
8.47112e-06
-8.1686e-06
7.97044e-06
-8.21865e-06
7.46612e-06
-8.27333e-06
6.95768e-06
-8.33365e-06
6.44446e-06
-8.40105e-06
5.9256e-06
-8.47746e-06
5.39988e-06
-8.56568e-06
4.86554e-06
-8.66975e-06
4.31971e-06
-8.79614e-06
3.75916e-06
-8.95346e-06
3.17276e-06
-9.16439e-06
2.56157e-06
-9.42984e-06
1.86146e-06
-9.91728e-06
1.11351e-06
-1.03295e-05
-1.22847e-05
1.56638e-05
-7.23212e-06
1.51977e-05
-7.25047e-06
1.47289e-05
-7.27096e-06
1.42583e-05
-7.29287e-06
1.37866e-05
-7.31581e-06
1.33135e-05
-7.34007e-06
1.28386e-05
-7.36578e-06
1.23619e-05
-7.39282e-06
1.18832e-05
-7.42122e-06
1.14024e-05
-7.45112e-06
1.09193e-05
-7.48267e-06
1.04339e-05
-7.51602e-06
9.94609e-06
-7.55138e-06
9.45568e-06
-7.589e-06
8.96251e-06
-7.62922e-06
8.46635e-06
-7.67244e-06
7.9669e-06
-7.7192e-06
7.46377e-06
-7.77019e-06
6.95645e-06
-7.82634e-06
6.44428e-06
-7.88888e-06
5.92634e-06
-7.95952e-06
5.40134e-06
-8.04069e-06
4.86747e-06
-8.13587e-06
4.32187e-06
-8.25053e-06
3.76063e-06
-8.39223e-06
3.17435e-06
-8.57811e-06
2.55892e-06
-8.8144e-06
1.8611e-06
-9.21947e-06
1.10733e-06
-9.57576e-06
-1.11774e-05
1.56438e-05
-6.76703e-06
1.51774e-05
-6.78406e-06
1.47093e-05
-6.80281e-06
1.42396e-05
-6.82321e-06
1.37686e-05
-6.84481e-06
1.3296e-05
-6.8675e-06
1.28216e-05
-6.89139e-06
1.23454e-05
-6.91655e-06
1.18672e-05
-6.94303e-06
1.1387e-05
-6.97092e-06
1.09047e-05
-7.00037e-06
1.04202e-05
-7.03151e-06
9.9333e-06
-7.06452e-06
9.44392e-06
-7.09961e-06
8.95179e-06
-7.13709e-06
8.45667e-06
-7.17732e-06
7.95824e-06
-7.22077e-06
7.45608e-06
-7.26804e-06
6.94968e-06
-7.31993e-06
6.43832e-06
-7.37752e-06
5.92106e-06
-7.44226e-06
5.39656e-06
-7.51619e-06
4.86292e-06
-7.60223e-06
4.31725e-06
-7.70487e-06
3.75535e-06
-7.83032e-06
3.16865e-06
-7.99142e-06
2.54991e-06
-8.19566e-06
1.85407e-06
-8.52362e-06
1.09599e-06
-8.81768e-06
-1.00814e-05
1.562e-05
-6.30172e-06
1.51536e-05
-6.31761e-06
1.46857e-05
-6.33492e-06
1.42164e-05
-6.3539e-06
1.37456e-05
-6.37408e-06
1.32734e-05
-6.39524e-06
1.27994e-05
-6.41747e-06
1.23238e-05
-6.44089e-06
1.18463e-05
-6.46554e-06
1.13669e-05
-6.49152e-06
1.08854e-05
-6.51892e-06
1.04018e-05
-6.54787e-06
9.9158e-06
-6.57853e-06
9.42729e-06
-6.6111e-06
8.93604e-06
-6.64585e-06
8.44179e-06
-6.68307e-06
7.9442e-06
-6.72318e-06
7.44285e-06
-6.76668e-06
6.93717e-06
-6.81426e-06
6.42644e-06
-6.86679e-06
5.90967e-06
-6.92548e-06
5.38547e-06
-6.992e-06
4.8519e-06
-7.06866e-06
4.30601e-06
-7.15897e-06
3.74343e-06
-7.26774e-06
3.15608e-06
-7.40407e-06
2.5349e-06
-7.57447e-06
1.84127e-06
-7.83e-06
1.08028e-06
-8.05669e-06
-9.00113e-06
1.55927e-05
-5.83634e-06
1.51263e-05
-5.85119e-06
1.46587e-05
-5.86725e-06
1.41897e-05
-5.8849e-06
1.37193e-05
-5.90369e-06
1.32474e-05
-5.92338e-06
1.2774e-05
-5.94402e-06
1.22988e-05
-5.96574e-06
1.18219e-05
-5.98861e-06
1.13431e-05
-6.01269e-06
1.08622e-05
-6.03808e-06
1.03792e-05
-6.06487e-06
9.89392e-06
-6.09323e-06
9.40612e-06
-6.1233e-06
8.91559e-06
-6.15532e-06
8.42204e-06
-6.18953e-06
7.92513e-06
-6.22627e-06
7.4244e-06
-6.26596e-06
6.91928e-06
-6.30914e-06
6.409e-06
-6.35651e-06
5.89254e-06
-6.40902e-06
5.36849e-06
-6.46794e-06
4.83483e-06
-6.53501e-06
4.2886e-06
-6.61274e-06
3.72535e-06
-6.70449e-06
3.13731e-06
-6.81603e-06
2.51444e-06
-6.9516e-06
1.8233e-06
-7.13886e-06
1.06111e-06
-7.2945e-06
-7.94002e-06
1.55623e-05
-5.37097e-06
1.5096e-05
-5.38484e-06
1.46285e-05
-5.39975e-06
1.41597e-05
-5.41611e-06
1.36896e-05
-5.43355e-06
1.3218e-05
-5.4518e-06
1.27449e-05
-5.4709e-06
1.22701e-05
-5.49099e-06
1.17936e-05
-5.51212e-06
1.13153e-05
-5.53436e-06
1.0835e-05
-5.55777e-06
1.03526e-05
-5.58245e-06
9.86785e-06
-5.60851e-06
9.38064e-06
-5.63609e-06
8.89069e-06
-5.66537e-06
8.39771e-06
-5.69655e-06
7.90133e-06
-5.72988e-06
7.40108e-06
-5.7657e-06
6.89635e-06
-5.80441e-06
6.38637e-06
-5.84653e-06
5.87008e-06
-5.89273e-06
5.34604e-06
-5.9439e-06
4.8122e-06
-6.00118e-06
4.26558e-06
-6.06611e-06
3.70171e-06
-6.14063e-06
3.11308e-06
-6.2274e-06
2.48926e-06
-6.32777e-06
1.80101e-06
-6.45061e-06
1.03952e-06
-6.53301e-06
-6.9005e-06
1.55292e-05
-4.90555e-06
1.50629e-05
-4.91852e-06
1.45955e-05
-4.93234e-06
1.41269e-05
-4.94748e-06
1.36569e-05
-4.9636e-06
1.31856e-05
-4.98044e-06
1.27127e-05
-4.99806e-06
1.22383e-05
-5.01656e-06
1.17622e-05
-5.036e-06
1.12842e-05
-5.05643e-06
1.08043e-05
-5.07789e-06
1.03224e-05
-5.10046e-06
9.8381e-06
-5.12425e-06
9.35135e-06
-5.14934e-06
8.86185e-06
-5.17587e-06
8.3693e-06
-5.204e-06
7.87331e-06
-5.2339e-06
7.3734e-06
-5.26579e-06
6.86895e-06
-5.29996e-06
6.35914e-06
-5.33673e-06
5.84292e-06
-5.37651e-06
5.31879e-06
-5.41977e-06
4.78472e-06
-5.4671e-06
4.23771e-06
-5.51909e-06
3.67333e-06
-5.57625e-06