/*--------------------------------*- C++ -*----------------------------------*\
  =========                 |
  \\      /  F ield         | OpenFOAM: The Open Source CFD Toolbox
   \\    /   O peration     | Website:  https://openfoam.org
    \\  /    A nd           | Version:  11
     \\/     M anipulation  |
\*---------------------------------------------------------------------------*/
FoamFile
{
    format      ascii;
    class       surfaceScalarField;
    location    "2";
    object      phi;
}
// * * * * * * * * * * * * * * * * * * * * * * * * * * * * * * * * * * * * * //

dimensions      [0 3 -1 0 0 0 0];

internalField   nonuniform List<scalar> 
24840
(
1.92404e-05
7.69529e-09
1.92299e-05
1.05032e-08
1.92205e-05
9.47978e-09
1.92124e-05
8.09016e-09
1.92059e-05
6.41594e-09
1.92016e-05
4.33554e-09
1.91998e-05
1.81067e-09
1.92011e-05
-1.27609e-09
1.92059e-05
-4.85582e-09
1.92147e-05
-8.72804e-09
1.92275e-05
-1.28614e-08
1.9245e-05
-1.74992e-08
1.92678e-05
-2.2768e-08
1.92965e-05
-2.86915e-08
1.93318e-05
-3.53478e-08
1.93748e-05
-4.29224e-08
1.94264e-05
-5.16267e-08
1.94881e-05
-6.1706e-08
1.95615e-05
-7.34485e-08
1.96487e-05
-8.71857e-08
1.9752e-05
-1.03291e-07
1.98742e-05
-1.22175e-07
2.00185e-05
-1.44265e-07
2.01884e-05
-1.69937e-07
2.03881e-05
-1.99692e-07
2.06218e-05
-2.33718e-07
2.08949e-05
-2.73118e-07
2.12076e-05
-3.12681e-07
2.158e-05
-3.72412e-07
-3.54586e-07
2.19346e-05
1.92521e-05
3.76761e-09
1.92554e-05
7.20088e-09
1.92585e-05
6.29822e-09
1.92624e-05
4.27851e-09
1.92673e-05
1.48093e-09
1.9274e-05
-2.3713e-09
1.9283e-05
-7.2369e-09
1.92949e-05
-1.31501e-08
1.93101e-05
-1.99994e-08
1.93291e-05
-2.7744e-08
1.93526e-05
-3.64032e-08
1.93811e-05
-4.5935e-08
1.94146e-05
-5.63264e-08
1.94537e-05
-6.78202e-08
1.94991e-05
-8.07002e-08
1.95514e-05
-9.5202e-08
1.96114e-05
-1.11659e-07
1.96802e-05
-1.30536e-07
1.97592e-05
-1.5242e-07
1.985e-05
-1.78001e-07
1.99548e-05
-2.08046e-07
2.0076e-05
-2.4339e-07
2.02166e-05
-2.84919e-07
2.03802e-05
-3.33533e-07
2.05707e-05
-3.90178e-07
2.07925e-05
-4.5548e-07
2.10504e-05
-5.31028e-07
2.13492e-05
-6.11464e-07
2.16963e-05
-7.19524e-07
-7.4541e-07
2.20871e-05
1.92498e-05
2.1118e-09
1.92525e-05
4.52057e-09
1.92551e-05
3.64555e-09
1.92587e-05
7.07292e-10
1.92636e-05
-3.4188e-09
1.92704e-05
-9.15773e-09
1.92795e-05
-1.63875e-08
1.92915e-05
-2.50964e-08
1.93067e-05
-3.5174e-08
1.93255e-05
-4.65511e-08
1.93483e-05
-5.92092e-08
1.93755e-05
-7.3152e-08
1.94076e-05
-8.84556e-08
1.94451e-05
-1.0536e-07
1.94886e-05
-1.242e-07
1.95388e-05
-1.45365e-07
1.95965e-05
-1.69367e-07
1.96629e-05
-1.96884e-07
1.97392e-05
-2.28757e-07
1.98272e-05
-2.65974e-07
1.99288e-05
-3.0966e-07
2.00465e-05
-3.61065e-07
2.01831e-05
-4.21553e-07
2.03421e-05
-4.92563e-07
2.05276e-05
-5.75633e-07
2.0744e-05
-6.71892e-07
2.09967e-05
-7.83726e-07
2.12909e-05
-9.05702e-07
2.16336e-05
-1.0622e-06
-1.14488e-06
2.20331e-05
1.9249e-05
1.23742e-09
1.9251e-05
2.49809e-09
1.92534e-05
1.23424e-09
1.92566e-05
-2.46078e-09
1.92613e-05
-8.06169e-09
1.92677e-05
-1.5634e-08
1.92765e-05
-2.51582e-08
1.9288e-05
-3.6581e-08
1.93026e-05
-4.97828e-08
1.93207e-05
-6.46635e-08
1.93427e-05
-8.11872e-08
1.93689e-05
-9.93812e-08
1.93998e-05
-1.19364e-07
1.94359e-05
-1.41401e-07
1.94776e-05
-1.65894e-07
1.95256e-05
-1.93377e-07
1.95807e-05
-2.24547e-07
1.96442e-05
-2.6029e-07
1.97171e-05
-3.01686e-07
1.98011e-05
-3.50011e-07
1.98982e-05
-4.06735e-07
2.00107e-05
-4.73527e-07
2.01414e-05
-5.52248e-07
2.02937e-05
-6.44916e-07
2.04718e-05
-7.53729e-07
2.06804e-05
-8.80517e-07
2.09251e-05
-1.02843e-06
2.12125e-05
-1.19303e-06
2.15485e-05
-1.39821e-06
-1.54389e-06
2.19475e-05
1.92486e-05
7.32958e-10
1.92501e-05
1.04933e-09
1.92522e-05
-8.49321e-10
1.92551e-05
-5.37308e-09
1.92594e-05
-1.23453e-08
1.92655e-05
-2.17189e-08
1.92738e-05
-3.34605e-08
1.92847e-05
-4.74813e-08
1.92985e-05
-6.36476e-08
1.93157e-05
-8.18441e-08
1.93365e-05
-1.02024e-07
1.93614e-05
-1.24227e-07
1.93906e-05
-1.48606e-07
1.94247e-05
-1.75467e-07
1.94641e-05
-2.05282e-07
1.95094e-05
-2.38702e-07
1.95614e-05
-2.7658e-07
1.96211e-05
-3.19995e-07
1.96897e-05
-3.70261e-07
1.97686e-05
-4.28943e-07
1.98598e-05
-4.97858e-07
1.99653e-05
-5.79099e-07
2.00881e-05
-6.75041e-07
2.02315e-05
-7.88315e-07
2.03996e-05
-9.21843e-07
2.05975e-05
-1.07833e-06
2.08308e-05
-1.26178e-06
2.11072e-05
-1.46938e-06
2.14328e-05
-1.7239e-06
-1.93562e-06
2.18246e-05
1.92485e-05
3.62809e-10
1.92496e-05
-3.08039e-11
1.92513e-05
-2.61426e-09
1.9254e-05
-8.02843e-09
1.9258e-05
-1.63076e-08
1.92636e-05
-2.73965e-08
1.92714e-05
-4.12214e-08
1.92816e-05
-5.76715e-08
1.92946e-05
-7.66062e-08
1.93106e-05
-9.78987e-08
1.93301e-05
-1.21489e-07
1.93533e-05
-1.47419e-07
1.93805e-05
-1.75863e-07
1.94122e-05
-2.07164e-07
1.94488e-05
-2.41861e-07
1.94908e-05
-2.80711e-07
1.95389e-05
-3.24712e-07
1.95941e-05
-3.75123e-07
1.96573e-05
-4.33478e-07
1.973e-05
-5.01612e-07
1.98138e-05
-5.81676e-07
1.99108e-05
-6.76178e-07
2.00238e-05
-7.88007e-07
2.01559e-05
-9.20443e-07
2.03113e-05
-1.0772e-06
2.0495e-05
-1.26199e-06
2.07131e-05
-1.47988e-06
2.09738e-05
-1.73013e-06
2.12843e-05
-2.03441e-06
-2.31567e-06
2.16644e-05
1.92484e-05
6.49197e-11
1.92492e-05
-8.34564e-10
1.92507e-05
-4.11835e-09
1.92531e-05
-1.04272e-08
1.92568e-05
-1.99246e-08
1.9262e-05
-3.25935e-08
1.92691e-05
-4.83412e-08
1.92784e-05
-6.70345e-08
1.92903e-05
-8.8516e-08
1.93051e-05
-1.12644e-07
1.93229e-05
-1.39347e-07
1.93442e-05
-1.68663e-07
1.93691e-05
-2.00785e-07
1.9398e-05
-2.36089e-07
1.94314e-05
-2.75175e-07
1.94695e-05
-3.18888e-07
1.95132e-05
-3.68348e-07
1.9563e-05
-4.24972e-07
1.962e-05
-4.90492e-07
1.96854e-05
-5.66991e-07
1.97607e-05
-6.56934e-07
1.98477e-05
-7.63227e-07
1.9949e-05
-8.89269e-07
2.00675e-05
-1.039e-06
2.02073e-05
-1.21696e-06
2.03733e-05
-1.42803e-06
2.0572e-05
-1.6785e-06
2.0812e-05
-1.97016e-06
2.11014e-05
-2.32382e-06
-2.67782e-06
2.14635e-05
1.92484e-05
-1.60201e-10
1.9249e-05
-1.47214e-09
1.92503e-05
-5.41071e-09
1.92524e-05
-1.25548e-08
1.92557e-05
-2.31695e-08
1.92603e-05
-3.72736e-08
1.92668e-05
-5.47642e-08
1.92752e-05
-7.54843e-08
1.9286e-05
-9.92574e-08
1.92992e-05
-1.25927e-07
1.93153e-05
-1.55408e-07
1.93344e-05
-1.87735e-07
1.93567e-05
-2.23106e-07
1.93825e-05
-2.61926e-07
1.94122e-05
-3.04839e-07
1.94461e-05
-3.52766e-07
1.94846e-05
-4.06927e-07
1.95286e-05
-4.68872e-07
1.95786e-05
-5.40507e-07
1.96357e-05
-6.24127e-07
1.97012e-05
-7.2248e-07
1.97769e-05
-8.38831e-07
1.98646e-05
-9.7706e-07
1.99674e-05
-1.14175e-06
2.00887e-05
-1.33831e-06
2.02335e-05
-1.57282e-06
2.0408e-05
-1.853e-06
2.06215e-05
-2.1836e-06
2.08825e-05
-2.58485e-06
-3.01342e-06
2.12181e-05
1.92483e-05
-3.23548e-10
1.92488e-05
-2.00831e-09
1.92499e-05
-6.50675e-09
1.92518e-05
-1.44085e-08
1.92546e-05
-2.60258e-08
1.92588e-05
-4.14033e-08
1.92644e-05
-6.0433e-08
1.92719e-05
-8.29382e-08
1.92814e-05
-1.08722e-07
1.9293e-05
-1.3761e-07
1.93071e-05
-1.69502e-07
1.93238e-05
-2.04424e-07
1.93433e-05
-2.42576e-07
1.93657e-05
-2.84378e-07
1.93914e-05
-3.30509e-07
1.94206e-05
-3.81945e-07
1.94536e-05
-4.39984e-07
1.94911e-05
-5.06278e-07
1.95334e-05
-5.82868e-07
1.95815e-05
-6.72224e-07
1.96364e-05
-7.77324e-07
1.96993e-05
-9.01742e-07
1.9772e-05
-1.04978e-06
1.98569e-05
-1.22662e-06
1.99571e-05
-1.4385e-06
2.0077e-05
-1.69273e-06
2.02225e-05
-1.99855e-06
2.04029e-05
-2.36398e-06
2.0627e-05
-2.80898e-06
-3.31125e-06
2.09249e-05
1.92483e-05
-4.50547e-10
1.92487e-05
-2.45271e-09
1.92496e-05
-7.42823e-09
1.92512e-05
-1.5992e-08
1.92537e-05
-2.84811e-08
1.92572e-05
-4.49559e-08
1.92621e-05
-6.53047e-08
1.92685e-05
-8.93332e-08
1.92766e-05
-1.16824e-07
1.92866e-05
-1.47582e-07
1.92985e-05
-1.81492e-07
1.93127e-05
-2.18566e-07
1.93291e-05
-2.59e-07
1.9348e-05
-3.03219e-07
1.93694e-05
-3.51921e-07
1.93935e-05
-4.06116e-07
1.94207e-05
-4.67152e-07
1.94512e-05
-5.36753e-07
1.94854e-05
-6.1705e-07
1.95238e-05
-7.10638e-07
1.95671e-05
-8.20662e-07
1.96163e-05
-9.50931e-07
1.96726e-05
-1.10609e-06
1.97378e-05
-1.2918e-06
1.98143e-05
-1.51506e-06
1.99059e-05
-1.78429e-06
2.00177e-05
-2.11029e-06
2.01581e-05
-2.50441e-06
2.03357e-05
-2.98664e-06
-3.55759e-06
2.05821e-05
1.92482e-05
-5.52389e-10
1.92486e-05
-2.81692e-09
1.92494e-05
-8.19113e-09
1.92507e-05
-1.73109e-08
1.92527e-05
-3.05288e-08
1.92557e-05
-4.79131e-08
1.92597e-05
-6.93471e-08
1.9265e-05
-9.46206e-08
1.92717e-05
-1.23496e-07
1.92799e-05
-1.55758e-07
1.92896e-05
-1.91272e-07
1.93011e-05
-2.30034e-07
1.93143e-05
-2.72227e-07
1.93294e-05
-3.18273e-07
1.93463e-05
-3.68873e-07
1.93653e-05
-4.25047e-07
1.93863e-05
-4.88167e-07
1.94095e-05
-5.59988e-07
1.94352e-05
-6.42686e-07
1.94634e-05
-7.38919e-07
1.94947e-05
-8.51922e-07
1.95294e-05
-9.85645e-07
1.95683e-05
-1.14495e-06
1.96123e-05
-1.33585e-06
1.96632e-05
-1.56591e-06
1.97234e-05
-1.84448e-06
1.97968e-05
-2.18371e-06
1.98905e-05
-2.5981e-06
2.00116e-05
-3.10781e-06
-3.73676e-06
2.01908e-05
1.92482e-05
-6.34696e-10
1.92485e-05
-3.11197e-09
1.92491e-05
-8.80778e-09
1.92502e-05
-1.83724e-08
1.92518e-05
-3.21678e-08
1.92542e-05
-5.02645e-08
1.92574e-05
-7.2539e-08
1.92615e-05
-9.87668e-08
1.92667e-05
-1.28691e-07
1.9273e-05
-1.62077e-07
1.92805e-05
-1.98768e-07
1.92892e-05
-2.3874e-07
1.92992e-05
-2.82159e-07
1.93103e-05
-3.29429e-07
1.93227e-05
-3.8124e-07
1.93362e-05
-4.38602e-07
1.9351e-05
-5.02878e-07
1.93668e-05
-5.75814e-07
1.93837e-05
-6.59579e-07
1.94016e-05
-7.56828e-07
1.94205e-05
-8.70797e-07
1.94403e-05
-1.00546e-06
1.94611e-05
-1.16575e-06
1.94831e-05
-1.35784e-06
1.95067e-05
-1.58958e-06
1.95332e-05
-1.87096e-06
1.95646e-05
-2.21506e-06
1.96054e-05
-2.63898e-06
1.96606e-05
-3.16294e-06
-3.8324e-06
1.97562e-05
1.92482e-05
-7.01207e-10
1.92484e-05
-3.34724e-09
1.92489e-05
-9.28933e-09
1.92497e-05
-1.91856e-08
1.9251e-05
-3.34018e-08
1.92527e-05
-5.20071e-08
1.9255e-05
-7.48705e-08
1.9258e-05
-1.01754e-07
1.92617e-05
-1.32383e-07
1.92661e-05
-1.66504e-07
1.92713e-05
-2.03938e-07
1.92772e-05
-2.44637e-07
1.92838e-05
-2.88744e-07
1.9291e-05
-3.36636e-07
1.92987e-05
-3.88974e-07
1.93069e-05
-4.46736e-07
1.93152e-05
-5.11247e-07
1.93236e-05
-5.84203e-07
1.93318e-05
-6.67713e-07
1.93393e-05
-7.64354e-07
1.93458e-05
-8.77272e-07
1.93506e-05
-1.01034e-06
1.93533e-05
-1.16837e-06
1.93529e-05
-1.35746e-06
1.93487e-05
-1.58545e-06
1.93402e-05
-1.86245e-06
1.93271e-05
-2.20192e-06
1.93107e-05
-2.62256e-06
1.9292e-05
-3.14423e-06
-3.8295e-06
1.92891e-05
1.92482e-05
-7.54971e-10
1.92484e-05
-3.53108e-09
1.92487e-05
-9.64678e-09
1.92493e-05
-1.97612e-08
1.92501e-05
-3.42393e-08
1.92513e-05
-5.31461e-08
1.92528e-05
-7.63426e-08
1.92546e-05
-1.0358e-07
1.92568e-05
-1.34567e-07
1.92593e-05
-1.69032e-07
1.92621e-05
-2.06773e-07
1.92652e-05
-2.47719e-07
1.92684e-05
-2.91981e-07
1.92717e-05
-3.39902e-07
1.92748e-05
-3.92099e-07
1.92776e-05
-4.49497e-07
1.92797e-05
-5.13352e-07
1.92808e-05
-5.85274e-07
1.92803e-05
-6.67255e-07
1.92777e-05
-7.61725e-07
1.92721e-05
-8.71639e-07
1.92623e-05
-1.00063e-06
1.92472e-05
-1.15322e-06
1.92249e-05
-1.33515e-06
1.91933e-05
-1.55384e-06
1.91498e-05
-1.81902e-06
1.90916e-05
-2.14371e-06
1.90159e-05
-2.54684e-06
1.89188e-05
-3.04712e-06
-3.71718e-06
1.88065e-05
1.92482e-05
-7.98841e-10
1.92483e-05
-3.67146e-09
1.92486e-05
-9.89134e-09
1.92489e-05
-2.0112e-08
1.92494e-05
-3.46932e-08
1.92499e-05
-5.36938e-08
1.92505e-05
-7.69673e-08
1.92512e-05
-1.04255e-07
1.92519e-05
-1.35254e-07
1.92525e-05
-1.69675e-07
1.92531e-05
-2.07296e-07
1.92534e-05
-2.48017e-07
1.92533e-05
-2.91917e-07
1.92527e-05
-3.39294e-07
1.92513e-05
-3.90712e-07
1.92488e-05
-4.47021e-07
1.92449e-05
-5.09383e-07
1.92389e-05
-5.79284e-07
1.92302e-05
-6.58551e-07
1.92178e-05
-7.49399e-07
1.92007e-05
-8.54499e-07
1.91772e-05
-9.7711e-07
1.91452e-05
-1.12128e-06
1.91022e-05
-1.29211e-06
1.90446e-05
-1.49623e-06
1.89679e-05
-1.74233e-06
1.88663e-05
-2.04211e-06
1.87326e-05
-2.41314e-06
1.85573e-05
-2.8718e-06
-3.49172e-06
1.83318e-05
1.92482e-05
-8.35163e-10
1.92483e-05
-3.77655e-09
1.92484e-05
-1.00359e-08
1.92486e-05
-2.02539e-08
1.92486e-05
-3.47816e-08
1.92486e-05
-5.367e-08
1.92484e-05
-7.67666e-08
1.9248e-05
-1.03807e-07
1.92472e-05
-1.34477e-07
1.9246e-05
-1.68474e-07
1.92443e-05
-2.05556e-07
1.92418e-05
-2.45598e-07
1.92386e-05
-2.88641e-07
1.92342e-05
-3.34935e-07
1.92285e-05
-3.84975e-07
1.9221e-05
-4.39525e-07
1.92112e-05
-4.9963e-07
1.91986e-05
-5.66619e-07
1.91821e-05
-6.42114e-07
1.91608e-05
-7.28053e-07
1.9133e-05
-8.26742e-07
1.90969e-05
-9.40954e-07
1.90497e-05
-1.07408e-06
1.89879e-05
-1.23035e-06
1.89069e-05
-1.41519e-06
1.88002e-05
-1.6357e-06
1.86595e-05
-1.90135e-06
1.8473e-05
-2.22665e-06
1.82255e-05
-2.62436e-06
-3.15919e-06
1.7893e-05
1.92482e-05
-8.68158e-10
1.92482e-05
-3.85568e-09
1.92483e-05
-1.00921e-08
1.92483e-05
-2.02024e-08
1.9248e-05
-3.45259e-08
1.92474e-05
-5.31014e-08
1.92464e-05
-7.57728e-08
1.92449e-05
-1.02273e-07
1.92427e-05
-1.32284e-07
1.92397e-05
-1.6549e-07
1.92358e-05
-2.01633e-07
1.92308e-05
-2.40564e-07
1.92244e-05
-2.82284e-07
1.92165e-05
-3.26992e-07
1.92066e-05
-3.75109e-07
1.91944e-05
-4.27298e-07
1.91792e-05
-4.84471e-07
1.91604e-05
-5.47777e-07
1.91369e-05
-6.18597e-07
1.91074e-05
-6.9855e-07
1.90701e-05
-7.89513e-07
1.90228e-05
-8.93679e-07
1.89624e-05
-1.01365e-06
1.88846e-05
-1.15257e-06
1.87838e-05
-1.31437e-06
1.86522e-05
-1.50405e-06
1.84789e-05
-1.72808e-06
1.82487e-05
-1.99646e-06
1.79415e-05
-2.31713e-06
-2.73667e-06
1.75189e-05
1.92482e-05
-8.99763e-10
1.92482e-05
-3.91753e-09
1.92482e-05
-1.00759e-08
1.9248e-05
-1.99802e-08
1.92474e-05
-3.39541e-08
1.92463e-05
-5.20201e-08
1.92446e-05
-7.40254e-08
1.9242e-05
-9.97051e-08
1.92385e-05
-1.28738e-07
1.92338e-05
-1.60803e-07
1.92278e-05
-1.95629e-07
1.92203e-05
-2.33043e-07
1.9211e-05
-2.73011e-07
1.91997e-05
-3.15677e-07
1.91859e-05
-3.61384e-07
1.91693e-05
-4.10689e-07
1.91492e-05
-4.64358e-07
1.91248e-05
-5.23344e-07
1.9095e-05
-5.8877e-07
1.90583e-05
-6.61904e-07
1.9013e-05
-7.44155e-07
1.89564e-05
-8.37077e-07
1.88851e-05
-9.42397e-07
1.87946e-05
-1.06205e-06
1.86785e-05
-1.19826e-06
1.8528e-05
-1.35359e-06
1.8331e-05
-1.53103e-06
1.80695e-05
-1.73504e-06
1.77203e-05
-1.96792e-06
-2.25147e-06
1.72351e-05
1.92482e-05
-9.3202e-10
1.92482e-05
-3.96899e-09
1.92482e-05
-1.00091e-08
1.92478e-05
-1.96169e-08
1.92469e-05
-3.30936e-08
1.92454e-05
-5.04619e-08
1.92429e-05
-7.15723e-08
1.92394e-05
-9.61633e-08
1.92346e-05
-1.23916e-07
1.92283e-05
-1.5451e-07
1.92203e-05
-1.87664e-07
1.92104e-05
-2.23189e-07
1.91984e-05
-2.61015e-07
1.9184e-05
-3.01234e-07
1.91667e-05
-3.4411e-07
1.91461e-05
-3.90091e-07
1.91216e-05
-4.39793e-07
1.90922e-05
-4.93971e-07
1.90569e-05
-5.53477e-07
1.90142e-05
-6.19223e-07
1.89622e-05
-6.92136e-07
1.88982e-05
-7.73114e-07
1.88188e-05
-8.62983e-07
1.87192e-05
-9.62427e-07
1.85928e-05
-1.07188e-06
1.84306e-05
-1.19138e-06
1.82199e-05
-1.32029e-06
1.79419e-05
-1.45708e-06
1.75723e-05
-1.59832e-06
-1.73805e-06
1.70589e-05
1.92482e-05
-9.68573e-10
1.92482e-05
-4.02518e-09
1.92481e-05
-9.91152e-09
1.92476e-05
-1.9135e-08
1.92465e-05
-3.19781e-08
1.92445e-05
-4.84712e-08
1.92414e-05
-6.84688e-08
1.9237e-05
-9.17179e-08
1.9231e-05
-1.17908e-07
1.92232e-05
-1.46722e-07
1.92134e-05
-1.77879e-07
1.92014e-05
-2.11175e-07
1.91869e-05
-2.46512e-07
1.91696e-05
-2.83931e-07
1.91491e-05
-3.23623e-07
1.91249e-05
-3.65927e-07
1.90965e-05
-4.11314e-07
1.90628e-05
-4.60341e-07
1.9023e-05
-5.13603e-07
1.89754e-05
-5.71661e-07
1.89182e-05
-6.34978e-07
1.88489e-05
-7.03822e-07
1.87641e-05
-7.78149e-07
1.86591e-05
-8.57444e-07
1.85277e-05
-9.40445e-07
1.83611e-05
-1.02478e-06
1.81472e-05
-1.10636e-06
1.78681e-05
-1.17801e-06
1.75009e-05
-1.23116e-06
-1.23328e-06
1.69962e-05
1.92482e-05
-1.01607e-09
1.92483e-05
-4.10012e-09
1.92481e-05
-9.80484e-09
1.92476e-05
-1.85657e-08
1.92462e-05
-3.06457e-08
1.92439e-05
-4.60956e-08
1.92402e-05
-6.4776e-08
1.92349e-05
-8.64466e-08
1.92278e-05
-1.1081e-07
1.92186e-05
-1.37561e-07
1.92072e-05
-1.66425e-07
1.91932e-05
-1.97189e-07
1.91764e-05
-2.29733e-07
1.91566e-05
-2.64054e-07
1.91332e-05
-3.00274e-07
1.91059e-05
-3.38633e-07
1.90741e-05
-3.79465e-07
1.90369e-05
-4.23146e-07
1.89933e-05
-4.70027e-07
1.8942e-05
-5.20355e-07
1.88812e-05
-5.7417e-07
1.88085e-05
-6.31172e-07
1.87209e-05
-6.90547e-07
1.86142e-05
-7.50713e-07
1.84827e-05
-8.08935e-07
1.83187e-05
-8.60747e-07
1.81115e-05
-8.99194e-07
1.78458e-05
-9.12335e-07
1.75024e-05
-8.87712e-07
-7.71613e-07
1.70407e-05
1.92482e-05
-1.08067e-09
1.92483e-05
-4.21626e-09
1.92482e-05
-9.71578e-09
1.92476e-05
-1.79416e-08
1.92461e-05
-2.91401e-08
1.92434e-05
-4.33858e-08
1.92392e-05
-6.05592e-08
1.92332e-05
-8.0433e-08
1.92251e-05
-1.02728e-07
1.92147e-05
-1.27159e-07
1.92017e-05
-1.53463e-07
1.91859e-05
-1.81428e-07
1.91671e-05
-2.10919e-07
1.9145e-05
-2.41895e-07
1.91191e-05
-2.7442e-07
1.90891e-05
-3.08646e-07
1.90545e-05
-3.44784e-07
1.90144e-05
-3.8305e-07
1.89679e-05
-4.23587e-07
1.89139e-05
-4.66371e-07
1.88509e-05
-5.11089e-07
1.87767e-05
-5.56972e-07
1.86887e-05
-6.02574e-07
1.85834e-05
-6.45464e-07
1.84562e-05
-6.81754e-07
1.83009e-05
-7.05386e-07
1.8109e-05
-7.07307e-07
1.78689e-05
-6.72201e-07
1.75664e-05
-5.85222e-07
-3.79118e-07
1.71739e-05
1.92482e-05
-1.1714e-09
1.92484e-05
-4.4014e-09
1.92484e-05
-9.68151e-09
1.92477e-05
-1.73034e-08
1.92461e-05
-2.75051e-08
1.92431e-05
-4.0395e-08
1.92384e-05
-5.58871e-08
1.92318e-05
-7.37641e-08
1.92228e-05
-9.37717e-08
1.92113e-05
-1.15652e-07
1.9197e-05
-1.39162e-07
1.91797e-05
-1.64098e-07
1.91591e-05
-1.90316e-07
1.91349e-05
-2.1775e-07
1.91069e-05
-2.46414e-07
1.90747e-05
-2.76387e-07
1.90377e-05
-3.07779e-07
1.89953e-05
-3.40672e-07
1.89467e-05
-3.75043e-07
1.8891e-05
-4.10658e-07
1.88269e-05
-4.46936e-07
1.87527e-05
-4.82763e-07
1.86663e-05
-5.1624e-07
1.85652e-05
-5.44345e-07
1.84459e-05
-5.62433e-07
1.83039e-05
-5.63447e-07
1.81338e-05
-5.37142e-07
1.7928e-05
-4.66412e-07
1.76783e-05
-3.35561e-07
-7.27816e-08
1.7372e-05
1.92483e-05
-1.30266e-09
1.92486e-05
-4.7017e-09
1.92486e-05
-9.7529e-09
1.9248e-05
-1.66886e-08
1.92463e-05
-2.57832e-08
1.92431e-05
-3.71854e-08
1.9238e-05
-5.08331e-08
1.92308e-05
-6.65295e-08
1.92211e-05
-8.40513e-08
1.92086e-05
-1.03176e-07
1.91931e-05
-1.23688e-07
1.91744e-05
-1.45398e-07
1.91523e-05
-1.68163e-07
1.91264e-05
-1.91901e-07
1.90966e-05
-2.16591e-07
1.90625e-05
-2.42253e-07
1.90236e-05
-2.68917e-07
1.89795e-05
-2.96567e-07
1.89295e-05
-3.25057e-07
1.88729e-05
-3.54011e-07
1.88086e-05
-3.82685e-07
1.87356e-05
-4.09756e-07
1.86524e-05
-4.33069e-07
1.85574e-05
-4.49291e-07
1.84484e-05
-4.5344e-07
1.8323e-05
-4.38092e-07
1.81786e-05
-3.92713e-07
1.80122e-05
-2.9996e-07
1.78211e-05
-1.44539e-07
1.4081e-07
1.76075e-05
1.92483e-05
-1.50199e-09
1.92488e-05
-5.19356e-09
1.92491e-05
-9.98791e-09
1.92485e-05
-1.61352e-08
1.92467e-05
-2.40208e-08
1.92434e-05
-3.38209e-08
1.9238e-05
-4.54782e-08
1.92303e-05
-5.88277e-08
1.922e-05
-7.36889e-08
1.92067e-05
-8.98799e-08
1.91902e-05
-1.07218e-07
1.91703e-05
-1.25536e-07
1.91469e-05
-1.44703e-07
1.91196e-05
-1.6463e-07
1.90883e-05
-1.85271e-07
1.90526e-05
-2.06606e-07
1.90123e-05
-2.2861e-07
1.8967e-05
-2.51198e-07
1.89161e-05
-2.74156e-07
1.88591e-05
-2.97039e-07
1.87954e-05
-3.19041e-07
1.87245e-05
-3.38778e-07
1.86454e-05
-3.54031e-07
1.85576e-05
-3.61437e-07
1.84602e-05
-3.56086e-07
1.83529e-05
-3.3078e-07
1.82357e-05
-2.75545e-07
1.811e-05
-1.74188e-07
1.79786e-05
-1.32165e-08
2.66041e-07
1.78534e-05
1.92485e-05
-1.8352e-09
1.92493e-05
-6.00827e-09
1.92497e-05
-1.04496e-08
1.92493e-05
-1.56788e-08
1.92475e-05
-2.22606e-08
1.92441e-05
-3.03501e-08
1.92385e-05
-3.98811e-08
1.92304e-05
-5.07346e-08
1.92195e-05
-6.27846e-08
1.92055e-05
-7.58929e-08
1.91882e-05
-8.99124e-08
1.91673e-05
-1.04706e-07
1.91428e-05
-1.20162e-07
1.91144e-05
-1.36195e-07
1.90818e-05
-1.52749e-07
1.9045e-05
-1.69777e-07
1.90036e-05
-1.8722e-07
1.89574e-05
-2.04959e-07
1.8906e-05
-2.22752e-07
1.88491e-05
-2.40163e-07
1.87865e-05
-2.56439e-07
1.8718e-05
-2.70275e-07
1.86435e-05
-2.7956e-07
1.85632e-05
-2.81147e-07
1.84777e-05
-2.70563e-07
1.83883e-05
-2.41359e-07
1.82976e-05
-1.84824e-07
1.82104e-05
-8.6967e-08
1.81341e-05
6.30408e-08
3.12156e-07
1.8088e-05
1.92487e-05
-2.45141e-09
1.92501e-05
-7.34413e-09
1.92509e-05
-1.12361e-08
1.92506e-05
-1.54138e-08
1.92489e-05
-2.0592e-08
1.92454e-05
-2.68509e-08
1.92397e-05
-3.41277e-08
1.92313e-05
-4.23568e-08
1.922e-05
-5.14656e-08
1.92055e-05
-6.13599e-08
1.91875e-05
-7.19372e-08
1.91659e-05
-8.31007e-08
1.91405e-05
-9.4764e-08
1.91111e-05
-1.06854e-07
1.90777e-05
-1.19309e-07
1.904e-05
-1.3207e-07
1.89978e-05
-1.45066e-07
1.8951e-05
-1.58172e-07
1.88995e-05
-1.71157e-07
1.8843e-05
-1.8366e-07
1.87816e-05
-1.95098e-07
1.87157e-05
-2.0439e-07
1.86458e-05
-2.09677e-07
1.85729e-05
-2.08202e-07
1.84986e-05
-1.96221e-07
1.84256e-05
-1.68426e-07
1.83587e-05
-1.1791e-07
1.83053e-05
-3.35916e-08
1.82759e-05
9.24571e-08
2.92752e-07
1.82953e-05
1.92494e-05
-3.76656e-09
1.92513e-05
-9.22917e-09
1.92524e-05
-1.23215e-08
1.92524e-05
-1.54075e-08
1.92509e-05
-1.90757e-08
1.92474e-05
-2.33738e-08
1.92416e-05
-2.82827e-08
1.9233e-05
-3.3793e-08
1.92214e-05
-3.9879e-08
1.92065e-05
-4.64846e-08
1.91882e-05
-5.35526e-08
1.91661e-05
-6.10297e-08
1.91402e-05
-6.88629e-08
1.91103e-05
-7.69993e-08
1.90764e-05
-8.53845e-08
1.90383e-05
-9.39604e-08
1.89959e-05
-1.02658e-07
1.89491e-05
-1.1137e-07
1.88979e-05
-1.19926e-07
1.88423e-05
-1.28101e-07
1.87827e-05
-1.35542e-07
1.87198e-05
-1.41455e-07
1.86545e-05
-1.44337e-07
1.85883e-05
-1.42002e-07
1.85237e-05
-1.31685e-07
1.84648e-05
-1.09505e-07
1.84175e-05
-7.05559e-08
1.83904e-05
-6.49278e-09
1.83974e-05
8.53918e-08
2.25757e-07
1.84644e-05
1.92522e-05
-7.84479e-09
1.92549e-05
-1.19197e-08
1.92555e-05
-1.29169e-08
1.92546e-05
-1.44781e-08
1.92521e-05
-1.66419e-08
1.92478e-05
-1.90595e-08
1.92412e-05
-2.17114e-08
1.92321e-05
-2.4622e-08
1.922e-05
-2.77803e-08
1.92046e-05
-3.11503e-08
1.91858e-05
-3.47067e-08
1.91632e-05
-3.84361e-08
1.91367e-05
-4.23314e-08
1.91061e-05
-4.63903e-08
1.90713e-05
-5.06133e-08
1.90323e-05
-5.49956e-08
1.89892e-05
-5.95136e-08
1.89419e-05
-6.41069e-08
1.88906e-05
-6.86525e-08
1.88355e-05
-7.29182e-08
1.87764e-05
-7.65247e-08
1.87139e-05
-7.89566e-08
1.86492e-05
-7.95455e-08
1.85844e-05
-7.72909e-08
1.85234e-05
-7.06629e-08
1.84713e-05
-5.7395e-08
1.84356e-05
-3.48063e-08
1.84277e-05
1.34456e-09
1.8457e-05
5.60862e-08
1.42034e-07
1.85408e-05
1.92403e-05
1.92284e-05
1.92155e-05
1.9201e-05
1.91843e-05
1.91653e-05
1.91436e-05
1.91189e-05
1.90912e-05
1.906e-05
1.90253e-05
1.89869e-05
1.89445e-05
1.88981e-05
1.88475e-05
1.87925e-05
1.8733e-05
1.86689e-05
1.86003e-05
1.85273e-05
1.84508e-05
1.83719e-05
1.82923e-05
1.8215e-05
1.81444e-05
1.8087e-05
1.80522e-05
1.80535e-05
1.81096e-05
1.82516e-05
2.14767e-05
-1.016e-05
1.06179e-05
2.10207e-05
-1.02681e-05
1.0724e-05
2.05433e-05
-1.03723e-05
1.08497e-05
2.004e-05
-1.04679e-05
1.09712e-05
1.95153e-05
-1.05614e-05
1.10861e-05
1.89737e-05
-1.0656e-05
1.11975e-05
1.84186e-05
-1.07524e-05
1.13075e-05
1.78522e-05
-1.08514e-05
1.14178e-05
1.72764e-05
-1.09542e-05
1.153e-05
1.6692e-05
-1.10614e-05
1.16459e-05
1.6099e-05
-1.11736e-05
1.17666e-05
1.5497e-05
-1.1291e-05
1.18931e-05
1.48853e-05
-1.14143e-05
1.2026e-05
1.42633e-05
-1.15442e-05
1.21662e-05
1.36302e-05
-1.16817e-05
1.23149e-05
1.2985e-05
-1.18283e-05
1.24735e-05
1.23267e-05
-1.19855e-05
1.26439e-05
1.16535e-05
-1.21551e-05
1.28283e-05
1.09635e-05
-1.23395e-05
1.30295e-05
1.02538e-05
-1.25412e-05
1.32509e-05
9.52078e-06
-1.27635e-05
1.34965e-05
8.75975e-06
-1.30106e-05
1.37716e-05
7.9642e-06
-1.32873e-05
1.40829e-05
7.12529e-06
-1.36002e-05
1.44391e-05
6.23054e-06
-1.3956e-05
1.48508e-05
5.26203e-06
-1.43655e-05
1.5334e-05
4.20171e-06
-1.48341e-05
1.58944e-05
2.97761e-06
-1.53894e-05
1.66135e-05
1.66465e-06
-1.59415e-05
1.72544e-05
-1.69168e-05
1.85815e-05
2.16133e-05
-9.68621e-06
2.11108e-05
-9.76551e-06
2.0586e-05
-9.84748e-06
2.00471e-05
-9.92896e-06
1.94979e-05
-1.00122e-05
1.89404e-05
-1.00985e-05
1.83761e-05
-1.0188e-05
1.78053e-05
-1.02807e-05
1.72278e-05
-1.03767e-05
1.66429e-05
-1.04765e-05
1.60497e-05
-1.05804e-05
1.54473e-05
-1.06887e-05
1.48351e-05
-1.08021e-05
1.42124e-05
-1.09215e-05
1.35786e-05
-1.10479e-05
1.29326e-05
-1.11823e-05
1.22731e-05
-1.1326e-05
1.15984e-05
-1.14804e-05
1.09063e-05
-1.16473e-05
1.01938e-05
-1.18287e-05
9.45743e-06
-1.20271e-05
8.69218e-06
-1.22453e-05
7.89172e-06
-1.24868e-05
7.0474e-06
-1.27559e-05
6.14752e-06
-1.30561e-05
5.17644e-06
-1.33944e-05
4.11187e-06
-1.37695e-05
2.91949e-06
-1.4197e-05
1.60065e-06
-1.46226e-05
-1.53162e-05
2.15233e-05
-9.17641e-06
2.10014e-05
-9.24367e-06
2.04689e-05
-9.31499e-06
1.99298e-05
-9.38978e-06
1.9385e-05
-9.46735e-06
1.88339e-05
-9.54741e-06
1.82757e-05
-9.62987e-06
1.77099e-05
-9.71486e-06
1.71359e-05
-9.80267e-06
1.65531e-05
-9.89371e-06
1.59611e-05
-9.98842e-06
1.53598e-05
-1.00873e-05
1.47486e-05
-1.01909e-05
1.41271e-05
-1.03e-05
1.34943e-05
-1.04151e-05
1.28492e-05
-1.05372e-05
1.21902e-05
-1.06671e-05
1.15156e-05
-1.08058e-05
1.0823e-05
-1.09548e-05
1.01096e-05
-1.11153e-05
9.37165e-06
-1.12891e-05
8.60434e-06
-1.1478e-05
7.80145e-06
-1.1684e-05
6.95472e-06
-1.19092e-05
6.05328e-06
-1.21547e-05
5.08261e-06
-1.24237e-05
4.02273e-06
-1.27096e-05
2.8498e-06
-1.30241e-05
1.53789e-06
-1.33107e-05
-1.37783e-05
2.14306e-05
-8.65956e-06
2.09062e-05
-8.71923e-06
2.03739e-05
-8.78265e-06
1.98347e-05
-8.85065e-06
1.92889e-05
-8.92151e-06
1.87357e-05
-8.99421e-06
1.81747e-05
-9.06888e-06
1.76058e-05
-9.14595e-06
1.70289e-05
-9.22579e-06
1.64439e-05
-9.30869e-06
1.58504e-05
-9.39498e-06
1.52481e-05
-9.48499e-06
1.46363e-05
-9.57912e-06
1.40142e-05
-9.67782e-06
1.33806e-05
-9.78158e-06
1.27344e-05
-9.89099e-06
1.20741e-05
-1.00067e-05
1.13977e-05
-1.01295e-05
1.07031e-05
-1.02601e-05
9.98728e-06
-1.03995e-05
9.24667e-06
-1.05485e-05
8.47661e-06
-1.07079e-05
7.67116e-06
-1.08785e-05
6.82262e-06
-1.10606e-05
5.92118e-06
-1.12533e-05
4.95381e-06
-1.14564e-05
3.90397e-06
-1.16598e-05
2.75184e-06
-1.1872e-05
1.46666e-06
-1.20255e-05
-1.23116e-05
2.13019e-05
-8.13693e-06
2.07728e-05
-8.19008e-06
2.02366e-05
-8.24645e-06
1.96939e-05
-8.30791e-06
1.91447e-05
-8.37232e-06
1.85887e-05
-8.43826e-06
1.80257e-05
-8.5059e-06
1.74556e-05
-8.57579e-06
1.6878e-05
-8.6482e-06
1.62926e-05
-8.72327e-06
1.56988e-05
-8.80118e-06
1.5096e-05
-8.88219e-06
1.44834e-05
-8.96658e-06
1.38603e-05
-9.05467e-06
1.32255e-05
-9.14681e-06
1.25779e-05
-9.24338e-06
1.1916e-05
-9.34476e-06
1.12378e-05
-9.45136e-06
1.05413e-05
-9.56356e-06
9.82345e-06
-9.68168e-06
9.08088e-06
-9.80591e-06
8.30917e-06
-9.93624e-06
7.50284e-06
-1.00722e-05
6.65494e-06
-1.02127e-05
5.75678e-06
-1.03551e-05
4.79711e-06
-1.04967e-05
3.76252e-06
-1.06252e-05
2.63553e-06
-1.0745e-05
1.3906e-06
-1.07806e-05
-1.0921e-05
2.11372e-05
-7.60974e-06
2.06042e-05
-7.65709e-06
2.00649e-05
-7.70712e-06
1.95194e-05
-7.76247e-06
1.89679e-05
-7.82075e-06
1.84099e-05
-7.88025e-06
1.78451e-05
-7.94111e-06
1.72732e-05
-8.0039e-06
1.66938e-05
-8.06886e-06
1.61066e-05
-8.13602e-06
1.55109e-05
-8.20551e-06
1.49062e-05
-8.27748e-06
1.42917e-05
-8.35212e-06
1.36667e-05
-8.42961e-06
1.303e-05
-8.51012e-06
1.23804e-05
-8.59382e-06
1.17165e-05
-8.68084e-06
1.10364e-05
-8.77127e-06
1.03379e-05
-8.86511e-06
9.61846e-06
-8.96219e-06
8.87468e-06
-9.06213e-06
8.1026e-06
-9.16416e-06
7.29729e-06
-9.26686e-06
6.45264e-06
-9.36806e-06
5.56126e-06
-9.46372e-06
4.61371e-06
-9.54914e-06
3.59942e-06
-9.61091e-06
2.50358e-06
-9.64913e-06
1.3082e-06
-9.58523e-06
-9.61282e-06
2.0932e-05
-7.07822e-06
2.03952e-05
-7.12027e-06
1.98525e-05
-7.16441e-06
1.93039e-05
-7.21391e-06
1.87494e-05
-7.26624e-06
1.81887e-05
-7.31948e-06
1.76213e-05
-7.37372e-06
1.70469e-05
-7.42956e-06
1.64652e-05
-7.48718e-06
1.58758e-05
-7.54657e-06
1.5278e-05
-7.60774e-06
1.46713e-05
-7.67076e-06
1.40549e-05
-7.73571e-06
1.34279e-05
-7.80264e-06
1.27894e-05
-7.87156e-06
1.2138e-05
-7.94245e-06
1.14724e-05
-8.01523e-06
1.07908e-05
-8.08971e-06
1.00912e-05
-8.16555e-06
9.37124e-06
-8.24219e-06
8.62784e-06
-8.31873e-06
7.85749e-06
-8.3938e-06
7.0559e-06
-8.46527e-06
6.21791e-06
-8.53007e-06
5.33744e-06
-8.58325e-06
4.40695e-06
-8.61866e-06
3.4185e-06
-8.62246e-06
2.36038e-06
-8.59102e-06
1.22277e-06
-8.44761e-06
-8.39005e-06
2.06823e-05
-6.54247e-06
2.01417e-05
-6.5796e-06
1.95955e-05
-6.61826e-06
1.90438e-05
-6.66215e-06
1.84862e-05
-6.7087e-06
1.79226e-05
-6.75584e-06
1.73525e-05
-6.80364e-06
1.67756e-05
-6.85267e-06
1.61915e-05
-6.90309e-06
1.55998e-05
-6.95481e-06
1.49998e-05
-7.00776e-06
1.43909e-05
-7.06192e-06
1.37725e-05
-7.1173e-06
1.31437e-05
-7.1738e-06
1.25035e-05
-7.23133e-06
1.18507e-05
-7.28969e-06
1.11841e-05
-7.34859e-06
1.0502e-05
-7.40763e-06
9.80263e-06
-7.46618e-06
9.08379e-06
-7.52335e-06
8.34289e-06
-7.57783e-06
7.5769e-06
-7.6278e-06
6.78224e-06
-7.67062e-06
5.95475e-06
-7.70258e-06
5.08968e-06
-7.71817e-06
4.18134e-06
-7.71032e-06
3.22429e-06
-7.66541e-06
2.2101e-06
-7.57683e-06
1.13617e-06
-7.37367e-06
-7.25388e-06
2.0385e-05
-6.00256e-06
1.98405e-05
-6.03516e-06
1.92909e-05
-6.06869e-06
1.8736e-05
-6.10718e-06
1.81754e-05
-6.1481e-06
1.76089e-05
-6.18932e-06
1.70361e-05
-6.23085e-06
1.64566e-05
-6.27324e-06
1.58702e-05
-6.31663e-06
1.52762e-05
-6.36085e-06
1.46742e-05
-6.40576e-06
1.40636e-05
-6.4513e-06
1.34436e-05
-6.49736e-06
1.28136e-05
-6.54377e-06
1.21726e-05
-6.59029e-06
1.15195e-05
-6.6366e-06
1.08531e-05
-6.68226e-06
1.01722e-05
-6.72665e-06
9.4749e-06
-6.76893e-06
8.75952e-06
-6.80796e-06
8.02384e-06
-6.84216e-06
7.2654e-06
-6.86936e-06
6.48137e-06
-6.88659e-06
5.66859e-06
-6.8898e-06
4.8236e-06
-6.87318e-06
3.94251e-06
-6.82923e-06
3.0221e-06
-6.745e-06
2.05706e-06
-6.61179e-06
1.05044e-06
-6.36705e-06
-6.20344e-06
2.00383e-05
-5.45874e-06
1.94902e-05
-5.48714e-06
1.89375e-05
-5.51595e-06
1.83796e-05
-5.54926e-06
1.78162e-05
-5.58471e-06
1.72471e-05
-5.6202e-06
1.66719e-05
-5.65568e-06
1.60903e-05
-5.69168e-06
1.5502e-05
-5.72827e-06
1.49064e-05
-5.76527e-06
1.43031e-05
-5.80247e-06
1.36915e-05
-5.83973e-06
1.30711e-05
-5.87688e-06
1.2441e-05
-5.91367e-06
1.18004e-05
-5.94977e-06
1.11486e-05
-5.98474e-06
1.04843e-05
-6.01801e-06
9.80652e-06
-6.04883e-06
9.11379e-06
-6.0762e-06
8.40461e-06
-6.09878e-06
7.67728e-06