/*--------------------------------*- C++ -*----------------------------------*\
  =========                 |
  \\      /  F ield         | OpenFOAM: The Open Source CFD Toolbox
   \\    /   O peration     | Website:  https://openfoam.org
    \\  /    A nd           | Version:  11
     \\/     M anipulation  |
\*---------------------------------------------------------------------------*/
FoamFile
{
    format      ascii;
    class       surfaceScalarField;
    location    "2";
    object      phi;
}
// * * * * * * * * * * * * * * * * * * * * * * * * * * * * * * * * * * * * * //

dimensions      [0 3 -1 0 0 0 0];

internalField   nonuniform List<scalar> 
24840
(
1.532e-05
1.33054e-08
1.53022e-05
1.7822e-08
1.52859e-05
1.6276e-08
1.52703e-05
1.56013e-08
1.5255e-05
1.53088e-08
1.52402e-05
1.47813e-08
1.52263e-05
1.39621e-08
1.52134e-05
1.28583e-08
1.5202e-05
1.14388e-08
1.51922e-05
9.74764e-09
1.51847e-05
7.50158e-09
1.51799e-05
4.81649e-09
1.51783e-05
1.59658e-09
1.51807e-05
-2.36627e-09
1.51879e-05
-7.25364e-09
1.52012e-05
-1.32371e-08
1.52217e-05
-2.05705e-08
1.52515e-05
-2.97169e-08
1.52921e-05
-4.06533e-08
1.53469e-05
-5.47465e-08
1.54186e-05
-7.17113e-08
1.55101e-05
-9.15644e-08
1.56272e-05
-1.1702e-07
1.5776e-05
-1.48869e-07
1.59643e-05
-1.88282e-07
1.6201e-05
-2.36686e-07
1.64974e-05
-2.96444e-07
1.68627e-05
-3.653e-07
1.73308e-05
-4.68096e-07
-4.88948e-07
1.78198e-05
1.53394e-05
7.24967e-09
1.53437e-05
1.35073e-08
1.53476e-05
1.23421e-08
1.53515e-05
1.17583e-08
1.53556e-05
1.12264e-08
1.53602e-05
1.01845e-08
1.53655e-05
8.63883e-09
1.53718e-05
6.54795e-09
1.53794e-05
3.87148e-09
1.53885e-05
6.5437e-10
1.53996e-05
-3.59558e-09
1.5413e-05
-8.63853e-09
1.54293e-05
-1.47429e-08
1.54491e-05
-2.21698e-08
1.54731e-05
-3.11712e-08
1.55019e-05
-4.21025e-08
1.55368e-05
-5.5438e-08
1.55784e-05
-7.12899e-08
1.5629e-05
-9.1282e-08
1.56896e-05
-1.15352e-07
1.57633e-05
-1.45399e-07
1.58559e-05
-1.84211e-07
1.5971e-05
-2.32094e-07
1.61136e-05
-2.91422e-07
1.62901e-05
-3.64854e-07
1.65088e-05
-4.55338e-07
1.67794e-05
-5.67047e-07
1.71143e-05
-7.00164e-07
1.75275e-05
-8.81364e-07
-9.96786e-07
1.80354e-05
1.53362e-05
4.35151e-09
1.53401e-05
9.59557e-09
1.53432e-05
9.31919e-09
1.53467e-05
8.23777e-09
1.53506e-05
7.26824e-09
1.5355e-05
5.82724e-09
1.53599e-05
3.69251e-09
1.53658e-05
7.03061e-10
1.53727e-05
-3.02355e-09
1.53811e-05
-7.77409e-09
1.53913e-05
-1.37901e-08
1.54038e-05
-2.11291e-08
1.54191e-05
-3.0044e-08
1.54378e-05
-4.08664e-08
1.54606e-05
-5.39752e-08
1.54884e-05
-6.98682e-08
1.55222e-05
-8.92228e-08
1.55635e-05
-1.12656e-07
1.56138e-05
-1.41587e-07
1.56757e-05
-1.77189e-07
1.57515e-05
-2.21201e-07
1.58437e-05
-2.76443e-07
1.59568e-05
-3.4519e-07
1.60958e-05
-4.30403e-07
1.6267e-05
-5.36055e-07
1.64783e-05
-6.66703e-07
1.67402e-05
-8.28925e-07
1.70643e-05
-1.02424e-06
1.7467e-05
-1.28409e-06
-1.50279e-06
1.7973e-05
1.53351e-05
2.5952e-09
1.53384e-05
6.24822e-09
1.53414e-05
6.36677e-09
1.53446e-05
5.05313e-09
1.53483e-05
3.54435e-09
1.53525e-05
1.63257e-09
1.53573e-05
-1.10218e-09
1.53629e-05
-4.91918e-09
1.53696e-05
-9.75715e-09
1.53778e-05
-1.59254e-08
1.53877e-05
-2.36729e-08
1.53998e-05
-3.32141e-08
1.54146e-05
-4.48317e-08
1.54326e-05
-5.89246e-08
1.54546e-05
-7.59945e-08
1.54815e-05
-9.66916e-08
1.55141e-05
-1.21873e-07
1.5554e-05
-1.52525e-07
1.56026e-05
-1.90181e-07
1.5662e-05
-2.36585e-07
1.57346e-05
-2.93864e-07
1.58234e-05
-3.6518e-07
1.59321e-05
-4.53944e-07
1.60658e-05
-5.64063e-07
1.62304e-05
-7.00708e-07
1.64338e-05
-8.70061e-07
1.66857e-05
-1.08087e-06
1.69988e-05
-1.33731e-06
1.7387e-05
-1.6723e-06
-1.997e-06
1.78812e-05
1.53345e-05
1.44829e-09
1.53371e-05
3.63535e-09
1.53398e-05
3.61538e-09
1.53428e-05
2.10282e-09
1.53463e-05
7.07539e-11
1.53503e-05
-2.3762e-09
1.53549e-05
-5.75005e-09
1.53603e-05
-1.03291e-08
1.53668e-05
-1.62351e-08
1.53746e-05
-2.3743e-08
1.53841e-05
-3.31638e-08
1.53957e-05
-4.47988e-08
1.54099e-05
-5.89875e-08
1.54271e-05
-7.6196e-08
1.54482e-05
-9.70353e-08
1.54738e-05
-1.22298e-07
1.55049e-05
-1.53019e-07
1.55429e-05
-1.90477e-07
1.55891e-05
-2.36413e-07
1.56455e-05
-2.92981e-07
1.57145e-05
-3.62809e-07
1.57987e-05
-4.49429e-07
1.59018e-05
-5.5706e-07
1.60284e-05
-6.90672e-07
1.61844e-05
-8.5665e-07
1.63771e-05
-1.06277e-06
1.66159e-05
-1.31974e-06
1.69136e-05
-1.63494e-06
1.72827e-05
-2.04139e-06
-2.46987e-06
1.77555e-05
1.53341e-05
6.3864e-10
1.53362e-05
1.5559e-09
1.53388e-05
1.07973e-09
1.53416e-05
-7.0817e-10
1.53448e-05
-3.17022e-09
1.53486e-05
-6.188e-09
1.5353e-05
-1.01722e-08
1.53582e-05
-1.54877e-08
1.53644e-05
-2.2386e-08
1.53718e-05
-3.11595e-08
1.53808e-05
-4.21623e-08
1.53917e-05
-5.57597e-08
1.54051e-05
-7.23568e-08
1.54214e-05
-9.24864e-08
1.54412e-05
-1.16857e-07
1.54653e-05
-1.46394e-07
1.54946e-05
-1.82301e-07
1.55302e-05
-2.26099e-07
1.55736e-05
-2.79764e-07
1.56264e-05
-3.45791e-07
1.56908e-05
-4.2725e-07
1.57695e-05
-5.28102e-07
1.58657e-05
-6.5327e-07
1.59837e-05
-8.08716e-07
1.61291e-05
-1.00198e-06
1.63086e-05
-1.24234e-06
1.65313e-05
-1.54237e-06
1.68092e-05
-1.91284e-06
1.71542e-05
-2.38646e-06
-2.91522e-06
1.75996e-05
1.5334e-05
2.0447e-11
1.53356e-05
-1.40496e-10
1.53379e-05
-1.19622e-09
1.53405e-05
-3.31992e-09
1.53436e-05
-6.19262e-09
1.53471e-05
-9.74246e-09
1.53513e-05
-1.43202e-08
1.53561e-05
-2.03452e-08
1.53619e-05
-2.81622e-08
1.53688e-05
-3.81105e-08
1.53773e-05
-5.05808e-08
1.53875e-05
-6.5992e-08
1.54e-05
-8.48119e-08
1.54151e-05
-1.07638e-07
1.54335e-05
-1.35264e-07
1.54559e-05
-1.68736e-07
1.5483e-05
-2.09413e-07
1.55159e-05
-2.59019e-07
1.55559e-05
-3.19761e-07
1.56045e-05
-3.94425e-07
1.56637e-05
-4.86476e-07
1.5736e-05
-6.00314e-07
1.58242e-05
-7.41472e-07
1.59322e-05
-9.16774e-07
1.60651e-05
-1.13484e-06
1.62291e-05
-1.40637e-06
1.64324e-05
-1.74569e-06
1.66865e-05
-2.16697e-06
1.70026e-05
-2.70253e-06
-3.32663e-06
1.7414e-05
1.53338e-05
-4.87379e-10
1.53352e-05
-1.54873e-09
1.53373e-05
-3.21037e-09
1.53397e-05
-5.72297e-09
1.53425e-05
-8.99596e-09
1.53458e-05
-1.30392e-08
1.53496e-05
-1.81794e-08
1.53541e-05
-2.48662e-08
1.53595e-05
-3.35183e-08
1.53659e-05
-4.45333e-08
1.53737e-05
-5.83389e-08
1.53831e-05
-7.53981e-08
1.53945e-05
-9.62328e-08
1.54084e-05
-1.21499e-07
1.54252e-05
-1.52069e-07
1.54455e-05
-1.89093e-07
1.54702e-05
-2.34065e-07
1.55001e-05
-2.88887e-07
1.55363e-05
-3.55971e-07
1.55802e-05
-4.38358e-07
1.56336e-05
-5.39852e-07
1.56985e-05
-6.65253e-07
1.57777e-05
-8.2062e-07
1.58744e-05
-1.01352e-06
1.59931e-05
-1.25353e-06
1.61394e-05
-1.55266e-06
1.63205e-05
-1.92683e-06
1.6547e-05
-2.39346e-06
1.68291e-05
-2.98459e-06
-3.69719e-06
1.71996e-05
1.53338e-05
-9.08679e-10
1.53349e-05
-2.74051e-09
1.53367e-05
-4.98835e-09
1.53389e-05
-7.91461e-09
1.53415e-05
-1.15738e-08
1.53445e-05
-1.60627e-08
1.53481e-05
-2.17141e-08
1.53522e-05
-2.90021e-08
1.53571e-05
-3.84036e-08
1.53629e-05
-5.03709e-08
1.53699e-05
-6.53677e-08
1.53784e-05
-8.38925e-08
1.53887e-05
-1.06513e-07
1.54012e-05
-1.33937e-07
1.54162e-05
-1.67104e-07
1.54344e-05
-2.07256e-07
1.54563e-05
-2.56003e-07
1.54828e-05
-3.15394e-07
1.55148e-05
-3.88017e-07
1.55536e-05
-4.77128e-07
1.56006e-05
-5.8681e-07
1.56575e-05
-7.22203e-07
1.57267e-05
-8.89807e-07
1.5811e-05
-1.0978e-06
1.5914e-05
-1.35657e-06
1.60406e-05
-1.67924e-06
1.61969e-05
-2.08315e-06
1.63922e-05
-2.58871e-06
1.66353e-05
-3.22773e-06
-4.01966e-06
1.69578e-05
1.53337e-05
-1.26257e-09
1.53347e-05
-3.76228e-09
1.53363e-05
-6.55191e-09
1.53382e-05
-9.88807e-09
1.53406e-05
-1.39122e-08
1.53433e-05
-1.87992e-08
1.53465e-05
-2.49063e-08
1.53502e-05
-3.27295e-08
1.53546e-05
-4.27891e-08
1.53598e-05
-5.55836e-08
1.53661e-05
-7.16104e-08
1.53736e-05
-9.13992e-08
1.53826e-05
-1.15554e-07
1.53935e-05
-1.44831e-07
1.54066e-05
-1.80223e-07
1.54224e-05
-2.23047e-07
1.54414e-05
-2.75008e-07
1.54643e-05
-3.38274e-07
1.54919e-05
-4.15574e-07
1.55251e-05
-5.10337e-07
1.55651e-05
-6.26861e-07
1.56135e-05
-7.70557e-07
1.5672e-05
-9.48268e-07
1.57428e-05
-1.16863e-06
1.58289e-05
-1.44268e-06
1.59341e-05
-1.78443e-06
1.60633e-05
-2.21236e-06
1.62241e-05
-2.74949e-06
1.64237e-05
-3.42736e-06
-4.2868e-06
1.66908e-05
1.53336e-05
-1.56423e-09
1.53345e-05
-4.64176e-09
1.53359e-05
-7.92002e-09
1.53376e-05
-1.16432e-08
1.53397e-05
-1.60049e-08
1.53422e-05
-2.12427e-08
1.5345e-05
-2.77445e-08
1.53483e-05
-3.60267e-08
1.53522e-05
-4.66423e-08
1.53567e-05
-6.01279e-08
1.53621e-05
-7.70121e-08
1.53686e-05
-9.78501e-08
1.53763e-05
-1.23276e-07
1.53855e-05
-1.54079e-07
1.53966e-05
-1.91301e-07
1.54099e-05
-2.36314e-07
1.54258e-05
-2.90896e-07
1.54448e-05
-3.57304e-07
1.54676e-05
-4.38375e-07
1.54949e-05
-5.37661e-07
1.55277e-05
-6.59614e-07
1.55669e-05
-8.09833e-07
1.56141e-05
-9.95395e-07
1.56707e-05
-1.22525e-06
1.57389e-05
-1.51087e-06
1.58213e-05
-1.86688e-06
1.59216e-05
-2.31258e-06
1.60451e-05
-2.87306e-06
1.61972e-05
-3.5794e-06
-4.49173e-06
1.64021e-05
1.53336e-05
-1.82256e-09
1.53343e-05
-5.39858e-09
1.53355e-05
-9.1102e-09
1.53371e-05
-1.31859e-08
1.53389e-05
-1.78499e-08
1.53411e-05
-2.3387e-08
1.53435e-05
-3.02163e-08
1.53464e-05
-3.88737e-08
1.53497e-05
-4.99366e-08
1.53535e-05
-6.39712e-08
1.5358e-05
-8.15311e-08
1.53634e-05
-1.03192e-07
1.53697e-05
-1.2961e-07
1.53772e-05
-1.61602e-07
1.53862e-05
-2.0024e-07
1.53968e-05
-2.46937e-07
1.54094e-05
-3.03523e-07
1.54244e-05
-3.72314e-07
1.54423e-05
-4.56214e-07
1.54635e-05
-5.58853e-07
1.54886e-05
-6.84772e-07
1.55185e-05
-8.39672e-07
1.55538e-05
-1.03075e-06
1.55957e-05
-1.26711e-06
1.56452e-05
-1.56042e-06
1.5704e-05
-1.92563e-06
1.57738e-05
-2.38243e-06
1.58581e-05
-2.95731e-06
1.59593e-05
-3.68059e-06
-4.62845e-06
1.6096e-05
1.53336e-05
-2.0435e-09
1.53342e-05
-6.04795e-09
1.53352e-05
-1.01374e-08
1.53366e-05
-1.45233e-08
1.53382e-05
-1.94469e-08
1.534e-05
-2.52284e-08
1.53421e-05
-3.23143e-08
1.53445e-05
-4.12576e-08
1.53472e-05
-5.26531e-08
1.53503e-05
-6.70879e-08
1.53539e-05
-8.51349e-08
1.53581e-05
-1.07385e-07
1.5363e-05
-1.34508e-07
1.53688e-05
-1.67337e-07
1.53755e-05
-2.06964e-07
1.53834e-05
-2.54827e-07
1.53926e-05
-3.12782e-07
1.54035e-05
-3.83177e-07
1.54162e-05
-4.68946e-07
1.54311e-05
-5.73746e-07
1.54485e-05
-7.02143e-07
1.54687e-05
-8.59852e-07
1.5492e-05
-1.05407e-06
1.55188e-05
-1.29389e-06
1.55493e-05
-1.59095e-06
1.55838e-05
-1.96015e-06
1.56225e-05
-2.42115e-06
1.56662e-05
-3.00099e-06
1.57143e-05
-3.72872e-06
-4.69243e-06
1.57783e-05
1.53335e-05
-2.23159e-09
1.53341e-05
-6.60181e-09
1.5335e-05
-1.10146e-08
1.53361e-05
-1.56638e-08
1.53374e-05
-2.07991e-08
1.5339e-05
-2.67664e-08
1.53407e-05
-3.40347e-08
1.53426e-05
-4.31703e-08
1.53447e-05
-5.47791e-08
1.53471e-05
-6.9461e-08
1.53498e-05
-8.78014e-08
1.53528e-05
-1.104e-07
1.53562e-05
-1.37934e-07
1.53601e-05
-1.71242e-07
1.53646e-05
-2.11425e-07
1.53697e-05
-2.59926e-07
1.53755e-05
-3.18609e-07
1.53822e-05
-3.89821e-07
1.53897e-05
-4.7649e-07
1.53982e-05
-5.82254e-07
1.54077e-05
-7.11638e-07
1.54181e-05
-8.70285e-07
1.54293e-05
-1.06528e-06
1.5441e-05
-1.30552e-06
1.54524e-05
-1.60238e-06
1.54626e-05
-1.97039e-06
1.54701e-05
-2.42861e-06
1.54729e-05
-3.00376e-06
1.54671e-05
-3.72297e-06
-4.68115e-06
1.54559e-05
1.53335e-05
-2.3907e-09
1.5334e-05
-7.07072e-09
1.53347e-05
-1.17547e-08
1.53357e-05
-1.66174e-08
1.53368e-05
-2.1912e-08
1.5338e-05
-2.80032e-08
1.53393e-05
-3.53774e-08
1.53408e-05
-4.46093e-08
1.53423e-05
-5.63089e-08
1.53439e-05
-7.10818e-08
1.53457e-05
-8.95191e-08
1.53475e-05
-1.12223e-07
1.53494e-05
-1.3987e-07
1.53515e-05
-1.73297e-07
1.53536e-05
-2.13598e-07
1.53559e-05
-2.6221e-07
1.53583e-05
-3.20976e-07
1.53607e-05
-3.9222e-07
1.5363e-05
-4.78828e-07
1.53651e-05
-5.84369e-07
1.53668e-05
-7.13269e-07
1.53675e-05
-8.71018e-07
1.53667e-05
-1.06447e-06
1.53634e-05
-1.30218e-06
1.5356e-05
-1.595e-06
1.53423e-05
-1.95676e-06
1.53191e-05
-2.4054e-06
1.52817e-05
-2.96636e-06
1.52228e-05
-3.66408e-06
-4.59466e-06
1.51363e-05
1.53335e-05
-2.52454e-09
1.53339e-05
-7.46505e-09
1.53345e-05
-1.2371e-08
1.53353e-05
-1.73959e-08
1.53361e-05
-2.27937e-08
1.53371e-05
-2.89443e-08
1.5338e-05
-3.63465e-08
1.5339e-05
-4.55769e-08
1.534e-05
-5.72432e-08
1.53408e-05
-7.19497e-08
1.53416e-05
-9.02868e-08
1.53422e-05
-1.12853e-07
1.53427e-05
-1.40316e-07
1.53429e-05
-1.73501e-07
1.53428e-05
-2.13487e-07
1.53422e-05
-2.61682e-07
1.53411e-05
-3.19897e-07
1.53393e-05
-3.904e-07
1.53365e-05
-4.76001e-07
1.53323e-05
-5.80163e-07
1.53262e-05
-7.07149e-07
1.53174e-05
-8.62224e-07
1.53048e-05
-1.0519e-06
1.52869e-05
-1.28426e-06
1.52613e-05
-1.56942e-06
1.52247e-05
-1.92017e-06
1.51721e-05
-2.35281e-06
1.50964e-05
-2.8906e-06
1.49868e-05
-3.5545e-06
-4.43593e-06
1.48281e-05
1.53334e-05
-2.63707e-09
1.53338e-05
-7.79599e-09
1.53343e-05
-1.2878e-08
1.53349e-05
-1.80128e-08
1.53356e-05
-2.34548e-08
1.53362e-05
-2.95984e-08
1.53368e-05
-3.695e-08
1.53373e-05
-4.60808e-08
1.53377e-05
-5.75893e-08
1.53378e-05
-7.20725e-08
1.53376e-05
-9.01135e-08
1.53371e-05
-1.123e-07
1.5336e-05
-1.39285e-07
1.53344e-05
-1.71874e-07
1.5332e-05
-2.11116e-07
1.53287e-05
-2.58382e-07
1.53243e-05
-3.15423e-07
1.53183e-05
-3.84432e-07
1.53104e-05
-4.68112e-07
1.53e-05
-5.69777e-07
1.52864e-05
-6.93483e-07
1.52683e-05
-8.44199e-07
1.52444e-05
-1.02801e-06
1.52126e-05
-1.25239e-06
1.51697e-05
-1.52655e-06
1.51115e-05
-1.86194e-06
1.50315e-05
-2.27282e-06
1.49203e-05
-2.77939e-06
1.47642e-05
-3.3984e-06
-4.21104e-06
1.45393e-05
1.53334e-05
-2.73294e-09
1.53337e-05
-8.07656e-09
1.53341e-05
-1.32928e-08
1.53346e-05
-1.84839e-08
1.5335e-05
-2.39083e-08
1.53354e-05
-2.99773e-08
1.53357e-05
-3.71998e-08
1.53357e-05
-4.61335e-08
1.53355e-05
-5.73608e-08
1.53349e-05
-7.14659e-08
1.53338e-05
-8.90184e-08
1.53321e-05
-1.10589e-07
1.53296e-05
-1.36809e-07
1.53262e-05
-1.68456e-07
1.53216e-05
-2.06538e-07
1.53156e-05
-2.52374e-07
1.53078e-05
-3.07641e-07
1.52978e-05
-3.74432e-07
1.5285e-05
-4.55316e-07
1.52687e-05
-5.53424e-07
1.52478e-05
-6.72562e-07
1.52209e-05
-8.17348e-07
1.51863e-05
-9.93377e-07
1.51413e-05
-1.2074e-06
1.50823e-05
-1.46758e-06
1.50042e-05
-1.78381e-06
1.48993e-05
-2.16799e-06
1.47565e-05
-2.63657e-06
1.45597e-05
-3.20154e-06
-3.92904e-06
1.42776e-05
1.53334e-05
-2.81789e-09
1.53337e-05
-8.32282e-09
1.5334e-05
-1.36354e-08
1.53344e-05
-1.88271e-08
1.53346e-05
-2.41692e-08
1.53347e-05
-3.00957e-08
1.53346e-05
-3.71117e-08
1.53343e-05
-4.57521e-08
1.53335e-05
-5.65773e-08
1.53322e-05
-7.01534e-08
1.53302e-05
-8.70306e-08
1.53273e-05
-1.07756e-07
1.53235e-05
-1.32934e-07
1.53183e-05
-1.63303e-07
1.53116e-05
-1.99826e-07
1.5303e-05
-2.43753e-07
1.5292e-05
-2.96672e-07
1.52781e-05
-3.60557e-07
1.52606e-05
-4.37819e-07
1.52386e-05
-5.31378e-07
1.52108e-05
-6.44754e-07
1.51756e-05
-7.82172e-07
1.51309e-05
-9.48679e-07
1.50738e-05
-1.15024e-06
1.50001e-05
-1.39389e-06
1.49041e-05
-1.68783e-06
1.47775e-05
-2.04136e-06
1.46076e-05
-2.46676e-06
1.43771e-05
-2.97096e-06
-3.60147e-06
1.40495e-05
1.53334e-05
-2.89953e-09
1.53336e-05
-8.55544e-09
1.53339e-05
-1.39301e-08
1.53342e-05
-1.90624e-08
1.53343e-05
-2.42545e-08
1.53341e-05
-2.99713e-08
1.53337e-05
-3.67054e-08
1.53329e-05
-4.49585e-08
1.53316e-05
-5.52639e-08
1.53296e-05
-6.81656e-08
1.53268e-05
-8.41882e-08
1.53229e-05
-1.0385e-07
1.53177e-05
-1.27718e-07
1.53109e-05
-1.56492e-07
1.53021e-05
-1.91075e-07
1.5291e-05
-2.3264e-07
1.5277e-05
-2.82671e-07
1.52594e-05
-3.43005e-07
1.52375e-05
-4.15875e-07
1.52101e-05
-5.03967e-07
1.51758e-05
-6.1049e-07
1.51329e-05
-7.3925e-07
1.50789e-05
-8.94709e-07
1.50107e-05
-1.08203e-06
1.49239e-05
-1.30704e-06
1.48123e-05
-1.57623e-06
1.46672e-05
-1.89628e-06
1.44755e-05
-2.27509e-06
1.42191e-05
-2.71458e-06
-3.24164e-06
1.38593e-05
1.53334e-05
-2.98836e-09
1.53337e-05
-8.80213e-09
1.53339e-05
-1.42062e-08
1.53341e-05
-1.92111e-08
1.5334e-05
-2.41826e-08
1.53337e-05
-2.96254e-08
1.5333e-05
-3.60039e-08
1.53318e-05
-4.37768e-08
1.533e-05
-5.34492e-08
1.53274e-05
-6.5539e-08
1.53237e-05
-8.0539e-08
1.53188e-05
-9.89304e-08
1.53123e-05
-1.2124e-07
1.53039e-05
-1.48116e-07
1.52933e-05
-1.80402e-07
1.52798e-05
-2.1918e-07
1.52629e-05
-2.65818e-07
1.52419e-05
-3.22003e-07
1.52158e-05
-3.89774e-07
1.51834e-05
-4.71566e-07
1.51432e-05
-5.70259e-07
1.50932e-05
-6.89222e-07
1.50308e-05
-8.32326e-07
1.49527e-05
-1.00392e-06
1.48543e-05
-1.20867e-06
1.47295e-05
-1.45139e-06
1.45694e-05
-1.73623e-06
1.43612e-05
-2.06687e-06
1.40873e-05
-2.44065e-06
-2.8636e-06
1.37092e-05
1.53334e-05
-3.09974e-09
1.53337e-05
-9.10139e-09
1.5334e-05
-1.44985e-08
1.53341e-05
-1.92949e-08
1.53339e-05
-2.39737e-08
1.53334e-05
-2.90811e-08
1.53324e-05
-3.50321e-08
1.53309e-05
-4.22366e-08
1.53286e-05
-5.11709e-08
1.53254e-05
-6.23207e-08
1.5321e-05
-7.61397e-08
1.53151e-05
-9.30663e-08
1.53074e-05
-1.13581e-07
1.52976e-05
-1.38282e-07
1.52851e-05
-1.67939e-07
1.52695e-05
-2.03539e-07
1.525e-05
-2.46322e-07
1.52258e-05
-2.97814e-07
1.51959e-05
-3.59847e-07
1.51589e-05
-4.34592e-07
1.51132e-05
-5.24591e-07
1.50568e-05
-6.32775e-07
1.49869e-05
-7.62433e-07
1.49001e-05
-9.17125e-07
1.47919e-05
-1.10044e-06
1.46561e-05
-1.31564e-06
1.44845e-05
-1.56462e-06
1.42649e-05
-1.84728e-06
1.39815e-05
-2.15717e-06
-2.48109e-06
1.35989e-05
1.53335e-05
-3.25733e-09
1.53339e-05
-9.50797e-09
1.53342e-05
-1.48473e-08
1.53343e-05
-1.93338e-08
1.5334e-05
-2.36492e-08
1.53332e-05
-2.83661e-08
1.5332e-05
-3.38205e-08
1.53302e-05
-4.03725e-08
1.53275e-05
-4.84708e-08
1.53237e-05
-5.85608e-08
1.53186e-05
-7.10514e-08
1.53119e-05
-8.63343e-08
1.53031e-05
-1.0484e-07
1.5292e-05
-1.27111e-07
1.52779e-05
-1.5384e-07
1.52602e-05
-1.85906e-07
1.52383e-05
-2.24417e-07
1.52113e-05
-2.70726e-07
1.51779e-05
-3.26449e-07
1.51368e-05
-3.93488e-07
1.50862e-05
-4.74047e-07
1.50241e-05
-5.70622e-07
1.49476e-05
-6.85949e-07
1.48533e-05
-8.2286e-07
1.47368e-05
-9.83973e-07
1.45924e-05
-1.17121e-06
1.44124e-05
-1.38463e-06
1.41861e-05
-1.621e-06
1.39002e-05
-1.87127e-06
-2.10632e-06
1.35255e-05
1.53336e-05
-3.50078e-09
1.53342e-05
-1.01001e-08
1.53346e-05
-1.52932e-08
1.53346e-05
-1.93466e-08
1.53342e-05
-2.32371e-08
1.53334e-05
-2.75096e-08
1.53319e-05
-3.2395e-08
1.53298e-05
-3.8215e-08
1.53267e-05
-4.53896e-08
1.53224e-05
-5.43123e-08
1.53167e-05
-6.53437e-08
1.53092e-05
-7.88217e-08
1.52995e-05
-9.51236e-08
1.52871e-05
-1.14737e-07
1.52716e-05
-1.38268e-07
1.52521e-05
-1.66486e-07
1.52281e-05
-2.00354e-07
1.51984e-05
-2.41048e-07
1.51619e-05
-2.89963e-07
1.51172e-05
-3.48729e-07
1.50623e-05
-4.19213e-07
1.49952e-05
-5.03496e-07
1.4913e-05
-6.03797e-07
1.48125e-05
-7.22298e-07
1.46893e-05
-8.60795e-07
1.45382e-05
-1.02012e-06
1.43526e-05
-1.19901e-06
1.41235e-05
-1.39194e-06
1.3841e-05
-1.58872e-06
-1.74895e-06
1.34836e-05
1.53337e-05
-3.90351e-09
1.53346e-05
-1.09899e-08
1.53352e-05
-1.58608e-08
1.53352e-05
-1.93468e-08
1.53347e-05
-2.27753e-08
1.53338e-05
-2.65506e-08
1.53322e-05
-3.07936e-08
1.53298e-05
-3.58088e-08
1.53264e-05
-4.19809e-08
1.53217e-05
-4.96368e-08
1.53154e-05
-5.90934e-08
1.53072e-05
-7.06247e-08
1.52967e-05
-8.45526e-08
1.52832e-05
-1.01307e-07
1.52664e-05
-1.21404e-07
1.52454e-05
-1.45496e-07
1.52194e-05
-1.744e-07
1.51875e-05
-2.09107e-07
1.51483e-05
-2.50788e-07
1.51004e-05
-3.00799e-07
1.50418e-05
-3.6068e-07
1.49705e-05
-4.3212e-07
1.48835e-05
-5.16867e-07
1.47778e-05
-6.16539e-07
1.46493e-05
-7.32282e-07
1.44933e-05
-8.64118e-07
1.43042e-05
-1.00996e-06
1.40752e-05
-1.16297e-06
1.38e-05
-1.31352e-06
-1.41589e-06
1.3467e-05
1.5334e-05
-4.60827e-09
1.53354e-05
-1.23463e-08
1.53361e-05
-1.65411e-08
1.53361e-05
-1.9338e-08
1.53356e-05
-2.22839e-08
1.53345e-05
-2.5498e-08
1.53328e-05
-2.90319e-08
1.53301e-05
-3.31884e-08
1.53265e-05
-3.82973e-08
1.53214e-05
-4.46012e-08
1.53147e-05
-5.23865e-08
1.53059e-05
-6.18399e-08
1.52946e-05
-7.32509e-08
1.52803e-05
-8.698e-08
1.52623e-05
-1.03444e-07
1.524e-05
-1.23175e-07
1.52125e-05
-1.46844e-07
1.51786e-05
-1.75253e-07
1.51372e-05
-2.09345e-07
1.50866e-05
-2.50208e-07
1.5025e-05
-2.99065e-07
1.49501e-05
-3.57237e-07
1.48593e-05
-4.26049e-07
1.47494e-05
-5.06656e-07
1.46168e-05
-5.99728e-07
1.44574e-05
-7.04739e-07
1.42668e-05
-8.19327e-07
1.40399e-05
-9.36075e-07
1.37748e-05
-1.04837e-06
-1.10965e-06
1.34685e-05
1.53346e-05
-5.87442e-09
1.53366e-05
-1.4389e-08
1.53374e-05
-1.7334e-08
1.53375e-05
-1.94055e-08
1.5337e-05
-2.18262e-08
1.53359e-05
-2.43776e-08
1.5334e-05
-2.7137e-08
1.53312e-05
-3.03908e-08
1.53273e-05
-3.43843e-08
1.5322e-05
-3.92629e-08
1.53149e-05
-4.53267e-08
1.53057e-05
-5.25812e-08
1.52938e-05
-6.13571e-08
1.52787e-05
-7.19212e-08
1.52599e-05
-8.45897e-08
1.52365e-05
-9.97804e-08
1.52076e-05
-1.18006e-07
1.51722e-05
-1.39877e-07
1.5129e-05
-1.66111e-07
1.50763e-05
-1.97536e-07
1.50123e-05
-2.35071e-07
1.49348e-05
-2.79698e-07
1.48411e-05
-3.32378e-07
1.47284e-05
-3.93905e-07
1.45933e-05
-4.64664e-07
1.44325e-05
-5.43886e-07
1.42425e-05
-6.29404e-07
1.402e-05
-7.13555e-07
1.3768e-05
-7.96299e-07
-8.29997e-07
1.34883e-05
1.53357e-05
-8.19648e-09
1.53383e-05
-1.70472e-08
1.53391e-05
-1.8153e-08
1.53394e-05
-1.96682e-08
1.5339e-05
-2.14285e-08
1.53378e-05
-2.32121e-08
1.53359e-05
-2.51621e-08
1.5333e-05
-2.74844e-08
1.53289e-05
-3.03263e-08
1.53233e-05
-3.36757e-08
1.5316e-05
-3.79981e-08
1.53064e-05
-4.29561e-08
1.5294e-05
-4.9023e-08
1.52784e-05
-5.6319e-08
1.52589e-05
-6.50691e-08
1.52347e-05
-7.55822e-08
1.52049e-05
-8.82155e-08
1.51684e-05
-1.0339e-07
1.51239e-05
-1.21606e-07
1.50698e-05
-1.43437e-07
1.50043e-05
-1.69527e-07
1.49251e-05
-2.00563e-07
1.483e-05
-2.37215e-07
1.47161e-05
-2.80042e-07
1.45807e-05
-3.29296e-07
1.44212e-05
-3.84347e-07
1.42353e-05
-4.43545e-07
1.40209e-05
-4.9911e-07
1.37824e-05
-5.57839e-07
-5.64848e-07
1.35173e-05
1.53392e-05
-1.41093e-08
1.5342e-05
-1.97667e-08
1.53427e-05
-1.88744e-08
1.53425e-05
-1.95287e-08
1.53417e-05
-2.05498e-08
1.53399e-05
-2.14873e-08
1.53373e-05
-2.24828e-08
1.53335e-05
-2.36838e-08
1.53283e-05
-2.51726e-08
1.53215e-05
-2.68942e-08
1.53128e-05
-2.92199e-08
1.53016e-05
-3.1784e-08
1.52875e-05
-3.49806e-08
1.52701e-05
-3.88435e-08
1.52485e-05
-4.34946e-08
1.5222e-05
-4.91134e-08
1.51897e-05
-5.59038e-08
1.51504e-05
-6.41084e-08
1.51028e-05
-7.40168e-08
1.50454e-05
-8.59647e-08
1.49762e-05
-1.00326e-07
1.48931e-05
-1.17498e-07
1.47937e-05
-1.37866e-07
1.46754e-05
-1.6173e-07
1.45353e-05
-1.8918e-07
1.43707e-05
-2.1975e-07
1.41796e-05
-2.52454e-07
1.39627e-05
-2.82189e-07
1.37138e-05
-3.08939e-07
-2.50734e-07
1.33997e-05
1.53192e-05
1.52995e-05
1.52806e-05
1.52611e-05
1.52405e-05
1.5219e-05
1.51965e-05
1.51729e-05
1.51477e-05
1.51208e-05
1.50916e-05
1.50598e-05
1.50248e-05
1.4986e-05
1.49425e-05
1.48933e-05
1.48374e-05
1.47733e-05
1.46993e-05
1.46134e-05
1.4513e-05
1.43955e-05
1.42577e-05
1.40959e-05
1.39068e-05
1.3687e-05
1.34345e-05
1.31524e-05
1.28434e-05
1.25927e-05
1.75768e-05
-8.1896e-06
8.43255e-06
1.73475e-05
-8.34142e-06
8.57079e-06
1.70805e-05
-8.49013e-06
8.75712e-06
1.67781e-05
-8.62875e-06
8.93109e-06
1.64472e-05
-8.76689e-06
9.09785e-06
1.60943e-05
-8.90945e-06
9.26231e-06
1.57236e-05
-9.05807e-06
9.42879e-06
1.53374e-05
-9.21366e-06
9.59986e-06
1.49369e-05
-9.377e-06
9.77746e-06
1.45224e-05
-9.54851e-06
9.96306e-06
1.40931e-05
-9.72832e-06
1.01576e-05
1.36481e-05
-9.91662e-06
1.03616e-05
1.31863e-05
-1.01139e-05
1.05757e-05
1.27066e-05
-1.03208e-05
1.08005e-05
1.2208e-05
-1.05387e-05
1.10373e-05
1.16894e-05
-1.07689e-05
1.12875e-05
1.11495e-05
-1.10132e-05
1.15532e-05
1.05866e-05
-1.12739e-05
1.18368e-05
9.99861e-06
-1.15536e-05
1.21416e-05
9.38296e-06
-1.18557e-05
1.24713e-05
8.73628e-06
-1.21843e-05
1.2831e-05
8.05422e-06
-1.25447e-05
1.32268e-05
7.3311e-06
-1.29436e-05
1.36667e-05
6.5595e-06
-1.33896e-05
1.41612e-05
5.72872e-06
-1.38929e-05
1.47237e-05
4.8255e-06
-1.44693e-05
1.53726e-05
3.83932e-06
-1.51314e-05
1.61176e-05
2.68263e-06
-1.59389e-05
1.70956e-05
1.51462e-06
-1.67261e-05
1.78941e-05
-1.82275e-05
1.97421e-05
1.7765e-05
-7.91919e-06
1.74564e-05
-8.03287e-06
1.71196e-05
-8.15335e-06
1.67662e-05
-8.27529e-06
1.6401e-05
-8.40172e-06
1.60262e-05
-8.5347e-06
1.56424e-05
-8.67422e-06
1.52488e-05
-8.82005e-06
1.4844e-05
-8.97226e-06
1.44266e-05
-9.13104e-06
1.39949e-05
-9.29664e-06
1.35478e-05
-9.46953e-06
1.30843e-05
-9.6504e-06
1.26036e-05
-9.84015e-06
1.21048e-05
-1.00399e-05
1.15868e-05
-1.02508e-05
1.10482e-05
-1.04746e-05
1.04872e-05
-1.07129e-05
9.90166e-06
-1.09681e-05
9.28894e-06
-1.1243e-05
8.64558e-06
-1.1541e-05
7.96722e-06
-1.18664e-05
7.24818e-06
-1.22246e-05
6.48102e-06
-1.26224e-05
5.65588e-06
-1.30678e-05
4.75993e-06
-1.35734e-05
3.77572e-06
-1.41472e-05
2.66478e-06
-1.4828e-05
1.4688e-06
-1.55302e-05
-1.67587e-05
1.76563e-05
-7.60244e-06
1.73245e-05
-7.70111e-06
1.69798e-05
-7.80862e-06
1.66269e-05
-7.92239e-06
1.62665e-05
-8.04136e-06
1.58972e-05
-8.16531e-06
1.55172e-05
-8.29423e-06
1.51253e-05
-8.4282e-06
1.47206e-05
-8.56751e-06
1.43021e-05
-8.71259e-06
1.38694e-05
-8.86389e-06
1.34218e-05
-9.02193e-06
1.29587e-05
-9.18735e-06
1.24795e-05
-9.36087e-06
1.19829e-05
-9.54334e-06
1.14679e-05
-9.7358e-06
1.09328e-05
-9.93949e-06
1.03758e-05
-1.01559e-05
9.79473e-06
-1.0387e-05
9.18676e-06
-1.0635e-05
8.54842e-06
-1.09026e-05
7.87529e-06
-1.11932e-05
7.1617e-06
-1.1511e-05
6.40032e-06
-1.1861e-05
5.58162e-06
-1.22491e-05
4.69292e-06
-1.26847e-05
3.71757e-06
-1.31719e-05
2.62937e-06
-1.37398e-05
1.42847e-06
-1.43293e-05
-1.53302e-05
1.7554e-05
-7.27526e-06
1.72177e-05
-7.36477e-06
1.68711e-05
-7.46203e-06
1.65154e-05
-7.56668e-06
1.61504e-05
-7.67641e-06
1.57752e-05
-7.79008e-06
1.53889e-05
-7.9079e-06
1.49911e-05
-8.03037e-06
1.45814e-05
-8.15783e-06
1.41593e-05
-8.29057e-06
1.37244e-05
-8.42892e-06
1.32757e-05
-8.5733e-06
1.28126e-05
-8.72417e-06
1.23338e-05
-8.88215e-06
1.18384e-05
-9.04793e-06
1.1325e-05
-9.22237e-06
1.0792e-05
-9.40651e-06
1.02376e-05
-9.60156e-06
9.65958e-06
-9.80898e-06
9.05508e-06
-1.00305e-05
8.42065e-06
-1.02682e-05
7.75192e-06
-1.05245e-05
7.04337e-06
-1.08024e-05
6.28792e-06
-1.11056e-05
5.47652e-06
-1.14377e-05
4.59728e-06
-1.18054e-05
3.63493e-06
-1.22095e-05
2.56843e-06
-1.26733e-05
1.38256e-06
-1.31434e-05
-1.39477e-05
1.74199e-05
-6.93963e-06
1.70762e-05
-7.02107e-06
1.67233e-05
-7.10916e-06
1.63617e-05
-7.20501e-06
1.59911e-05
-7.3059e-06
1.56112e-05
-7.41012e-06
1.52212e-05
-7.51792e-06
1.48207e-05
-7.62987e-06
1.44092e-05
-7.74628e-06
1.39859e-05
-7.8673e-06
1.35502e-05
-7.9932e-06
1.31012e-05
-8.12432e-06
1.26381e-05
-8.26109e-06
1.21599e-05
-8.40399e-06
1.16656e-05
-8.5536e-06
1.11538e-05
-8.71058e-06
1.0623e-05
-8.8757e-06
1.00713e-05
-9.04987e-06
9.4965e-06
-9.23413e-06
8.89572e-06
-9.42972e-06
8.26559e-06
-9.63805e-06
7.60186e-06
-9.86079e-06
6.89923e-06
-1.00998e-05
6.15099e-06
-1.03573e-05
5.34866e-06
-1.06354e-05
4.48128e-06
-1.09381e-05
3.53514e-06
-1.12634e-05
2.49154e-06
-1.16297e-05
1.33148e-06
-1.19833e-05
-1.26162e-05
1.72571e-05
-6.59717e-06
1.69074e-05
-6.67134e-06
1.65494e-05
-6.75119e-06
1.61833e-05
-6.83883e-06
1.58087e-05
-6.93129e-06
1.54251e-05
-7.02652e-06
1.50319e-05
-7.12473e-06
1.46286e-05
-7.22656e-06
1.42146e-05
-7.33231e-06
1.37893e-05
-7.44206e-06
1.33522e-05
-7.55602e-06
1.29023e-05
-7.67447e-06
1.2439e-05
-7.79774e-06
1.19612e-05
-7.92618e-06
1.14678e-05
-8.0602e-06
1.09574e-05
-8.20026e-06
1.04286e-05
-8.34691e-06
9.8795e-06
-8.50073e-06
9.30777e-06
-8.66241e-06
8.71075e-06
-8.8327e-06
8.08513e-06
-9.01243e-06
7.42686e-06
-9.20252e-06
6.73092e-06
-9.40385e-06
5.99105e-06
-9.61747e-06
5.1995e-06
-9.84382e-06
4.34628e-06
-1.00848e-05
3.41922e-06
-1.03363e-05
2.40174e-06
-1.06122e-05
1.27529e-06
-1.08569e-05
-1.13409e-05
1.70655e-05
-6.24864e-06
1.67103e-05
-6.31611e-06
1.63474e-05
-6.38836e-06
1.59768e-05
-6.46823e-06
1.55981e-05
-6.5526e-06
1.52109e-05
-6.63924e-06
1.48145e-05
-6.72833e-06
1.44085e-05
-6.82057e-06
1.39923e-05
-6.91619e-06
1.35655e-05
-7.01524e-06
1.31273e-05
-7.11783e-06
1.2677e-05
-7.22415e-06
1.22137e-05
-7.33444e-06
1.17365e-05
-7.44893e-06
1.12441e-05
-7.56787e-06
1.07354e-05
-7.69155e-06
1.02088e-05
-7.82026e-06
9.66238e-06
-7.95434e-06
9.09408e-06
-8.09411e-06
8.50127e-06
-8.23989e-06
7.8808e-06
-8.39196e-06
7.22885e-06
-8.55057e-06
6.54078e-06
-8.71578e-06
5.81084e-06
-8.88753e-06
5.03202e-06
-9.065e-06
4.1954e-06
-9.24823e-06
3.29036e-06
-9.43127e-06
2.30234e-06
-9.6242e-06
1.215e-06
-9.76952e-06
-1.01259e-05
1.68456e-05
-5.89461e-06
1.64854e-05
-5.95589e-06
1.61181e-05
-6.02113e-06
1.57435e-05
-6.09363e-06
1.53612e-05
-6.17029e-06
1.49708e-05
-6.24878e-06
1.45717e-05
-6.32923e-06
1.41634e-05
-6.41233e-06
1.37456e-05
-6.49831e-06
1.33174e-05
-6.58713e-06
1.28784e-05
-6.67881e-06
1.24278e-05
-6.77349e-06
1.19646e-05
-6.87131e-06
1.14881e-05
-6.97237e-06
1.0997e-05
-7.07678e-06
1.04901e-05
-7.18465e-06
9.96589e-06
-7.29606e-06
9.42263e-06
-7.41109e-06
8.85825e-06
-7.52972e-06
8.27027e-06
-7.65191e-06
7.65576e-06
-7.77745e-06
7.01118e-06
-7.906e-06
6.33229e-06
-8.03688e-06
5.6139e-06
-8.16915e-06
4.8498e-06
-8.3009e-06
4.03215e-06
-8.43058e-06
3.15191e-06
-8.55103e-06
2.19648e-06
-8.66877e-06
1.15283e-06
-8.72587e-06
-8.97308e-06
1.65988e-05
-5.53565e-06
1.62342e-05
-5.59122e-06
1.5863e-05
-5.64996e-06
1.54849e-05
-5.71551e-06
1.50994e-05
-5.78481e-06
1.47062e-05
-5.85554e-06
1.43047e-05
-5.92779e-06
1.38946e-05
-6.00222e-06
1.34753e-05
-6.079e-06
1.30462e-05
-6.15804e-06
1.26067e-05
-6.23931e-06
1.21561e-05
-6.32286e-06
1.16935e-05
-6.40871e-06
1.1218e-05
-6.49688e-06
1.07286e-05
-6.58734e-06
1.02239e-05
-6.68002e-06
9.70267e-06
-6.77481e-06
9.16314e-06
-6.87155e-06
8.60337e-06
-6.96995e-06
8.02107e-06
-7.06961e-06
7.41353e-06
-7.16992e-06
6.77754e-06
-7.27001e-06
6.10928e-06
-7.36862e-06
5.40416e-06
-7.46402e-06
4.65675e-06
-7.55349e-06
3.86032e-06
-7.63415e-06
3.00736e-06
-7.69807e-06
2.08716e-06
-7.74857e-06
1.09025e-06
-7.72896e-06
-7.88283e-06
1.63275e-05
-5.17235e-06
1.5959e-05
-5.22265e-06
1.55844e-05
-5.2754e-06
1.52033e-05
-5.33436e-06
1.48151e-05
-5.39668e-06
1.44196e-05
-5.46004e-06
1.40164e-05
-5.52451e-06
1.36048e-05
-5.59069e-06
1.31845e-05
-5.65872e-06
1.2755e-05
-5.72845e-06
1.23154e-05
-5.79979e-06
1.18653e-05
-5.87269e-06
1.14037e-05
-5.94712e-06
1.09298e-05
-6.02297e-06
1.04425e-05
-6.10007e-06
9.94072e-06
-6.17823e-06
9.42307e-06
-6.25716e-06
8.88799e-06
-6.33648e-06
8.33368e-06
-6.41565e-06
7.75804e-06
-6.49397e-06
7.1586e-06
-6.57048e-06