/*--------------------------------*- C++ -*----------------------------------*\
  =========                 |
  \\      /  F ield         | OpenFOAM: The Open Source CFD Toolbox
   \\    /   O peration     | Website:  https://openfoam.org
    \\  /    A nd           | Version:  11
     \\/     M anipulation  |
\*---------------------------------------------------------------------------*/
FoamFile
{
    format      ascii;
    class       volVectorField;
    location    "2";
    object      U;
}
// * * * * * * * * * * * * * * * * * * * * * * * * * * * * * * * * * * * * * //

dimensions      [0 1 -1 0 0 0 0];

internalField   nonuniform List<vector> 
12600
(
(0.412279 6.08844e-05 0)
(0.412164 0.000121058 0)
(0.411982 0.000128529 0)
(0.411783 0.000120796 0)
(0.411615 0.000110298 0)
(0.411496 9.67493e-05 0)
(0.411429 7.95349e-05 0)
(0.411421 5.21442e-05 0)
(0.411485 1.66557e-05 0)
(0.411628 -1.58151e-05 0)
(0.411858 -4.30575e-05 0)
(0.412181 -7.47842e-05 0)
(0.41261 -0.000113379 0)
(0.413157 -0.000158686 0)
(0.41384 -0.000210905 0)
(0.414674 -0.000271637 0)
(0.415681 -0.000342982 0)
(0.416888 -0.000427124 0)
(0.418328 -0.000526294 0)
(0.420039 -0.000642877 0)
(0.422067 -0.000779585 0)
(0.424469 -0.000939575 0)
(0.427308 -0.00112638 0)
(0.430658 -0.00134279 0)
(0.434597 -0.00159346 0)
(0.439219 -0.00187819 0)
(0.444626 -0.00221364 0)
(0.450893 -0.00252362 0)
(0.458145 -0.00310864 0)
(0.467503 -0.00261177 0)
(0.412478 0.000105354 0)
(0.412559 0.000178379 0)
(0.412654 0.000159169 0)
(0.412727 0.000127306 0)
(0.412812 8.92428e-05 0)
(0.412931 4.17992e-05 0)
(0.413097 -1.96328e-05 0)
(0.41332 -9.21e-05 0)
(0.413607 -0.000173452 0)
(0.413969 -0.000265501 0)
(0.414421 -0.000369989 0)
(0.414978 -0.000486031 0)
(0.415642 -0.000613653 0)
(0.416417 -0.000755057 0)
(0.417319 -0.000913477 0)
(0.418362 -0.00109257 0)
(0.419561 -0.00129679 0)
(0.420937 -0.00153182 0)
(0.422514 -0.00180467 0)
(0.424324 -0.00212357 0)
(0.426409 -0.00249776 0)
(0.428818 -0.00293734 0)
(0.431609 -0.00345283 0)
(0.434851 -0.00405427 0)
(0.438626 -0.00475271 0)
(0.443021 -0.0055544 0)
(0.448136 -0.00648184 0)
(0.45408 -0.00744229 0)
(0.460957 -0.00881686 0)
(0.468916 -0.00874914 0)
(0.41247 4.2374e-05 0)
(0.412512 7.68001e-05 0)
(0.412576 6.30104e-05 0)
(0.412646 2.31682e-05 0)
(0.412732 -3.58914e-05 0)
(0.412853 -0.000112235 0)
(0.413021 -0.000208235 0)
(0.413245 -0.000324735 0)
(0.413534 -0.000460872 0)
(0.413896 -0.000615331 0)
(0.41434 -0.000787169 0)
(0.414874 -0.000975892 0)
(0.415507 -0.00118234 0)
(0.416251 -0.00141061 0)
(0.417117 -0.00166555 0)
(0.418117 -0.00195171 0)
(0.419268 -0.00227547 0)
(0.420592 -0.00264598 0)
(0.422114 -0.00307501 0)
(0.423866 -0.00357637 0)
(0.425887 -0.00416547 0)
(0.428225 -0.00485906 0)
(0.430935 -0.00567502 0)
(0.434087 -0.00663191 0)
(0.437757 -0.00774943 0)
(0.442045 -0.00904123 0)
(0.44703 -0.0105382 0)
(0.452919 -0.0121541 0)
(0.459554 -0.0142602 0)
(0.468091 -0.0151299 0)
(0.412466 2.63147e-05 0)
(0.412492 5.49284e-05 0)
(0.412541 4.21421e-05 0)
(0.412603 -5.88985e-06 0)
(0.412685 -8.39706e-05 0)
(0.4128 -0.000189711 0)
(0.412961 -0.0003234 0)
(0.413176 -0.000484502 0)
(0.413453 -0.000670919 0)
(0.413802 -0.000881023 0)
(0.41423 -0.00111447 0)
(0.414744 -0.00137168 0)
(0.415355 -0.00165418 0)
(0.41607 -0.00196593 0)
(0.4169 -0.00231295 0)
(0.417858 -0.00270298 0)
(0.418959 -0.00314601 0)
(0.420224 -0.0036546 0)
(0.421678 -0.00424398 0)
(0.423352 -0.00493203 0)
(0.425283 -0.00573936 0)
(0.427517 -0.00668922 0)
(0.430108 -0.00780742 0)
(0.433125 -0.0091216 0)
(0.436644 -0.0106617 0)
(0.44077 -0.0124508 0)
(0.445582 -0.0145334 0)
(0.451318 -0.0168275 0)
(0.457777 -0.0197226 0)
(0.466343 -0.0215397 0)
(0.412464 1.60801e-05 0)
(0.41248 2.67847e-05 0)
(0.412517 4.20395e-08 0)
(0.412572 -6.60475e-05 0)
(0.412648 -0.000167328 0)
(0.412756 -0.000303957 0)
(0.412907 -0.000475378 0)
(0.413111 -0.000680123 0)
(0.413375 -0.00091619 0)
(0.413706 -0.00118201 0)
(0.414111 -0.00147702 0)
(0.414599 -0.00180178 0)
(0.415177 -0.00215851 0)
(0.415853 -0.00255175 0)
(0.416638 -0.00298842 0)
(0.417542 -0.00347786 0)
(0.418581 -0.00403235 0)
(0.419774 -0.00466764 0)
(0.421142 -0.00540301 0)
(0.422715 -0.00626134 0)
(0.424528 -0.00726914 0)
(0.426625 -0.00845658 0)
(0.429058 -0.00985763 0)
(0.431894 -0.0115094 0)
(0.43521 -0.0134526 0)
(0.439115 -0.0157231 0)
(0.443684 -0.0183778 0)
(0.449189 -0.0213567 0)
(0.455383 -0.0250333 0)
(0.46388 -0.0278824 0)
(0.412463 8.93647e-06 0)
(0.412475 7.05617e-06 0)
(0.412504 -2.9093e-05 0)
(0.412551 -0.000108035 0)
(0.412621 -0.000229968 0)
(0.412722 -0.000393835 0)
(0.412864 -0.000598464 0)
(0.413054 -0.000842347 0)
(0.413301 -0.00112345 0)
(0.41361 -0.00143988 0)
(0.413989 -0.00179069 0)
(0.414444 -0.00217647 0)
(0.414983 -0.0025998 0)
(0.415613 -0.0030659 0)
(0.416342 -0.00358298 0)
(0.417182 -0.00416244 0)
(0.418144 -0.00481925 0)
(0.419246 -0.00557224 0)
(0.420508 -0.00644427 0)
(0.421958 -0.00746249 0)
(0.423626 -0.0086587 0)
(0.425554 -0.0100697 0)
(0.427792 -0.0117376 0)
(0.430403 -0.0137098 0)
(0.433462 -0.0160392 0)
(0.437079 -0.018777 0)
(0.441329 -0.0219953 0)
(0.446512 -0.0256641 0)
(0.45234 -0.0301393 0)
(0.460658 -0.034077 0)
(0.412462 3.56747e-06 0)
(0.412472 -7.61421e-06 0)
(0.412494 -5.45197e-05 0)
(0.412535 -0.000148726 0)
(0.412599 -0.00029123 0)
(0.412692 -0.00048178 0)
(0.412822 -0.000719132 0)
(0.412996 -0.00100126 0)
(0.413223 -0.00132571 0)
(0.413507 -0.00169034 0)
(0.413855 -0.00209407 0)
(0.414273 -0.00253761 0)
(0.414766 -0.00302393 0)
(0.415341 -0.00355884 0)
(0.416006 -0.00415145 0)
(0.41677 -0.00481458 0)
(0.417643 -0.00556516 0)
(0.418641 -0.00642462 0)
(0.419781 -0.0074192 0)
(0.421087 -0.00858033 0)
(0.422586 -0.00994514 0)
(0.424316 -0.0115571 0)
(0.426322 -0.0134666 0)
(0.428664 -0.0157314 0)
(0.431411 -0.0184178 0)
(0.434674 -0.0215941 0)
(0.438523 -0.0253509 0)
(0.443285 -0.0296952 0)
(0.44863 -0.0349672 0)
(0.456628 -0.0400461 0)
(0.412462 -9.29276e-07 0)
(0.412469 -1.83599e-05 0)
(0.412488 -7.69394e-05 0)
(0.412523 -0.000184897 0)
(0.41258 -0.000346144 0)
(0.412663 -0.000560912 0)
(0.412781 -0.000827568 0)
(0.412938 -0.00114371 0)
(0.413143 -0.00150668 0)
(0.413399 -0.00191412 0)
(0.413712 -0.0023648 0)
(0.414087 -0.00285931 0)
(0.41453 -0.00340075 0)
(0.415044 -0.00399538 0)
(0.415637 -0.0046532 0)
(0.416316 -0.00538843 0)
(0.41709 -0.00621991 0)
(0.417971 -0.00717149 0)
(0.418973 -0.00827241 0)
(0.420116 -0.00955782 0)
(0.421424 -0.0110696 0)
(0.422929 -0.0128572 0)
(0.424669 -0.0149791 0)
(0.426699 -0.0175035 0)
(0.429081 -0.0205105 0)
(0.431922 -0.0240874 0)
(0.435283 -0.0283466 0)
(0.439511 -0.0333391 0)
(0.44424 -0.0393939 0)
(0.451728 -0.0456591 0)
(0.412461 -3.71158e-06 0)
(0.412467 -2.80103e-05 0)
(0.412483 -9.59037e-05 0)
(0.412513 -0.000216661 0)
(0.412563 -0.000395 0)
(0.412636 -0.000631479 0)
(0.41274 -0.000924432 0)
(0.412879 -0.00127119 0)
(0.413059 -0.00166876 0)
(0.413285 -0.0021145 0)
(0.41356 -0.00260692 0)
(0.413889 -0.00314653 0)
(0.414276 -0.00373653 0)
(0.414724 -0.00438357 0)
(0.415238 -0.0050983 0)
(0.415824 -0.00589592 0)
(0.416489 -0.00679667 0)
(0.417242 -0.00782625 0)
(0.418093 -0.00901632 0)
(0.419059 -0.0104052 0)
(0.420157 -0.0120389 0)
(0.421412 -0.0139723 0)
(0.422857 -0.0162712 0)
(0.424537 -0.019014 0)
(0.426503 -0.0222942 0)
(0.428854 -0.0262192 0)
(0.431639 -0.0309251 0)
(0.43521 -0.0365133 0)
(0.439174 -0.0433062 0)
(0.445912 -0.0507693 0)
(0.412461 -6.04172e-06 0)
(0.412466 -3.58114e-05 0)
(0.412479 -0.000111945 0)
(0.412504 -0.00024411 0)
(0.412547 -0.000437501 0)
(0.41261 -0.000693009 0)
(0.412699 -0.00100891 0)
(0.412819 -0.00138222 0)
(0.412973 -0.00180961 0)
(0.413166 -0.00228813 0)
(0.413401 -0.00281605 0)
(0.41368 -0.0033937 0)
(0.414007 -0.00402426 0)
(0.414384 -0.00471451 0)
(0.414815 -0.00547553 0)
(0.415302 -0.00632323 0)
(0.415851 -0.00727891 0)
(0.416467 -0.0083697 0)
(0.417157 -0.00962912 0)
(0.417933 -0.0110979 0)
(0.418805 -0.0128252 0)
(0.419793 -0.0148705 0)
(0.420917 -0.0173056 0)
(0.422213 -0.0202178 0)
(0.423718 -0.0237134 0)
(0.425517 -0.0279189 0)
(0.427641 -0.0329954 0)
(0.430428 -0.0390984 0)
(0.433467 -0.0465481 0)
(0.439167 -0.0551666 0)
(0.412461 -7.88587e-06 0)
(0.412465 -4.22379e-05 0)
(0.412475 -0.000125367 0)
(0.412497 -0.000267287 0)
(0.412532 -0.000473526 0)
(0.412585 -0.000745143 0)
(0.412659 -0.00108033 0)
(0.412758 -0.00147583 0)
(0.412885 -0.00192801 0)
(0.413044 -0.0024336 0)
(0.413236 -0.00299058 0)
(0.413463 -0.00359902 0)
(0.413727 -0.00426199 0)
(0.41403 -0.00498628 0)
(0.414372 -0.00578316 0)
(0.414756 -0.00666893 0)
(0.415184 -0.00766546 0)
(0.415657 -0.00880068 0)
(0.41618 -0.0101092 0)
(0.416756 -0.0116333 0)
(0.417392 -0.0134242 0)
(0.418097 -0.0155444 0)
(0.418883 -0.0180703 0)
(0.419769 -0.021096 0)
(0.420777 -0.0247385 0)
(0.421969 -0.0291413 0)
(0.423355 -0.0344888 0)
(0.425235 -0.0409899 0)
(0.427191 -0.0489662 0)
(0.431529 -0.0586179 0)
(0.412461 -9.36838e-06 0)
(0.412464 -4.74871e-05 0)
(0.412472 -0.000136363 0)
(0.41249 -0.000286294 0)
(0.412518 -0.00050301 0)
(0.41256 -0.000787638 0)
(0.412619 -0.00113826 0)
(0.412697 -0.00155141 0)
(0.412796 -0.00202311 0)
(0.412919 -0.00254977 0)
(0.413067 -0.00312904 0)
(0.413241 -0.00376072 0)
(0.41344 -0.00444761 0)
(0.413666 -0.00519636 0)
(0.413918 -0.00601814 0)
(0.414196 -0.00692926 0)
(0.414499 -0.00795169 0)
(0.414826 -0.00911358 0)
(0.415177 -0.0104498 0)
(0.41555 -0.0120032 0)
(0.415944 -0.0138257 0)
(0.416359 -0.0159812 0)
(0.416795 -0.0185485 0)
(0.417254 -0.0216257 0)
(0.417741 -0.025337 0)
(0.418287 -0.0298387 0)
(0.418875 -0.0353339 0)
(0.419739 -0.042079 0)
(0.420471 -0.0503972 0)
(0.423114 -0.0608579 0)
(0.412461 -1.05668e-05 0)
(0.412463 -5.17122e-05 0)
(0.41247 -0.000145115 0)
(0.412483 -0.000301257 0)
(0.412505 -0.000525972 0)
(0.412536 -0.000820389 0)
(0.41258 -0.00118248 0)
(0.412636 -0.00160853 0)
(0.412707 -0.0020943 0)
(0.412794 -0.00263585 0)
(0.412897 -0.0032305 0)
(0.413016 -0.0038777 0)
(0.41315 -0.00457991 0)
(0.413298 -0.00534343 0)
(0.413458 -0.00617911 0)
(0.413629 -0.0071029 0)
(0.413806 -0.00813642 0)
(0.413986 -0.00930734 0)
(0.414165 -0.01065 0)
(0.414334 -0.0122066 0)
(0.414486 -0.0140284 0)
(0.414611 -0.0161785 0)
(0.414695 -0.0187355 0)
(0.414724 -0.0217983 0)
(0.41468 -0.0254934 0)
(0.414559 -0.0299833 0)
(0.414313 -0.0354822 0)
(0.414085 -0.0422809 0)
(0.413487 -0.0507004 0)
(0.414131 -0.0616301 0)
(0.41246 -1.15368e-05 0)
(0.412462 -5.50505e-05 0)
(0.412468 -0.000151795 0)
(0.412477 -0.000312329 0)
(0.412492 -0.000542511 0)
(0.412513 -0.00084342 0)
(0.412541 -0.0012129 0)
(0.412576 -0.00164704 0)
(0.412619 -0.00214132 0)
(0.41267 -0.00269151 0)
(0.412727 -0.00329457 0)
(0.412791 -0.00394955 0)
(0.412859 -0.00465849 0)
(0.412929 -0.00542718 0)
(0.412999 -0.00626589 0)
(0.413063 -0.0071899 0)
(0.413116 -0.00821994 0)
(0.413152 -0.00938259 0)
(0.413161 -0.0107108 0)
(0.413131 -0.0122449 0)
(0.413046 -0.0140339 0)
(0.412887 -0.0161382 0)
(0.412627 -0.0186332 0)
(0.412236 -0.0216141 0)
(0.411669 -0.0252043 0)
(0.410886 -0.0295642 0)
(0.409803 -0.0349076 0)
(0.408451 -0.0415408 0)
(0.406474 -0.0497725 0)
(0.404905 -0.0607186 0)
(0.41246 -1.23259e-05 0)
(0.412462 -5.76328e-05 0)
(0.412466 -0.00015658 0)
(0.412472 -0.000319693 0)
(0.412481 -0.000552787 0)
(0.412492 -0.000856859 0)
(0.412504 -0.00122962 0)
(0.412518 -0.001667 0)
(0.412533 -0.00216424 0)
(0.412548 -0.00271681 0)
(0.41256 -0.00332135 0)
(0.41257 -0.00397648 0)
(0.412573 -0.00468371 0)
(0.412566 -0.00544822 0)
(0.412546 -0.00627946 0)
(0.412506 -0.00719172 0)
(0.412439 -0.0082044 0)
(0.412335 -0.00934237 0)
(0.41218 -0.0106363 0)
(0.411959 -0.0121236 0)
(0.411649 -0.0138496 0)
(0.411221 -0.0158696 0)
(0.410637 -0.0182527 0)
(0.409847 -0.0210865 0)
(0.408787 -0.0244843 0)
(0.407375 -0.0285952 0)
(0.405492 -0.033619 0)
(0.403045 -0.0398527 0)
(0.399717 -0.0475772 0)
(0.395862 -0.0580011 0)
(0.41246 -1.29785e-05 0)
(0.412462 -5.95794e-05 0)
(0.412464 -0.000159658 0)
(0.412468 -0.000323589 0)
(0.41247 -0.000557066 0)
(0.412471 -0.000860976 0)
(0.412469 -0.00123293 0)
(0.412463 -0.00166871 0)
(0.41245 -0.00216339 0)
(0.412429 -0.0027122 0)
(0.412398 -0.00331143 0)
(0.412354 -0.00395927 0)
(0.412294 -0.00465667 0)
(0.412213 -0.00540806 0)
(0.412107 -0.00622192 0)
(0.411967 -0.00711122 0)
(0.411784 -0.00809367 0)
(0.411547 -0.00919187 0)
(0.411239 -0.0104335 0)
(0.41084 -0.0118521 0)
(0.41032 -0.0134875 0)
(0.409645 -0.0153883 0)
(0.408765 -0.0176145 0)
(0.407614 -0.0202413 0)
(0.406108 -0.023366 0)
(0.40413 -0.0271163 0)
(0.401525 -0.0316635 0)
(0.398084 -0.0372686 0)
(0.393522 -0.0441643 0)
(0.387505 -0.053494 0)
(0.41246 -1.35437e-05 0)
(0.412461 -6.10409e-05 0)
(0.412463 -0.000161227 0)
(0.412464 -0.000324252 0)
(0.412461 -0.000555649 0)
(0.412453 -0.000856139 0)
(0.412436 -0.00122325 0)
(0.41241 -0.00165271 0)
(0.412371 -0.00213944 0)
(0.412316 -0.00267849 0)
(0.412243 -0.00326584 0)
(0.412147 -0.00389928 0)
(0.412026 -0.00457916 0)
(0.411874 -0.00530906 0)
(0.411685 -0.00609635 0)
(0.41145 -0.00695249 0)
(0.41116 -0.00789314 0)
(0.410799 -0.00893821 0)
(0.41035 -0.0101118 0)
(0.409788 -0.0114425 0)
(0.409081 -0.012964 0)
(0.408187 -0.0147161 0)
(0.407047 -0.0167471 0)
(0.405586 -0.0191164 0)
(0.403701 -0.0218996 0)
(0.401246 -0.0251942 0)
(0.398041 -0.0291294 0)
(0.393773 -0.0339043 0)
(0.388191 -0.0396837 0)
(0.380349 -0.047386 0)
(0.41246 -1.40706e-05 0)
(0.412461 -6.21643e-05 0)
(0.412462 -0.000161507 0)
(0.412461 -0.000321977 0)
(0.412453 -0.00054892 0)
(0.412436 -0.000842818 0)
(0.412406 -0.00120117 0)
(0.412361 -0.00161971 0)
(0.412296 -0.0020933 0)
(0.412209 -0.00261683 0)
(0.412095 -0.00318606 0)
(0.411951 -0.00379838 0)
(0.411772 -0.00445355 0)
(0.411553 -0.00515428 0)
(0.411287 -0.00590672 0)
(0.410964 -0.00672065 0)
(0.410573 -0.0076095 0)
(0.4101 -0.00859014 0)
(0.409524 -0.00968267 0)
(0.408818 -0.0109102 0)
(0.407949 -0.0122992 0)
(0.406868 -0.0138797 0)
(0.405514 -0.0156864 0)
(0.403802 -0.0177604 0)
(0.401619 -0.0201509 0)
(0.398801 -0.0229191 0)
(0.395149 -0.0261414 0)
(0.390284 -0.0299349 0)
(0.383976 -0.0343806 0)
(0.374843 -0.0400408 0)
(0.41246 -1.45978e-05 0)
(0.412461 -6.30537e-05 0)
(0.412462 -0.000160786 0)
(0.412459 -0.000317209 0)
(0.412446 -0.000537352 0)
(0.412421 -0.000821561 0)
(0.412379 -0.00116738 0)
(0.412316 -0.0015706 0)
(0.412228 -0.00202607 0)
(0.412109 -0.00252862 0)
(0.411958 -0.00307386 0)
(0.411768 -0.00365882 0)
(0.411535 -0.00428271 0)
(0.411253 -0.00494737 0)
(0.410915 -0.00565768 0)
(0.410512 -0.00642168 0)
(0.410031 -0.00725043 0)
(0.409457 -0.00815763 0)
(0.40877 -0.00915907 0)
(0.407941 -0.0102722 0)
(0.406936 -0.0115158 0)
(0.405705 -0.0129094 0)
(0.404186 -0.0144734 0)
(0.402289 -0.0162288 0)
(0.3999 -0.0181969 0)
(0.396846 -0.0203984 0)
(0.392925 -0.022852 0)
(0.387728 -0.0255811 0)
(0.38105 -0.0285757 0)
(0.371293 -0.0319633 0)
(0.41246 -1.51697e-05 0)
(0.412461 -6.38897e-05 0)
(0.412462 -0.000159405 0)
(0.412458 -0.000310349 0)
(0.412441 -0.000521413 0)
(0.412409 -0.000793 0)
(0.412356 -0.00112272 0)
(0.412276 -0.00150643 0)
(0.412165 -0.00193909 0)
(0.412019 -0.00241556 0)
(0.411831 -0.00293135 0)
(0.411599 -0.00348325 0)
(0.411316 -0.00406996 0)
(0.410977 -0.00469248 0)
(0.410574 -0.00535446 0)
(0.410098 -0.00606219 0)
(0.409537 -0.00682436 0)
(0.408876 -0.00765144 0)
(0.408094 -0.008555 0)
(0.407164 -0.0095468 0)
(0.406051 -0.0106379 0)
(0.404708 -0.0118374 0)
(0.403073 -0.0131517 0)
(0.40106 -0.0145816 0)
(0.398558 -0.0161204 0)
(0.395401 -0.0177487 0)
(0.391395 -0.0194281 0)
(0.386146 -0.0210872 0)
(0.379475 -0.0226294 0)
(0.369806 -0.0237347 0)
(0.41246 -1.58678e-05 0)
(0.412462 -6.49115e-05 0)
(0.412462 -0.000157687 0)
(0.412458 -0.000301809 0)
(0.412438 -0.000501673 0)
(0.4124 -0.000757886 0)
(0.412337 -0.00106812 0)
(0.412242 -0.00142841 0)
(0.412111 -0.00183387 0)
(0.411938 -0.00227951 0)
(0.411718 -0.00276085 0)
(0.411446 -0.00327454 0)
(0.411118 -0.00381883 0)
(0.410727 -0.00439399 0)
(0.410266 -0.00500252 0)
(0.409726 -0.00564904 0)
(0.409095 -0.00633995 0)
(0.408359 -0.00708268 0)
(0.407499 -0.00788474 0)
(0.406489 -0.00875251 0)
(0.405297 -0.00968988 0)
(0.403878 -0.0106964 0)
(0.402176 -0.0117649 0)
(0.400113 -0.0128783 0)
(0.397589 -0.0140039 0)
(0.394455 -0.015086 0)
(0.39054 -0.0160351 0)
(0.385503 -0.0166954 0)
(0.379194 -0.0168982 0)
(0.370271 -0.015932 0)
(0.412461 -1.68002e-05 0)
(0.412463 -6.63985e-05 0)
(0.412464 -0.000156003 0)
(0.412459 -0.000292102 0)
(0.412438 -0.000478791 0)
(0.412394 -0.000716993 0)
(0.412322 -0.00100458 0)
(0.412214 -0.00133781 0)
(0.412064 -0.00171205 0)
(0.411867 -0.00212255 0)
(0.411618 -0.00256497 0)
(0.411311 -0.00303588 0)
(0.410942 -0.00353323 0)
(0.410505 -0.00405664 0)
(0.409992 -0.00460757 0)
(0.409396 -0.00518914 0)
(0.408706 -0.00580569 0)
(0.407909 -0.00646187 0)
(0.406987 -0.0071616 0)
(0.405917 -0.00790652 0)
(0.40467 -0.00869425 0)
(0.40321 -0.00951598 0)
(0.401485 -0.0103532 0)
(0.399432 -0.0111734 0)
(0.396965 -0.0119226 0)
(0.393965 -0.0125153 0)
(0.390294 -0.0128219 0)
(0.385691 -0.0126206 0)
(0.380042 -0.0116927 0)
(0.37238 -0.00904187 0)
(0.412461 -1.80976e-05 0)
(0.412464 -6.87274e-05 0)
(0.412467 -0.000154841 0)
(0.412462 -0.000281822 0)
(0.41244 -0.000453487 0)
(0.412392 -0.000671162 0)
(0.412312 -0.000933156 0)
(0.412192 -0.00123593 0)
(0.412026 -0.00157524 0)
(0.411808 -0.00194669 0)
(0.411533 -0.00234623 0)
(0.411195 -0.00277049 0)
(0.41079 -0.00321721 0)
(0.410312 -0.00368552 0)
(0.409755 -0.00417599 0)
(0.409112 -0.00469044 0)
(0.408372 -0.00523138 0)
(0.407525 -0.0058011 0)
(0.406555 -0.00640048 0)
(0.405444 -0.00702727 0)
(0.404166 -0.0076741 0)
(0.402692 -0.00832559 0)
(0.400983 -0.00895454 0)
(0.398988 -0.00951666 0)
(0.396644 -0.00994271 0)
(0.393866 -0.0101263 0)
(0.390557 -0.00991114 0)
(0.386551 -0.0090338 0)
(0.381772 -0.00724929 0)
(0.375711 -0.00341227 0)
(0.412461 -1.99618e-05 0)
(0.412465 -7.24466e-05 0)
(0.412471 -0.000154839 0)
(0.412468 -0.000271576 0)
(0.412446 -0.000426505 0)
(0.412395 -0.000621441 0)
(0.412308 -0.000855169 0)
(0.412178 -0.0011244 0)
(0.411998 -0.00142528 0)
(0.411762 -0.00175394 0)
(0.411464 -0.00210672 0)
(0.411099 -0.00248046 0)
(0.410662 -0.00287287 0)
(0.410149 -0.00328276 0)
(0.409554 -0.00371002 0)
(0.408871 -0.00415544 0)
(0.408092 -0.00462009 0)
(0.407206 -0.00510442 0)
(0.406201 -0.00560697 0)
(0.405063 -0.0061227 0)
(0.403773 -0.0066407 0)
(0.40231 -0.00714113 0)
(0.400644 -0.00759106 0)
(0.398745 -0.007939 0)
(0.396571 -0.00810689 0)
(0.394074 -0.00797734 0)
(0.391203 -0.00738205 0)
(0.38789 -0.00604126 0)
(0.384097 -0.00370522 0)
(0.379773 0.000791639 0)
(0.412462 -2.27551e-05 0)
(0.412468 -7.84642e-05 0)
(0.412478 -0.000156772 0)
(0.412479 -0.000261779 0)
(0.412457 -0.000398245 0)
(0.412404 -0.000568575 0)
(0.412312 -0.00077192 0)
(0.412174 -0.0010054 0)
(0.411982 -0.00126569 0)
(0.41173 -0.00154948 0)
(0.411412 -0.00185351 0)
(0.411024 -0.00217489 0)
(0.410561 -0.00251139 0)
(0.410019 -0.00286164 0)
(0.409393 -0.00322507 0)
(0.408677 -0.00360165 0)
(0.407865 -0.00399136 0)
(0.40695 -0.00439329 0)
(0.405922 -0.00480446 0)
(0.40477 -0.00521814 0)
(0.403481 -0.00562168 0)
(0.402044 -0.00599306 0)
(0.400442 -0.00629673 0)
(0.39866 -0.00647848 0)
(0.396682 -0.00645821 0)
(0.394496 -0.00611755 0)
(0.392095 -0.0052905 0)
(0.389505 -0.00370493 0)
(0.38673 -0.0011259 0)
(0.384091 0.00351096 0)
(0.412462 -2.72022e-05 0)
(0.412473 -8.84411e-05 0)
(0.41249 -0.000162199 0)
(0.412495 -0.00025345 0)
(0.412475 -0.000368901 0)
(0.412421 -0.000511524 0)
(0.412325 -0.000680608 0)
(0.41218 -0.000873874 0)
(0.411978 -0.00108885 0)
(0.411713 -0.00132303 0)
(0.411379 -0.00157383 0)
(0.410971 -0.00183882 0)
(0.410486 -0.00211598 0)
(0.40992 -0.00240387 0)
(0.409268 -0.00270161 0)
(0.408527 -0.00300863 0)
(0.40769 -0.00332422 0)
(0.406754 -0.00364669 0)
(0.40571 -0.00397223 0)
(0.404553 -0.00429355 0)
(0.403275 -0.00459789 0)
(0.401873 -0.00486357 0)
(0.400344 -0.00505561 0)
(0.398689 -0.00512119 0)
(0.396913 -0.00498411 0)
(0.395039 -0.00453386 0)
(0.3931 -0.00361921 0)
(0.391199 -0.00199581 0)
(0.38938 0.000542753 0)
(0.388254 0.00485473 0)
(0.412464 -3.4294e-05 0)
(0.412483 -0.000103533 0)
(0.41251 -0.000173224 0)
(0.412523 -0.000252342 0)
(0.412506 -0.000348804 0)
(0.412451 -0.000465465 0)
(0.412353 -0.000601865 0)
(0.412204 -0.000756399 0)
(0.411995 -0.000927284 0)
(0.411719 -0.00111261 0)
(0.411372 -0.00131036 0)
(0.410949 -0.00151869 0)
(0.410446 -0.00173606 0)
(0.409861 -0.00196128 0)
(0.40919 -0.00219346 0)
(0.408429 -0.00243178 0)
(0.407575 -0.00267514 0)
(0.406623 -0.00292155 0)
(0.405571 -0.00316726 0)
(0.404415 -0.00340571 0)
(0.403154 -0.00362543 0)
(0.401791 -0.00380659 0)
(0.400337 -0.00391739 0)
(0.398806 -0.00391087 0)
(0.397224 -0.00372083 0)
(0.39564 -0.00325189 0)
(0.394123 -0.00237707 0)
(0.392833 -0.000893888 0)
(0.391843 0.00135852 0)
(0.391968 0.0049877 0)
(0.412468 -4.9586e-05 0)
(0.4125 -0.000119546 0)
(0.412541 -0.000171116 0)
(0.412561 -0.000228448 0)
(0.412547 -0.000298843 0)
(0.412494 -0.000382551 0)
(0.412395 -0.000479168 0)
(0.412243 -0.000588386 0)
(0.412029 -0.000709484 0)
(0.411747 -0.000841367 0)
(0.411392 -0.0009828 0)
(0.410959 -0.0011325 0)
(0.410446 -0.0012892 0)
(0.40985 -0.00145171 0)
(0.409167 -0.00161894 0)
(0.408397 -0.00178984 0)
(0.407535 -0.00196323 0)
(0.406581 -0.00213708 0)
(0.405532 -0.00230799 0)
(0.404389 -0.00247169 0)
(0.403156 -0.00262182 0)
(0.401843 -0.00274372 0)
(0.400467 -0.00280897 0)
(0.399055 -0.002776 0)
(0.397646 -0.00259185 0)
(0.396312 -0.00218277 0)
(0.395148 -0.00145394 0)
(0.394341 -0.000246914 0)
(0.39401 0.00153373 0)
(0.395031 0.00427175 0)
(0.412474 -9.88994e-05 0)
(0.41257 -0.000199667 0)
(0.412626 -0.00024185 0)
(0.41262 -0.000278422 0)
(0.412583 -0.00032454 0)
(0.41251 -0.000378443 0)
(0.412395 -0.000438798 0)
(0.412229 -0.000505468 0)
(0.412003 -0.000578611 0)
(0.411711 -0.000657599 0)
(0.411346 -0.000741807 0)
(0.410903 -0.000830845 0)
(0.410378 -0.000924369 0)
(0.409767 -0.00102195 0)
(0.409067 -0.00112304 0)
(0.408278 -0.00122695 0)
(0.407399 -0.00133278 0)
(0.406431 -0.00143914 0)
(0.405376 -0.00154364 0)
(0.404237 -0.00164269 0)
(0.403017 -0.00173056 0)
(0.401716 -0.00179692 0)
(0.400348 -0.00182398 0)
(0.398952 -0.00178537 0)
(0.397593 -0.0016454 0)
(0.396362 -0.00135368 0)
(0.39539 -0.000846182 0)
(0.394865 -1.15638e-05 0)
(0.395102 0.00120231 0)
(0.39611 0.0030897 0)
(0.412278 -6.80246e-05 0)
(0.412152 -0.000141463 0)
(0.411925 -0.000161508 0)
(0.411626 -0.000175745 0)
(0.411284 -0.00019564 0)
(0.410901 -0.000219514 0)
(0.410466 -0.000244983 0)
(0.409972 -0.000271836 0)
(0.409412 -0.000299982 0)
(0.408781 -0.000329107 0)
(0.408077 -0.00035895 0)
(0.407294 -0.000389409 0)
(0.40643 -0.000420594 0)
(0.405481 -0.00045286 0)
(0.404443 -0.000486747 0)
(0.403313 -0.000522769 0)
(0.402087 -0.000561089 0)
(0.400764 -0.000601403 0)
(0.399343 -0.000642674 0)
(0.397827 -0.000681921 0)
(0.396224 -0.000713719 0)
(0.394555 -0.000732435 0)
(0.392852 -0.000733782 0)
(0.391161 -0.000711623 0)
(0.389559 -0.000653833 0)
(0.38816 -0.000539157 0)
(0.387132 -0.000346258 0)
(0.386713 -2.28941e-05 0)
(0.387255 0.000456669 0)
(0.389064 0.00110356 0)
(0.470726 -0.00541604 -6.56718e-20)
(0.474299 -0.00814699 -6.57009e-20)
(0.477427 -0.0115042 -9.38547e-19)
(0.479886 -0.0152356 -2.70125e-19)
(0.481998 -0.0192439 2.74186e-19)
(0.483909 -0.0234865 0)
(0.485645 -0.0279666 0)
(0.487245 -0.0327116 2.8322e-19)
(0.488767 -0.0377529 -2.8812e-19)
(0.490256 -0.0431189 -5.805e-19)
(0.491734 -0.0488394 5.91026e-19)
(0.493205 -0.0549504 0)
(0.494665 -0.0614987 -6.01672e-19)
(0.496109 -0.0685438 6.13354e-19)
(0.49754 -0.0761604 0)
(0.498958 -0.0844402 1.24521e-18)
(0.500368 -0.0934958 6.25967e-19)
(0.501772 -0.103466 6.25358e-19)
(0.503167 -0.114521 6.3253e-19)
(0.504546 -0.12688 6.25878e-19)
(0.505895 -0.140815 -6.3047e-19)
(0.50719 -0.156682 1.90322e-18)
(0.508384 -0.174945 0)
(0.50942 -0.196207 -1.20208e-18)
(0.51012 -0.221311 5.61601e-19)
(0.510356 -0.251347 -1.1236e-18)
(0.509652 -0.287493 -1.46913e-18)
(0.506398 -0.335076 0)
(0.504595 -0.379303 0)
(0.481269 -0.490859 1.53952e-21)
(0.474484 -0.0124584 -1.07455e-18)
(0.476708 -0.0155597 0)
(0.47852 -0.0192425 0)
(0.479947 -0.0231679 -1.11217e-18)
(0.481226 -0.0272671 1.12673e-18)
(0.482473 -0.031568 1.14153e-18)
(0.483695 -0.036115 -2.87972e-19)
(0.484897 -0.0409407 2.93057e-19)
(0.486091 -0.0460672 8.93331e-19)
(0.487277 -0.0515165 1.5069e-18)
(0.488441 -0.0573197 -6.07496e-19)
(0.489562 -0.0635193 1.24364e-18)
(0.49063 -0.0701697 6.2788e-19)
(0.491638 -0.0773364 6.43141e-19)
(0.492584 -0.0850976 6.45158e-19)
(0.493463 -0.0935465 1.30963e-18)
(0.494264 -0.102796 0)
(0.494972 -0.112984 -6.60723e-19)
(0.49556 -0.124281 -6.79068e-19)
(0.495994 -0.136901 0)
(0.496223 -0.151113 6.70206e-19)
(0.496176 -0.16726 6.90572e-19)
(0.495743 -0.185785 -1.3742e-18)
(0.494783 -0.207254 0)
(0.492998 -0.232444 6.26015e-19)
(0.490155 -0.262291 6.45964e-19)
(0.485361 -0.298124 -1.21656e-18)
(0.477649 -0.342985 4.55695e-19)
(0.468904 -0.388826 -4.74186e-19)
(0.439257 -0.488948 8.36842e-20)
(0.472917 -0.0191109 1.09447e-18)
(0.474316 -0.0221336 0)
(0.475518 -0.0257231 -1.40103e-19)
(0.476658 -0.0295991 2.42009e-18)
(0.477798 -0.0336999 -8.64007e-19)
(0.478939 -0.0380387 -1.75241e-18)
(0.480051 -0.0426364 1.48801e-18)
(0.481111 -0.047508 -3.00375e-19)
(0.482109 -0.0526723 -9.12209e-19)
(0.483035 -0.0581602 -2.99503e-19)
(0.48388 -0.0640133 3.1543e-19)
(0.484637 -0.0702812 -1.91082e-18)
(0.485304 -0.07702 1.29788e-18)
(0.485873 -0.084294 -1.97253e-18)
(0.486336 -0.0921789 0)
(0.486672 -0.100766 -1.34984e-18)
(0.486856 -0.110166 0)
(0.486851 -0.120516 0)
(0.486613 -0.131983 1.40201e-18)
(0.486079 -0.144775 0)
(0.485165 -0.159151 0)
(0.483757 -0.175436 -1.43323e-18)
(0.481685 -0.194046 1.43319e-18)
(0.478733 -0.215501 0)
(0.474502 -0.240507 0)
(0.468647 -0.269875 -1.36011e-18)
(0.460005 -0.304891 5.05108e-19)
(0.448054 -0.347271 -3.76369e-19)
(0.432144 -0.393764 -3.04301e-19)
(0.397336 -0.482426 0)
(0.471011 -0.0259871 -3.49315e-20)
(0.472102 -0.0291 -3.53668e-20)
(0.473029 -0.0327455 1.08391e-18)
(0.473983 -0.036664 -2.33825e-18)
(0.474925 -0.0407964 1.48506e-19)
(0.4758 -0.0451539 3.00693e-19)
(0.476586 -0.0497619 -2.96455e-19)
(0.477284 -0.0546463 0)
(0.477896 -0.0598369 1.58475e-18)
(0.478419 -0.0653698 -2.89089e-18)
(0.478847 -0.0712861 1.3136e-18)
(0.47917 -0.0776311 6.62739e-19)
(0.479374 -0.0844564 -2.03805e-18)
(0.479441 -0.0918236 0)
(0.479343 -0.0998072 0)
(0.479049 -0.108498 1.43769e-18)
(0.478518 -0.118006 1.4646e-18)
(0.477698 -0.128463 7.34049e-19)
(0.476523 -0.14003 -7.25203e-21)
(0.474906 -0.152905 -7.66273e-19)
(0.47273 -0.167328 0)
(0.469837 -0.183602 0)
(0.466008 -0.202102 -8.40868e-19)
(0.460955 -0.223293 -2.45976e-18)
(0.454202 -0.247793 0)
(0.445306 -0.276275 -8.91737e-19)
(0.432912 -0.309886 1.46379e-18)
(0.416852 -0.349584 -2.81484e-18)
(0.394081 -0.394657 3.85812e-19)
(0.355721 -0.471712 0)
(0.468299 -0.0327479 0)
(0.46906 -0.0358892 1.1691e-18)
(0.469638 -0.0395253 -1.03276e-18)
(0.470284 -0.043431 1.0487e-18)
(0.47092 -0.0475623 1.52644e-19)
(0.471462 -0.0519336 -1.55517e-19)
(0.471901 -0.0565705 -1.25878e-18)
(0.472249 -0.0614972 0)
(0.472503 -0.06674 1.4602e-20)
(0.47265 -0.0723304 1.32625e-18)
(0.472673 -0.0783055 -1.68967e-18)
(0.472551 -0.084709 1.74208e-18)
(0.472261 -0.0915927 1.75436e-18)
(0.471775 -0.099019 -3.6061e-19)
(0.47106 -0.107062 2.21782e-18)
(0.470073 -0.115809 -1.46943e-18)
(0.468761 -0.125366 -1.53564e-18)
(0.467058 -0.135857 -7.84537e-19)
(0.464878 -0.147431 0)
(0.462107 -0.160271 0)
(0.458599 -0.174598 0)
(0.45416 -0.190679 8.48303e-19)
(0.448524 -0.208847 2.61666e-18)
(0.44135 -0.2295 8.53347e-19)
(0.432099 -0.253161 1.81262e-18)
(0.420249 -0.280365 -1.07846e-18)
(0.404339 -0.312092 1.96224e-18)
(0.384389 -0.348763 -2.24901e-19)
(0.355525 -0.391067 1.57334e-18)
(0.314926 -0.456927 2.42763e-18)
(0.464784 -0.0393739 -1.18293e-18)
(0.465228 -0.0425543 -1.19455e-18)
(0.465467 -0.0462081 -1.22672e-18)
(0.465811 -0.0501333 0)
(0.466147 -0.0542901 0)
(0.466365 -0.0586896 -1.29389e-18)
(0.466456 -0.0633538 0)
(0.466433 -0.0683056 1.01112e-18)
(0.46629 -0.0735709 -2.38487e-18)
(0.466005 -0.0791818 1.40065e-18)
(0.465554 -0.0851764 1.07643e-18)
(0.464915 -0.0915986 -2.90001e-18)
(0.46406 -0.0984995 6.49153e-22)
(0.462953 -0.105939 -1.15248e-18)
(0.461553 -0.113985 3.36638e-20)
(0.459807 -0.122722 -1.57136e-18)
(0.457647 -0.132245 -4.23902e-20)
(0.454992 -0.142669 1.69668e-18)
(0.451736 -0.154131 -8.88732e-19)
(0.447745 -0.166792 -8.83212e-19)
(0.442845 -0.180847 1.85273e-18)
(0.436813 -0.196529 0)
(0.429346 -0.214117 -1.88144e-18)
(0.420058 -0.233939 0)
(0.408373 -0.256415 -2.12733e-18)
(0.393703 -0.281946 2.04854e-18)
(0.374555 -0.311316 2.0075e-19)
(0.351018 -0.344552 2.15712e-18)
(0.317029 -0.382963 -2.75874e-18)
(0.275008 -0.438211 1.05862e-18)
(0.460391 -0.0457847 1.17108e-18)
(0.460505 -0.0489996 -3.87053e-20)
(0.460387 -0.0526626 1.49211e-18)
(0.460399 -0.0565912 4.86079e-19)
(0.460401 -0.0607496 0)
(0.460258 -0.0651487 1.32754e-18)
(0.459958 -0.0698104 1.02725e-18)
(0.459518 -0.074758 -1.73019e-18)
(0.458931 -0.0800175 6.94421e-19)
(0.458169 -0.0856201 -7.08803e-19)
(0.457205 -0.0916017 -1.47518e-18)
(0.456008 -0.0980034 1.50971e-18)
(0.454546 -0.104872 -3.99444e-19)
(0.452775 -0.112263 1.18454e-18)
(0.450643 -0.120241 -3.81388e-19)
(0.448087 -0.128879 -4.22816e-19)
(0.445029 -0.138266 2.60141e-18)
(0.441372 -0.148503 -2.68017e-18)
(0.436996 -0.159711 1.82174e-18)
(0.431748 -0.172028 4.98489e-19)
(0.425433 -0.18562 -1.44789e-18)
(0.417803 -0.200677 1.05518e-18)
(0.40853 -0.217424 0)
(0.397198 -0.236115 -5.58147e-19)
(0.383211 -0.257064 2.84984e-18)
(0.365933 -0.280547 0)
(0.343908 -0.30713 -4.47833e-18)
(0.317212 -0.336559 6.90013e-19)
(0.279191 -0.370267 0)
(0.236697 -0.415668 -2.87669e-18)
(0.455032 -0.0518462 -6.31069e-19)
(0.454799 -0.0550859 -8.01083e-20)
(0.454305 -0.0587428 -4.95348e-19)
(0.453961 -0.0626554 -7.46803e-19)
(0.453604 -0.0667934 1.70301e-19)
(0.453073 -0.0711678 -1.73939e-19)
(0.452354 -0.0757999 -7.06077e-19)
(0.451468 -0.0807114 -7.34813e-19)
(0.450406 -0.0859269 7.38978e-19)
(0.449134 -0.0914749 -3.7477e-19)