/*--------------------------------*- C++ -*----------------------------------*\
  =========                 |
  \\      /  F ield         | OpenFOAM: The Open Source CFD Toolbox
   \\    /   O peration     | Website:  https://openfoam.org
    \\  /    A nd           | Version:  11
     \\/     M anipulation  |
\*---------------------------------------------------------------------------*/
FoamFile
{
    format      ascii;
    class       volVectorField;
    location    "2";
    object      U;
}
// * * * * * * * * * * * * * * * * * * * * * * * * * * * * * * * * * * * * * //

dimensions      [0 1 -1 0 0 0 0];

internalField   nonuniform List<vector> 
12600
(
(0.412111 0.000105831 0)
(0.411838 0.000179782 0)
(0.411421 0.000191445 0)
(0.410946 0.00019524 0)
(0.410473 0.000200064 0)
(0.41001 0.000203263 0)
(0.40955 0.000204867 0)
(0.409091 0.000205718 0)
(0.408634 0.00020608 0)
(0.408181 0.000205987 0)
(0.407733 0.000205468 0)
(0.407292 0.000204514 0)
(0.406859 0.000202998 0)
(0.406437 0.000200705 0)
(0.406027 0.000197466 0)
(0.405634 0.000193307 0)
(0.405262 0.00018801 0)
(0.404915 0.000180883 0)
(0.404597 0.000171678 0)
(0.404317 0.0001606 0)
(0.404086 0.000147143 0)
(0.403914 0.000131898 0)
(0.403815 0.00011408 0)
(0.403806 8.66383e-05 0)
(0.403915 4.51916e-05 0)
(0.404171 -8.2232e-06 0)
(0.404621 -7.07038e-05 0)
(0.40532 -0.000146289 0)
(0.406451 -0.000270231 0)
(0.406916 -0.000818756 0)
(0.412491 0.000154285 0)
(0.41264 0.000283985 0)
(0.412766 0.000266804 0)
(0.412812 0.000259506 0)
(0.412851 0.000261609 0)
(0.412899 0.000261449 0)
(0.41295 0.000259243 0)
(0.413003 0.00025633 0)
(0.413058 0.000252889 0)
(0.413115 0.000248694 0)
(0.413178 0.000243547 0)
(0.413246 0.000237258 0)
(0.413321 0.000229587 0)
(0.413406 0.000220164 0)
(0.413503 0.000208337 0)
(0.413615 0.000193579 0)
(0.413745 0.000175225 0)
(0.413898 0.000154433 0)
(0.414078 0.000130141 0)
(0.414291 9.77434e-05 0)
(0.414546 5.78082e-05 0)
(0.414851 7.93553e-06 0)
(0.415221 -5.52942e-05 0)
(0.415667 -0.000132676 0)
(0.416215 -0.000226897 0)
(0.416864 -0.00034576 0)
(0.417717 -0.000498511 0)
(0.418586 -0.00072156 0)
(0.420013 -0.00100552 0)
(0.420232 -0.00183291 0)
(0.41248 8.61217e-05 0)
(0.412553 0.000156403 0)
(0.41264 0.00016317 0)
(0.412701 0.000164886 0)
(0.412746 0.000170295 0)
(0.412792 0.000172199 0)
(0.412842 0.000170526 0)
(0.412896 0.000167464 0)
(0.412952 0.000163451 0)
(0.413012 0.000158298 0)
(0.413075 0.000151669 0)
(0.413144 0.000143306 0)
(0.413218 0.00013252 0)
(0.4133 0.000118883 0)
(0.413392 0.000102064 0)
(0.413498 8.08158e-05 0)
(0.41362 5.51688e-05 0)
(0.413763 2.34411e-05 0)
(0.413932 -1.90266e-05 0)
(0.414132 -7.08794e-05 0)
(0.41437 -0.000132324 0)
(0.414654 -0.000208024 0)
(0.414995 -0.000301748 0)
(0.415408 -0.00041942 0)
(0.41591 -0.000566607 0)
(0.416524 -0.000756667 0)
(0.417278 -0.000991797 0)
(0.418197 -0.00130749 0)
(0.419277 -0.00172444 0)
(0.420584 -0.00210165 0)
(0.412472 5.6981e-05 0)
(0.41252 0.00013536 0)
(0.412591 0.000166978 0)
(0.412649 0.000176022 0)
(0.412693 0.000184464 0)
(0.412736 0.000186931 0)
(0.412784 0.000185034 0)
(0.412836 0.000181078 0)
(0.41289 0.00017561 0)
(0.412948 0.000168721 0)
(0.41301 0.000160125 0)
(0.413077 0.000149281 0)
(0.413149 0.000135591 0)
(0.41323 0.000117846 0)
(0.41332 9.37983e-05 0)
(0.413423 6.4148e-05 0)
(0.413541 2.82086e-05 0)
(0.41368 -1.55855e-05 0)
(0.413843 -7.02217e-05 0)
(0.414037 -0.000136782 0)
(0.414267 -0.000219467 0)
(0.41454 -0.000321611 0)
(0.414868 -0.000448315 0)
(0.415265 -0.000606994 0)
(0.415747 -0.000805723 0)
(0.416335 -0.00105671 0)
(0.417052 -0.00137218 0)
(0.417937 -0.00176899 0)
(0.418977 -0.00228421 0)
(0.420391 -0.00267007 0)
(0.412468 4.15007e-05 0)
(0.4125 0.000107013 0)
(0.412554 0.000135814 0)
(0.412605 0.000142729 0)
(0.412648 0.000144236 0)
(0.41269 0.00014334 0)
(0.412736 0.000138957 0)
(0.412787 0.000131754 0)
(0.41284 0.000122934 0)
(0.412897 0.000112899 0)
(0.412957 0.000101021 0)
(0.413022 8.66297e-05 0)
(0.413092 6.86587e-05 0)
(0.41317 4.54016e-05 0)
(0.413258 1.60705e-05 0)
(0.413358 -2.18115e-05 0)
(0.413473 -6.74123e-05 0)
(0.413607 -0.000122905 0)
(0.413763 -0.000190571 0)
(0.413948 -0.000274077 0)
(0.414167 -0.000377129 0)
(0.414428 -0.000504074 0)
(0.41474 -0.000661514 0)
(0.415116 -0.000858138 0)
(0.415572 -0.00110425 0)
(0.416128 -0.00141346 0)
(0.416803 -0.0018025 0)
(0.417646 -0.00228169 0)
(0.418629 -0.00290065 0)
(0.420051 -0.00347594 0)
(0.412465 3.125e-05 0)
(0.412488 8.41746e-05 0)
(0.412531 0.000113216 0)
(0.412576 0.000123284 0)
(0.412618 0.000126529 0)
(0.412659 0.00012662 0)
(0.412704 0.000122939 0)
(0.412752 0.000116052 0)
(0.412804 0.000107167 0)
(0.412859 9.66618e-05 0)
(0.412918 8.39875e-05 0)
(0.412981 6.80271e-05 0)
(0.413049 4.76853e-05 0)
(0.413125 2.19961e-05 0)
(0.413209 -1.0857e-05 0)
(0.413304 -5.38669e-05 0)
(0.413414 -0.000107605 0)
(0.413541 -0.000173562 0)
(0.413689 -0.000254034 0)
(0.413864 -0.000352705 0)
(0.414071 -0.000473937 0)
(0.414316 -0.000623422 0)
(0.414609 -0.000808922 0)
(0.41496 -0.00104047 0)
(0.415385 -0.00133046 0)
(0.415902 -0.00169403 0)
(0.416528 -0.00215118 0)
(0.417316 -0.00271339 0)
(0.41823 -0.00344325 0)
(0.419597 -0.00418864 0)
(0.412464 2.41792e-05 0)
(0.412481 6.70721e-05 0)
(0.412515 9.38537e-05 0)
(0.412555 0.000104363 0)
(0.412595 0.00010619 0)
(0.412634 0.000103583 0)
(0.412677 9.71818e-05 0)
(0.412723 8.76292e-05 0)
(0.412773 7.59594e-05 0)
(0.412826 6.25579e-05 0)
(0.412883 4.68628e-05 0)
(0.412943 2.76294e-05 0)
(0.413009 2.93047e-06 0)
(0.413081 -2.86476e-05 0)
(0.413161 -6.86067e-05 0)
(0.413252 -0.000118228 0)
(0.413356 -0.000180026 0)
(0.413476 -0.000255797 0)
(0.413615 -0.000348193 0)
(0.413779 -0.000461189 0)
(0.413971 -0.00059986 0)
(0.414197 -0.00077081 0)
(0.414467 -0.000982753 0)
(0.414791 -0.00124688 0)
(0.41518 -0.00157718 0)
(0.415652 -0.00199061 0)
(0.416222 -0.00251007 0)
(0.416943 -0.00315229 0)
(0.417773 -0.00398215 0)
(0.419046 -0.00489442 0)
(0.412463 1.90013e-05 0)
(0.412477 5.35691e-05 0)
(0.412504 7.67016e-05 0)
(0.41254 8.62865e-05 0)
(0.412577 8.68379e-05 0)
(0.412615 8.25034e-05 0)
(0.412655 7.46952e-05 0)
(0.4127 6.40506e-05 0)
(0.412748 5.13259e-05 0)
(0.412799 3.67819e-05 0)
(0.412854 1.97753e-05 0)
(0.412912 -8.80362e-07 0)
(0.412975 -2.71838e-05 0)
(0.413043 -6.11684e-05 0)
(0.413119 -0.000104767 0)
(0.413204 -0.000159569 0)
(0.413302 -0.000227939 0)
(0.413413 -0.000311978 0)
(0.413542 -0.000414558 0)
(0.413692 -0.000539896 0)
(0.413868 -0.000693577 0)
(0.414075 -0.000882923 0)
(0.41432 -0.00111755 0)
(0.414611 -0.00140979 0)
(0.41496 -0.00177519 0)
(0.415383 -0.00223264 0)
(0.415889 -0.00280769 0)
(0.416531 -0.00352245 0)
(0.417263 -0.00444282 0)
(0.418414 -0.00550546 0)
(0.412463 1.4965e-05 0)
(0.412474 4.25502e-05 0)
(0.412497 6.16535e-05 0)
(0.412528 6.9578e-05 0)
(0.412563 6.87844e-05 0)
(0.412599 6.27386e-05 0)
(0.412638 5.31912e-05 0)
(0.412681 4.09085e-05 0)
(0.412727 2.65122e-05 0)
(0.412776 1.01626e-05 0)
(0.412828 -8.89877e-06 0)
(0.412883 -3.21385e-05 0)
(0.412942 -6.14279e-05 0)
(0.413007 -9.9058e-05 0)
(0.413078 -0.00014716 0)
(0.413157 -0.000207594 0)
(0.413247 -0.000282643 0)
(0.413349 -0.00037471 0)
(0.413467 -0.000486927 0)
(0.413603 -0.000623766 0)
(0.413761 -0.000791251 0)
(0.413946 -0.000997335 0)
(0.414163 -0.0012524 0)
(0.41442 -0.00156968 0)
(0.414725 -0.00196592 0)
(0.415092 -0.00246169 0)
(0.41553 -0.00308474 0)
(0.416083 -0.00386266 0)
(0.416704 -0.00486036 0)
(0.417709 -0.00605747 0)
(0.412462 1.16651e-05 0)
(0.412471 3.32988e-05 0)
(0.412492 4.83611e-05 0)
(0.41252 5.41025e-05 0)
(0.412552 5.16959e-05 0)
(0.412587 4.38774e-05 0)
(0.412624 3.25508e-05 0)
(0.412665 1.86815e-05 0)
(0.412709 2.8318e-06 0)
(0.412756 -1.49582e-05 0)
(0.412805 -3.54898e-05 0)
(0.412857 -6.04327e-05 0)
(0.412913 -9.18023e-05 0)
(0.412973 -0.000132006 0)
(0.413039 -0.000183346 0)
(0.413112 -0.000247938 0)
(0.413194 -0.00032813 0)
(0.413286 -0.000426525 0)
(0.413392 -0.000546445 0)
(0.413512 -0.000692548 0)
(0.413652 -0.000871184 0)
(0.413813 -0.00109077 0)
(0.414 -0.00136226 0)
(0.41422 -0.00169964 0)
(0.414479 -0.00212065 0)
(0.414787 -0.0026473 0)
(0.415149 -0.00330912 0)
(0.415606 -0.00413847 0)
(0.416105 -0.00519865 0)
(0.416942 -0.00650743 0)
(0.412462 8.85947e-06 0)
(0.41247 2.52965e-05 0)
(0.412488 3.64426e-05 0)
(0.412514 3.96965e-05 0)
(0.412544 3.54772e-05 0)
(0.412577 2.59139e-05 0)
(0.412613 1.29028e-05 0)
(0.412652 -2.45756e-06 0)
(0.412693 -1.96424e-05 0)
(0.412738 -3.87363e-05 0)
(0.412784 -6.06596e-05 0)
(0.412833 -8.71679e-05 0)
(0.412885 -0.000120474 0)
(0.412941 -0.000163084 0)
(0.413001 -0.000217454 0)
(0.413068 -0.000285866 0)
(0.413141 -0.000370716 0)
(0.413223 -0.000474708 0)
(0.413315 -0.000601303 0)
(0.41342 -0.000755311 0)
(0.413539 -0.000943316 0)
(0.413675 -0.00117407 0)
(0.413832 -0.00145895 0)
(0.414013 -0.00181244 0)
(0.414222 -0.00225291 0)
(0.414468 -0.00280339 0)
(0.414751 -0.00349454 0)
(0.415105 -0.0043626 0)
(0.415474 -0.00546821 0)
(0.416124 -0.00686439 0)
(0.412462 6.39142e-06 0)
(0.412469 1.8171e-05 0)
(0.412486 2.55643e-05 0)
(0.412509 2.61901e-05 0)
(0.412538 2.00461e-05 0)
(0.412569 8.78476e-06 0)
(0.412604 -5.80344e-06 0)
(0.412641 -2.25496e-05 0)
(0.41268 -4.09464e-05 0)
(0.412722 -6.11858e-05 0)
(0.412765 -8.42952e-05 0)
(0.412811 -0.00011211 0)
(0.412859 -0.000146974 0)
(0.41291 -0.00019148 0)
(0.412965 -0.000248191 0)
(0.413024 -0.000319504 0)
(0.413089 -0.000407869 0)
(0.41316 -0.000516064 0)
(0.413239 -0.000647644 0)
(0.413326 -0.000807511 0)
(0.413425 -0.00100238 0)
(0.413535 -0.0012412 0)
(0.41366 -0.00153554 0)
(0.413801 -0.00190016 0)
(0.413959 -0.00235376 0)
(0.414141 -0.00291987 0)
(0.414342 -0.00362967 0)
(0.414588 -0.00452208 0)
(0.414822 -0.00565438 0)
(0.415272 -0.00710911 0)
(0.412462 4.14923e-06 0)
(0.412468 1.1655e-05 0)
(0.412484 1.54727e-05 0)
(0.412506 1.34374e-05 0)
(0.412533 5.32259e-06 0)
(0.412563 -7.57364e-06 0)
(0.412596 -2.36142e-05 0)
(0.412631 -4.16131e-05 0)
(0.412669 -6.10699e-05 0)
(0.412708 -8.22601e-05 0)
(0.412748 -0.000106312 0)
(0.412791 -0.000135143 0)
(0.412835 -0.000171189 0)
(0.412881 -0.000217121 0)
(0.41293 -0.00027558 0)
(0.412982 -0.000349047 0)
(0.413037 -0.000440006 0)
(0.413097 -0.000551265 0)
(0.413162 -0.000686413 0)
(0.413233 -0.000850379 0)
(0.41331 -0.00104992 0)
(0.413394 -0.00129401 0)
(0.413486 -0.00159428 0)
(0.413586 -0.00196545 0)
(0.413693 -0.00242619 0)
(0.413809 -0.00300001 0)
(0.413928 -0.00371783 0)
(0.414064 -0.00461992 0)
(0.414161 -0.00575925 0)
(0.4144 -0.0072414 0)
(0.412461 2.05085e-06 0)
(0.412468 5.52946e-06 0)
(0.412483 5.91275e-06 0)
(0.412504 1.25329e-06 0)
(0.41253 -8.79097e-06 0)
(0.412559 -2.32176e-05 0)
(0.41259 -4.05677e-05 0)
(0.412624 -5.96648e-05 0)
(0.412659 -8.00106e-05 0)
(0.412696 -0.00010195 0)
(0.412733 -0.000126702 0)
(0.412772 -0.000156254 0)
(0.412812 -0.000193106 0)
(0.412853 -0.00023998 0)
(0.412896 -0.000299561 0)
(0.41294 -0.000374371 0)
(0.412987 -0.000466909 0)
(0.413035 -0.000579974 0)
(0.413086 -0.000717141 0)
(0.41314 -0.0008833 0)
(0.413195 -0.00108514 0)
(0.413253 -0.00133155 0)
(0.413312 -0.00163399 0)
(0.413371 -0.00200691 0)
(0.413428 -0.00246856 0)
(0.413479 -0.00304187 0)
(0.413515 -0.00375675 0)
(0.413542 -0.00465333 0)
(0.413503 -0.00577941 0)
(0.413528 -0.00725545 0)
(0.412461 4.3095e-08 0)
(0.412468 -3.45726e-07 0)
(0.412482 -3.28746e-06 0)
(0.412503 -1.04971e-05 0)
(0.412528 -2.24132e-05 0)
(0.412556 -3.82692e-05 0)
(0.412586 -5.67591e-05 0)
(0.412618 -7.67513e-05 0)
(0.412651 -9.77772e-05 0)
(0.412685 -0.000120245 0)
(0.41272 -0.000145445 0)
(0.412755 -0.000175413 0)
(0.412791 -0.000212683 0)
(0.412827 -0.000259997 0)
(0.412864 -0.00032006 0)
(0.412901 -0.000395406 0)
(0.412938 -0.000488521 0)
(0.412975 -0.000602161 0)
(0.413012 -0.000739837 0)
(0.413048 -0.000906338 0)
(0.413082 -0.0011082 0)
(0.413114 -0.00135408 0)
(0.413141 -0.0016551 0)
(0.41316 -0.00202519 0)
(0.413166 -0.00248181 0)
(0.413154 -0.00304677 0)
(0.41311 -0.00374818 0)
(0.41303 -0.00462451 0)
(0.412861 -0.00571747 0)
(0.412676 -0.0071534 0)
(0.412461 -2.01789e-06 0)
(0.412468 -6.12077e-06 0)
(0.412482 -1.22418e-05 0)
(0.412502 -2.19714e-05 0)
(0.412527 -3.56887e-05 0)
(0.412554 -5.28117e-05 0)
(0.412583 -7.22342e-05 0)
(0.412614 -9.29093e-05 0)
(0.412645 -0.000114402 0)
(0.412677 -0.00013717 0)
(0.412709 -0.000162555 0)
(0.41274 -0.000192621 0)
(0.412772 -0.000229909 0)
(0.412803 -0.000277161 0)
(0.412834 -0.000337071 0)
(0.412863 -0.000412156 0)
(0.412891 -0.000504854 0)
(0.412917 -0.000617849 0)
(0.41294 -0.000754543 0)
(0.412959 -0.000919564 0)
(0.412972 -0.00111921 0)
(0.412978 -0.00136179 0)
(0.412973 -0.00165792 0)
(0.412953 -0.00202076 0)
(0.412911 -0.00246666 0)
(0.412838 -0.00301582 0)
(0.412719 -0.00369379 0)
(0.412538 -0.0045359 0)
(0.412247 -0.00557701 0)
(0.411864 -0.00693979 0)
(0.412461 -4.01226e-06 0)
(0.412468 -1.18754e-05 0)
(0.412482 -2.12812e-05 0)
(0.412503 -3.34254e-05 0)
(0.412528 -4.87472e-05 0)
(0.412554 -6.6934e-05 0)
(0.412582 -8.70744e-05 0)
(0.412611 -0.000108201 0)
(0.412641 -0.000129919 0)
(0.41267 -0.000152735 0)
(0.412699 -0.000178033 0)
(0.412728 -0.000207885 0)
(0.412755 -0.00024481 0)
(0.412781 -0.000291514 0)
(0.412806 -0.000350649 0)
(0.412828 -0.000424681 0)
(0.412847 -0.00051598 0)
(0.412861 -0.000627128 0)
(0.41287 -0.000761383 0)
(0.412873 -0.000923161 0)
(0.412866 -0.00111845 0)
(0.412847 -0.00135511 0)
(0.412812 -0.00164307 0)
(0.412754 -0.00199458 0)
(0.412667 -0.00242454 0)
(0.412537 -0.00295111 0)
(0.412347 -0.00359668 0)
(0.412074 -0.00439208 0)
(0.411673 -0.00536471 0)
(0.411111 -0.00662434 0)
(0.412462 -6.04668e-06 0)
(0.412468 -1.78692e-05 0)
(0.412483 -3.05186e-05 0)
(0.412504 -4.49465e-05 0)
(0.412529 -6.16977e-05 0)
(0.412556 -8.07322e-05 0)
(0.412583 -0.000101356 0)
(0.412611 -0.000122691 0)
(0.412638 -0.000144387 0)
(0.412665 -0.000166997 0)
(0.412692 -0.000191935 0)
(0.412717 -0.000221256 0)
(0.41274 -0.000257429 0)
(0.412762 -0.000303099 0)
(0.412781 -0.000360846 0)
(0.412795 -0.00043306 0)
(0.412805 -0.000522013 0)
(0.412809 -0.000630161 0)
(0.412805 -0.000760583 0)
(0.412791 -0.00091744 0)
(0.412765 -0.00110634 0)
(0.412722 -0.00133461 0)
(0.412658 -0.0016114 0)
(0.412566 -0.00194783 0)
(0.412436 -0.00235716 0)
(0.412254 -0.00285517 0)
(0.412 -0.00346061 0)
(0.411645 -0.00419872 0)
(0.411149 -0.00508915 0)
(0.410434 -0.00622057 0)
(0.412462 -8.21837e-06 0)
(0.412469 -2.41916e-05 0)
(0.412485 -4.01576e-05 0)
(0.412507 -5.67465e-05 0)
(0.412533 -7.4679e-05 0)
(0.412559 -9.43051e-05 0)
(0.412586 -0.000115168 0)
(0.412612 -0.000136455 0)
(0.412638 -0.000157863 0)
(0.412663 -0.000180005 0)
(0.412687 -0.000204312 0)
(0.412709 -0.000232793 0)
(0.412728 -0.000267838 0)
(0.412745 -0.000311999 0)
(0.412758 -0.00036776 0)
(0.412766 -0.000437412 0)
(0.412768 -0.00052311 0)
(0.412761 -0.000627162 0)
(0.412744 -0.000752449 0)
(0.412715 -0.000902834 0)
(0.41267 -0.0010835 0)
(0.412605 -0.00130116 0)
(0.412514 -0.0015641 0)
(0.41239 -0.00188219 0)
(0.412221 -0.0022669 0)
(0.411992 -0.00273139 0)
(0.411682 -0.00329052 0)
(0.411258 -0.00396317 0)
(0.410683 -0.00476133 0)
(0.409847 -0.00574624 0)
(0.412462 -1.0597e-05 0)
(0.41247 -3.10693e-05 0)
(0.412487 -5.04461e-05 0)
(0.412511 -6.89948e-05 0)
(0.412537 -8.78084e-05 0)
(0.412564 -0.000107758 0)
(0.41259 -0.000128604 0)
(0.412616 -0.000149571 0)
(0.41264 -0.000170417 0)
(0.412663 -0.000191831 0)
(0.412685 -0.000215242 0)
(0.412703 -0.000242587 0)
(0.41272 -0.000276148 0)
(0.412732 -0.000318349 0)
(0.41274 -0.000371552 0)
(0.412741 -0.000437919 0)
(0.412734 -0.000519468 0)
(0.412718 -0.000618342 0)
(0.412689 -0.000737201 0)
(0.412646 -0.000879592 0)
(0.412583 -0.00105024 0)
(0.412497 -0.00125518 0)
(0.412381 -0.0015018 0)
(0.412227 -0.00179864 0)
(0.412024 -0.00215533 0)
(0.411753 -0.00258229 0)
(0.411396 -0.00309044 0)
(0.410915 -0.00369203 0)
(0.41028 -0.00439192 0)
(0.409358 -0.00522001 0)
(0.412462 -1.32948e-05 0)
(0.412471 -3.87769e-05 0)
(0.412491 -6.16574e-05 0)
(0.412517 -8.18711e-05 0)
(0.412544 -0.00010121 0)
(0.412571 -0.000121208 0)
(0.412597 -0.000141774 0)
(0.412622 -0.000162125 0)
(0.412645 -0.000182117 0)
(0.412667 -0.00020253 0)
(0.412685 -0.000224777 0)
(0.412701 -0.000250691 0)
(0.412714 -0.000282426 0)
(0.412722 -0.000322269 0)
(0.412725 -0.000372436 0)
(0.41272 -0.000434946 0)
(0.412706 -0.000511654 0)
(0.41268 -0.000604523 0)
(0.41264 -0.000715975 0)
(0.412583 -0.000849214 0)
(0.412505 -0.00100846 0)
(0.4124 -0.00119909 0)
(0.412261 -0.00142751 0)
(0.412081 -0.00170093 0)
(0.411847 -0.00202711 0)
(0.411541 -0.00241382 0)
(0.411145 -0.00286817 0)
(0.410619 -0.0033959 0)
(0.409942 -0.00399585 0)
(0.40897 -0.00466556 0)
(0.412462 -1.64735e-05 0)
(0.412473 -4.76819e-05 0)
(0.412496 -7.41225e-05 0)
(0.412525 -9.55547e-05 0)
(0.412554 -0.000114987 0)
(0.412581 -0.000134756 0)
(0.412607 -0.000154785 0)
(0.412631 -0.000174243 0)
(0.412653 -0.000193112 0)
(0.412673 -0.000212262 0)
(0.41269 -0.000233058 0)
(0.412703 -0.000257197 0)
(0.412713 -0.000286671 0)
(0.412717 -0.000323581 0)
(0.412715 -0.000369981 0)
(0.412704 -0.000427749 0)
(0.412683 -0.000498573 0)
(0.412649 -0.000584229 0)
(0.412599 -0.000686911 0)
(0.412529 -0.000809477 0)
(0.412436 -0.000955652 0)
(0.412314 -0.00113012 0)
(0.412155 -0.00133836 0)
(0.411952 -0.00158626 0)
(0.411691 -0.00187979 0)
(0.411356 -0.00222424 0)
(0.410929 -0.0026233 0)
(0.410372 -0.00307681 0)
(0.409669 -0.00357912 0)
(0.40868 -0.00409759 0)
(0.412463 -2.0387e-05 0)
(0.412476 -5.83111e-05 0)
(0.412503 -8.82213e-05 0)
(0.412536 -0.000110236 0)
(0.412567 -0.000129274 0)
(0.412595 -0.000148463 0)
(0.41262 -0.000167586 0)
(0.412644 -0.000185833 0)
(0.412665 -0.000203406 0)
(0.412684 -0.000221247 0)
(0.412698 -0.000240616 0)
(0.412709 -0.000263041 0)
(0.412716 -0.000290327 0)
(0.412717 -0.000324411 0)
(0.41271 -0.000367143 0)
(0.412695 -0.000420172 0)
(0.412667 -0.000485011 0)
(0.412625 -0.000563247 0)
(0.412566 -0.000656814 0)
(0.412485 -0.000768202 0)
(0.412379 -0.000900622 0)
(0.412241 -0.0010581 0)
(0.412065 -0.00124519 0)
(0.411841 -0.00146654 0)
(0.411558 -0.00172646 0)
(0.4112 -0.00202797 0)
(0.41075 -0.00237193 0)
(0.410172 -0.00275314 0)
(0.409458 -0.00316366 0)
(0.408481 -0.0035454 0)
(0.412464 -2.54443e-05 0)
(0.412481 -7.14166e-05 0)
(0.412513 -0.000104303 0)
(0.412551 -0.000126052 0)
(0.412584 -0.000144426 0)
(0.412612 -0.000162836 0)
(0.412638 -0.0001805 0)
(0.412662 -0.000196729 0)
(0.412682 -0.00021211 0)
(0.412699 -0.000227706 0)
(0.412712 -0.000244661 0)
(0.412721 -0.000264307 0)
(0.412725 -0.000288244 0)
(0.412722 -0.000318223 0)
(0.412712 -0.000355886 0)
(0.412691 -0.000402677 0)
(0.412658 -0.000459961 0)
(0.412609 -0.000529163 0)
(0.412541 -0.000611981 0)
(0.412451 -0.000710541 0)
(0.412333 -0.00082754 0)
(0.412182 -0.000966395 0)
(0.41199 -0.00113082 0)
(0.41175 -0.00132429 0)
(0.411449 -0.00154965 0)
(0.411073 -0.00180797 0)
(0.410606 -0.0020979 0)
(0.410017 -0.00241024 0)
(0.409303 -0.00273738 0)
(0.408358 -0.0030028 0)
(0.412465 -3.23767e-05 0)
(0.412488 -8.81211e-05 0)
(0.412529 -0.000122514 0)
(0.412571 -0.000142479 0)
(0.412606 -0.000160016 0)
(0.412635 -0.000178254 0)
(0.412662 -0.000195443 0)
(0.412686 -0.000210904 0)
(0.412706 -0.000225451 0)
(0.412721 -0.000240138 0)
(0.412733 -0.00025597 0)
(0.41274 -0.000274087 0)
(0.412741 -0.000295898 0)
(0.412736 -0.000322907 0)
(0.412723 -0.000356513 0)
(0.412698 -0.000397958 0)
(0.41266 -0.000448398 0)
(0.412605 -0.000509045 0)
(0.41253 -0.000581386 0)
(0.41243 -0.000667182 0)
(0.412302 -0.000768632 0)
(0.41214 -0.000888592 0)
(0.411936 -0.00102998 0)
(0.411681 -0.00119523 0)
(0.411366 -0.00138599 0)
(0.410976 -0.00160169 0)
(0.410498 -0.0018395 0)
(0.409906 -0.00208716 0)
(0.4092 -0.00234063 0)
(0.408299 -0.00251176 0)
(0.412468 -4.25009e-05 0)
(0.4125 -0.000110439 0)
(0.412552 -0.000144235 0)
(0.4126 -0.000159772 0)
(0.412636 -0.000173383 0)
(0.412665 -0.000187522 0)
(0.412692 -0.000200301 0)
(0.412716 -0.000211657 0)
(0.412736 -0.000222555 0)
(0.41275 -0.000233827 0)
(0.41276 -0.000246285 0)
(0.412766 -0.000260816 0)
(0.412765 -0.000278536 0)
(0.412758 -0.00030066 0)
(0.412742 -0.000328349 0)
(0.412713 -0.000362637 0)
(0.412671 -0.000404481 0)
(0.412611 -0.000454938 0)
(0.41253 -0.000515327 0)
(0.412423 -0.000586942 0)
(0.412287 -0.000671559 0)
(0.412115 -0.00077176 0)
(0.4119 -0.00088963 0)
(0.411635 -0.00102651 0)
(0.411309 -0.00118306 0)
(0.41091 -0.00135734 0)
(0.410426 -0.00154563 0)
(0.409834 -0.00173241 0)
(0.409141 -0.00192378 0)
(0.408278 -0.00202144 0)
(0.412472 -5.77031e-05 0)
(0.41252 -0.000138734 0)
(0.412588 -0.000172586 0)
(0.412643 -0.000190151 0)
(0.41268 -0.00020707 0)
(0.41271 -0.000222433 0)
(0.412738 -0.000234775 0)
(0.412762 -0.000245263 0)
(0.412781 -0.000255226 0)
(0.412794 -0.000265331 0)
(0.412803 -0.000276128 0)
(0.412807 -0.000288471 0)
(0.412805 -0.000303329 0)
(0.412796 -0.000321637 0)
(0.412777 -0.000344329 0)
(0.412746 -0.000372253 0)
(0.4127 -0.00040609 0)
(0.412636 -0.000446622 0)
(0.41255 -0.000495245 0)
(0.412438 -0.000552756 0)
(0.412294 -0.000619852 0)
(0.412114 -0.000699027 0)
(0.411892 -0.000792318 0)
(0.411618 -0.000900259 0)
(0.411285 -0.0010227 0)
(0.410881 -0.00115665 0)
(0.410397 -0.0012978 0)
(0.409809 -0.00142561 0)
(0.409132 -0.0015577 0)
(0.408287 -0.00159982 0)
(0.41248 -8.67504e-05 0)
(0.412552 -0.00015809 0)
(0.412637 -0.000169303 0)
(0.412695 -0.000177327 0)
(0.412733 -0.000189128 0)
(0.412766 -0.000199671 0)
(0.412796 -0.000207861 0)
(0.41282 -0.000215006 0)
(0.412839 -0.000221908 0)
(0.412852 -0.000229259 0)
(0.41286 -0.000237863 0)
(0.412863 -0.000247701 0)
(0.41286 -0.000259392 0)
(0.41285 -0.00027356 0)
(0.412829 -0.000290738 0)
(0.412796 -0.000311516 0)
(0.412747 -0.000336652 0)
(0.41268 -0.000366907 0)
(0.41259 -0.000402867 0)
(0.412473 -0.000445915 0)
(0.412325 -0.000497627 0)
(0.41214 -0.000558194 0)
(0.41191 -0.000628077 0)
(0.411631 -0.00070821 0)
(0.411292 -0.000798278 0)
(0.410885 -0.000895004 0)
(0.410405 -0.000993376 0)
(0.409821 -0.00106662 0)
(0.40917 -0.00113817 0)
(0.408248 -0.00103765 0)
(0.412491 -0.00015451 0)
(0.412641 -0.000286792 0)
(0.412765 -0.000270916 0)
(0.412802 -0.000267146 0)
(0.41283 -0.00027334 0)
(0.412858 -0.000279086 0)
(0.412884 -0.000282805 0)
(0.412903 -0.000286016 0)
(0.412916 -0.00028945 0)
(0.412924 -0.000293248 0)
(0.412925 -0.000297608 0)
(0.41292 -0.000302954 0)
(0.412907 -0.000309627 0)
(0.412884 -0.000317953 0)
(0.412848 -0.000328542 0)
(0.412799 -0.000341776 0)
(0.412731 -0.000357401 0)
(0.412643 -0.000375743 0)
(0.41253 -0.000400164 0)
(0.412387 -0.000427104 0)
(0.412209 -0.000455474 0)
(0.41199 -0.000492569 0)
(0.411722 -0.000538088 0)
(0.411399 -0.00058965 0)
(0.411012 -0.000647091 0)
(0.410556 -0.00070805 0)
(0.410026 -0.000769204 0)
(0.409407 -0.000795315 0)
(0.408693 -0.000829808 0)
(0.407082 -0.000244406 0)
(0.412111 -0.000106263 0)
(0.411836 -0.000180417 0)
(0.411415 -0.000192883 0)
(0.410933 -0.000197742 0)
(0.410448 -0.000203853 0)
(0.409966 -0.000208549 0)
(0.40948 -0.000212015 0)
(0.408987 -0.000215099 0)
(0.408488 -0.000218021 0)
(0.407983 -0.000220826 0)
(0.407471 -0.000223683 0)
(0.406953 -0.000226718 0)
(0.406425 -0.00023006 0)
(0.405888 -0.000233832 0)
(0.405338 -0.000238079 0)
(0.404772 -0.000242936 0)
(0.404186 -0.000248772 0)
(0.403578 -0.000255814 0)
(0.402943 -0.000263619 0)
(0.402273 -0.000273303 0)
(0.401565 -0.000286189 0)
(0.400811 -0.000300922 0)
(0.400002 -0.000317185 0)
(0.399129 -0.000335527 0)
(0.398183 -0.000356271 0)
(0.397159 -0.000377512 0)
(0.396053 -0.000401829 0)
(0.394894 -0.000394007 0)
(0.393777 -0.000459177 0)
(0.391322 0.000280629 0)
(0.412394 -0.00162033 -1.53242e-18)
(0.417448 -0.00208269 -1.18937e-20)
(0.421111 -0.00240491 1.58646e-18)
(0.422955 -0.00290048 3.19312e-18)
(0.423942 -0.00360646 1.63332e-18)
(0.424596 -0.00449498 -1.62179e-18)
(0.425095 -0.00553049 1.65895e-18)
(0.425483 -0.0066969 0)
(0.425817 -0.00799661 1.68898e-18)
(0.426125 -0.00943242 -4.071e-21)
(0.426401 -0.0110079 1.19008e-19)
(0.426629 -0.0127339 0)
(0.426792 -0.0146292 -2.01681e-18)
(0.426883 -0.0167186 0)
(0.426891 -0.0190333 0)
(0.426805 -0.0216128 -2.23111e-18)
(0.42661 -0.0245082 -2.15623e-18)
(0.426285 -0.0277864 2.68254e-22)
(0.425803 -0.0315361 2.16727e-18)
(0.425131 -0.0358774 3.23087e-19)
(0.424223 -0.040974 -3.02252e-18)
(0.42302 -0.0470687 3.51665e-19)
(0.42145 -0.0544593 -1.8349e-19)
(0.419382 -0.0638339 2.86688e-18)
(0.416774 -0.0753569 4.02266e-19)
(0.413185 -0.0925186 -2.09306e-19)
(0.409092 -0.111155 0)
(0.402852 -0.153934 -3.36547e-18)
(0.39703 -0.184118 -3.48263e-18)
(0.389739 -0.335009 0)
(0.421652 -0.00216696 1.53682e-18)
(0.423204 -0.00241888 -3.63459e-20)
(0.424062 -0.00295749 2.86428e-20)
(0.424088 -0.00372775 -1.61536e-18)
(0.424156 -0.00465199 -5.17979e-20)
(0.424356 -0.00567941 1.75022e-18)
(0.424584 -0.00680464 1.6345e-18)
(0.424859 -0.00803566 2.234e-19)
(0.425131 -0.00937994 -1.14739e-19)
(0.425375 -0.0108441 1.88364e-18)
(0.425571 -0.0124393 2.06591e-18)
(0.425701 -0.0141833 1.87853e-18)
(0.425757 -0.0160982 2.19567e-18)
(0.425732 -0.0182094 2.00153e-18)
(0.425617 -0.0205483 2.20771e-18)
(0.425396 -0.0231548 4.70335e-18)
(0.425047 -0.0260807 2.22447e-18)
(0.424546 -0.0293938 -2.61881e-18)
(0.423859 -0.0331837 2.72583e-18)
(0.422943 -0.0375713 -1.66945e-19)
(0.42174 -0.0427221 1.73689e-19)
(0.420173 -0.0488749 2.9311e-18)
(0.418135 -0.0563483 0)
(0.415475 -0.0657565 -2.01452e-19)
(0.412005 -0.0774946 3.62074e-18)
(0.407307 -0.0943882 0)
(0.401313 -0.113867 3.78702e-18)
(0.392333 -0.154888 -3.64162e-18)
(0.381102 -0.187213 -2.41894e-20)
(0.365452 -0.331344 2.32848e-18)
(0.421331 -0.00230641 -1.20011e-20)
(0.421915 -0.00275474 -1.22108e-20)
(0.422381 -0.00361377 -1.57768e-18)
(0.422714 -0.00460581 -5.13262e-20)
(0.422996 -0.00562032 5.26185e-20)
(0.423348 -0.00666215 -5.39207e-20)
(0.423701 -0.00777212 -1.71369e-18)
(0.423995 -0.00898133 0)
(0.424216 -0.0103013 0)
(0.424371 -0.0117421 0)
(0.424463 -0.0133182 -1.97672e-18)
(0.424487 -0.0150467 -1.19727e-19)
(0.424435 -0.0169469 -1.83981e-18)
(0.424297 -0.0190427 -2.17352e-18)
(0.424058 -0.0213651 -2.39045e-18)
(0.423697 -0.0239546 -2.33169e-18)
(0.42319 -0.0268633 1.67354e-19)
(0.422506 -0.0301588 2.35995e-18)
(0.421607 -0.0339304 -2.45842e-18)
(0.420439 -0.0382986 -1.71546e-19)
(0.418932 -0.043429 0)
(0.41699 -0.0495555 -6.23718e-18)
(0.414478 -0.0570118 1.9807e-19)
(0.411198 -0.0663436 -3.38238e-18)
(0.406894 -0.0781662 6.60636e-20)
(0.401003 -0.0945946 0)
(0.393244 -0.1149 -8.07817e-18)
(0.381353 -0.153453 8.1624e-18)
(0.365035 -0.188952 -4.46679e-18)
(0.340189 -0.324277 -2.57546e-18)
(0.421276 -0.00338214 0)
(0.421714 -0.00405372 -1.61699e-18)
(0.422108 -0.00490945 1.47231e-23)
(0.422389 -0.00579686 2.60707e-20)
(0.422624 -0.00669965 0)
(0.422852 -0.00767548 0)
(0.423047 -0.00875951 -1.80344e-18)
(0.42319 -0.0099596 0)
(0.423285 -0.0112757 1.19001e-19)
(0.423332 -0.0127135 -2.45043e-19)
(0.423326 -0.0142848 -8.26609e-23)
(0.423251 -0.0160052 -1.95072e-18)
(0.423093 -0.0178939 1.34783e-19)
(0.422837 -0.0199761 2.09658e-18)
(0.422465 -0.0222839 1.44619e-19)
(0.421954 -0.0248581 2.25709e-18)
(0.421278 -0.0277502 -2.48682e-18)
(0.420401 -0.0310276 -2.61023e-18)
(0.419275 -0.0347789 0)
(0.417838 -0.0391235 2.6781e-18)
(0.416006 -0.0442256 1.85859e-19)
(0.413663 -0.050316 3.31862e-18)
(0.41064 -0.0577278 -2.06266e-19)
(0.406704 -0.0669777 3.48331e-18)
(0.401491 -0.0787614 -3.69597e-18)
(0.394384 -0.0948 0)
(0.384663 -0.115446 4.31751e-18)
(0.36997 -0.151743 -4.43809e-18)
(0.348195 -0.189209 4.55618e-18)
(0.314299 -0.314527 1.28505e-19)
(0.420902 -0.00432011 0)
(0.421186 -0.00495821 1.61253e-18)
(0.421421 -0.00573184 0)
(0.421616 -0.006582 0)
(0.421786 -0.00750143 0)
(0.421941 -0.00851082 0)
(0.422068 -0.00962019 1.83033e-18)
(0.422151 -0.0108291 5.89116e-20)
(0.422182 -0.0121406 -6.0621e-20)
(0.422154 -0.0135654 0)
(0.422058 -0.0151189 0)
(0.421879 -0.016819 1.33299e-19)
(0.421606 -0.0186861 2.40082e-22)
(0.421223 -0.0207456 -2.42056e-18)
(0.420711 -0.0230289 0)
(0.420044 -0.0255759 -2.45588e-18)
(0.419191 -0.0284374 0)
(0.418109 -0.0316799 2.836e-18)
(0.416744 -0.0353908 -3.50433e-19)
(0.415023 -0.0396875 -2.74283e-18)
(0.412847 -0.0447314 1.55598e-18)
(0.41008 -0.0507483 0)
(0.406522 -0.0580658 0)
(0.401893 -0.0671763 0)
(0.395737 -0.0788059 1.98833e-18)
(0.387363 -0.0943993 -2.13731e-18)
(0.375627 -0.115024 0)
(0.358158 -0.149015 -2.46936e-18)
(0.33083 -0.187724 -2.71635e-18)
(0.28856 -0.301952 2.3828e-18)
(0.420377 -0.00513775 7.87388e-19)
(0.42057 -0.00579972 8.32153e-19)
(0.420717 -0.00658168 8.66272e-19)
(0.420857 -0.00744133 8.07891e-19)
(0.420978 -0.0083682 9.673e-19)
(0.421065 -0.00937142 8.51976e-19)
(0.42111 -0.0104616 9.34413e-19)
(0.421104 -0.0116459 -9.61827e-19)
(0.42104 -0.012933 6.18543e-20)
(0.420911 -0.014335 8.94888e-19)
(0.420707 -0.0158661 1.05597e-18)
(0.420416 -0.0175426 1.02399e-18)
(0.420024 -0.0193836 1.40904e-19)
(0.419511 -0.0214134 -1.1738e-18)
(0.418854 -0.0236631 1.52275e-19)
(0.418025 -0.0261716 -3.16535e-19)
(0.416986 -0.0289892 -1.16104e-18)
(0.41569 -0.0321808 -1.3869e-18)
(0.414074 -0.035832 0)
(0.412055 -0.040057 -1.91178e-19)
(0.409519 -0.0450126 1.70169e-20)
(0.406308 -0.0509181 2.11497e-19)
(0.402191 -0.0580901 1.59579e-18)
(0.39684 -0.0669981 3.61934e-19)
(0.389709 -0.07836 -8.43448e-20)
(0.380027 -0.0934301 2.3607e-18)
(0.366247 -0.113666 -1.50715e-19)
(0.346036 -0.145302 2.59079e-18)
(0.313194 -0.18431 3.04563e-18)
(0.263218 -0.286563 -2.74813e-18)
(0.419738 -0.0059096 -8.0994e-19)
(0.419856 -0.00657497 -8.16989e-19)
(0.419924 -0.00734507 -8.64568e-19)
(0.419996 -0.00818891 2.95936e-20)
(0.420047 -0.00910143 -1.76844e-18)
(0.420056 -0.0100905 -9.21927e-19)
(0.420016 -0.0111656 -2.01894e-18)
(0.419924 -0.0123341 1.18761e-19)
(0.419772 -0.0136036 -6.30306e-20)
(0.41955 -0.0149844 -2.08345e-18)
(0.419247 -0.0164895 5.02828e-21)
(0.418847 -0.018135 -1.04211e-18)
(0.418334 -0.0199401 1.08671e-18)
(0.417688 -0.0219291 -7.22448e-21)
(0.416881 -0.0241326 1.56402e-19)
(0.415883 -0.0265887 -1.62376e-19)
(0.414651 -0.0293459 1.35495e-18)
(0.413132 -0.0324671 1.4189e-18)
(0.411256 -0.0360348 1.87969e-19)
(0.408927 -0.0401591 1.19219e-18)
(0.406018 -0.0449907 -1.34705e-18)