/*--------------------------------*- C++ -*----------------------------------*\
  =========                 |
  \\      /  F ield         | OpenFOAM: The Open Source CFD Toolbox
   \\    /   O peration     | Website:  https://openfoam.org
    \\  /    A nd           | Version:  11
     \\/     M anipulation  |
\*---------------------------------------------------------------------------*/
FoamFile
{
    format      ascii;
    class       volVectorField;
    location    "2";
    object      U;
}
// * * * * * * * * * * * * * * * * * * * * * * * * * * * * * * * * * * * * * //

dimensions      [0 1 -1 0 0 0 0];

internalField   nonuniform List<vector> 
12600
(
(0.399657 0.000105534 0)
(0.399399 0.000178479 0)
(0.399009 0.000184131 0)
(0.398572 0.000183292 0)
(0.398152 0.000184088 0)
(0.397758 0.000182708 0)
(0.397384 0.000178721 0)
(0.397033 0.000173075 0)
(0.396714 0.000165496 0)
(0.396436 0.000154985 0)
(0.396208 0.000141235 0)
(0.396044 0.000124441 0)
(0.395958 0.000105661 0)
(0.395964 7.93766e-05 0)
(0.396084 4.31728e-05 0)
(0.396344 -3.07329e-06 0)
(0.396777 -5.84497e-05 0)
(0.397423 -0.000121556 0)
(0.39833 -0.000199178 0)
(0.399558 -0.000298745 0)
(0.401188 -0.000424904 0)
(0.403299 -0.000574283 0)
(0.405995 -0.000755267 0)
(0.409426 -0.000976726 0)
(0.413779 -0.00125047 0)
(0.419275 -0.00158743 0)
(0.426175 -0.00201423 0)
(0.434754 -0.00247448 0)
(0.445391 -0.00331601 0)
(0.460364 -0.00297523 0)
(0.400035 0.000150536 0)
(0.400178 0.000264375 0)
(0.400346 0.000240266 0)
(0.400434 0.00022408 0)
(0.400524 0.000214659 0)
(0.400634 0.000202576 0)
(0.400764 0.000185004 0)
(0.400915 0.000161173 0)
(0.401095 0.000131689 0)
(0.40131 9.82836e-05 0)
(0.401571 5.54071e-05 0)
(0.401889 3.15525e-06 0)
(0.402275 -6.10635e-05 0)
(0.402743 -0.000139186 0)
(0.40331 -0.000232999 0)
(0.403993 -0.000346082 0)
(0.404818 -0.000483802 0)
(0.405823 -0.000653133 0)
(0.406982 -0.000862701 0)
(0.408487 -0.00112238 0)
(0.410143 -0.00144239 0)
(0.412321 -0.00183879 0)
(0.415015 -0.00233241 0)
(0.418344 -0.00294756 0)
(0.422468 -0.00371126 0)
(0.427583 -0.00465229 0)
(0.433911 -0.00581208 0)
(0.441755 -0.00717231 0)
(0.451417 -0.00910464 0)
(0.463426 -0.00991877 0)
(0.400022 7.66302e-05 0)
(0.400105 0.000131081 0)
(0.400215 0.000117362 0)
(0.40031 0.000104836 0)
(0.400401 9.66372e-05 0)
(0.400505 8.1123e-05 0)
(0.400625 5.74522e-05 0)
(0.400766 2.53041e-05 0)
(0.40093 -1.8997e-05 0)
(0.401128 -7.56736e-05 0)
(0.401369 -0.000144297 0)
(0.401662 -0.000227106 0)
(0.402022 -0.000327171 0)
(0.402462 -0.000448184 0)
(0.402999 -0.000594475 0)
(0.403654 -0.000772313 0)
(0.404451 -0.000990303 0)
(0.405423 -0.00125183 0)
(0.40661 -0.0015767 0)
(0.40806 -0.0019739 0)
(0.409838 -0.00246028 0)
(0.412016 -0.00307855 0)
(0.414677 -0.00385642 0)
(0.417936 -0.00482502 0)
(0.421944 -0.00602427 0)
(0.426898 -0.00750199 0)
(0.432996 -0.00932885 0)
(0.440657 -0.0115196 0)
(0.449829 -0.0144533 0)
(0.462433 -0.0167083 0)
(0.400014 4.56905e-05 0)
(0.400073 0.000102026 0)
(0.400165 0.000110461 0)
(0.400255 9.92762e-05 0)
(0.400343 8.40144e-05 0)
(0.400442 6.28663e-05 0)
(0.400558 3.14738e-05 0)
(0.400693 -1.18263e-05 0)
(0.400853 -6.88159e-05 0)
(0.401045 -0.000140893 0)
(0.401278 -0.000231612 0)
(0.401563 -0.000343768 0)
(0.40191 -0.000480697 0)
(0.402335 -0.000647168 0)
(0.402854 -0.000849217 0)
(0.403487 -0.0010945 0)
(0.404257 -0.00139273 0)
(0.405195 -0.00175466 0)
(0.40634 -0.00220013 0)
(0.407737 -0.00274782 0)
(0.409445 -0.00342645 0)
(0.411535 -0.0042775 0)
(0.414092 -0.0053353 0)
(0.417228 -0.00664267 0)
(0.421083 -0.00826094 0)
(0.42585 -0.0102642 0)
(0.431712 -0.012758 0)
(0.439107 -0.0157772 0)
(0.44793 -0.0197572 0)
(0.460265 -0.0233792 0)
(0.40001 2.71558e-05 0)
(0.400052 6.40328e-05 0)
(0.400126 6.49923e-05 0)
(0.400209 4.52024e-05 0)
(0.400293 1.99148e-05 0)
(0.400387 -1.22323e-05 0)
(0.400498 -5.54115e-05 0)
(0.400629 -0.000111918 0)
(0.400783 -0.000184413 0)
(0.400967 -0.000276317 0)
(0.401191 -0.000391688 0)
(0.401464 -0.000533888 0)
(0.401797 -0.000706896 0)
(0.402204 -0.000916417 0)
(0.4027 -0.00116989 0)
(0.403304 -0.00147689 0)
(0.404039 -0.0018501 0)
(0.404933 -0.00230493 0)
(0.406023 -0.00286323 0)
(0.407351 -0.00355125 0)
(0.408972 -0.00440149 0)
(0.410955 -0.0054565 0)
(0.41338 -0.0067661 0)
(0.416354 -0.00839217 0)
(0.420005 -0.0104136 0)
(0.424522 -0.0129232 0)
(0.430074 -0.01605 0)
(0.437107 -0.0198699 0)
(0.445458 -0.0248223 0)
(0.457357 -0.0298525 0)
(0.400007 1.40665e-05 0)
(0.400039 3.32334e-05 0)
(0.400101 2.95538e-05 0)
(0.400176 8.35455e-06 0)
(0.400257 -2.0087e-05 0)
(0.400347 -5.59781e-05 0)
(0.400452 -0.000103856 0)
(0.400577 -0.000168686 0)
(0.400723 -0.00025344 0)
(0.400899 -0.00036157 0)
(0.401111 -0.000497429 0)
(0.401369 -0.000665431 0)
(0.401684 -0.000870616 0)
(0.402068 -0.00111967 0)
(0.402535 -0.00142142 0)
(0.403104 -0.00178736 0)
(0.403795 -0.00223248 0)
(0.404635 -0.00277552 0)
(0.405658 -0.00344126 0)
(0.406902 -0.00426068 0)
(0.408419 -0.00527186 0)
(0.410272 -0.00652467 0)
(0.412536 -0.00808078 0)
(0.415309 -0.0100139 0)
(0.418712 -0.0124164 0)
(0.422923 -0.0154015 0)
(0.428093 -0.0191251 0)
(0.434668 -0.0237085 0)
(0.442433 -0.0295911 0)
(0.453728 -0.0359889 0)
(0.400006 4.22636e-06 0)
(0.400031 8.42614e-06 0)
(0.400083 -1.9689e-06 0)
(0.400151 -2.74355e-05 0)
(0.400226 -6.27554e-05 0)
(0.400311 -0.000106899 0)
(0.40041 -0.000164531 0)
(0.400526 -0.000240824 0)
(0.400664 -0.000339703 0)
(0.400829 -0.000465366 0)
(0.401028 -0.000622716 0)
(0.401269 -0.000816971 0)
(0.401562 -0.00105401 0)
(0.40192 -0.00134138 0)
(0.402354 -0.00168912 0)
(0.402882 -0.00211042 0)
(0.403523 -0.00262237 0)
(0.4043 -0.00324667 0)
(0.405244 -0.00401129 0)
(0.406391 -0.0049515 0)
(0.407787 -0.00611115 0)
(0.409489 -0.00754615 0)
(0.411565 -0.00932615 0)
(0.414106 -0.0115365 0)
(0.417219 -0.0142853 0)
(0.42107 -0.0177065 0)
(0.425788 -0.0219801 0)
(0.43181 -0.0272728 0)
(0.43888 -0.0340185 0)
(0.449399 -0.0417242 0)
(0.400005 -3.25428e-06 0)
(0.400026 -1.19478e-05 0)
(0.40007 -3.03268e-05 0)
(0.40013 -6.10637e-05 0)
(0.4002 -0.000101938 0)
(0.400279 -0.000152704 0)
(0.400371 -0.00021764 0)
(0.40048 -0.000302391 0)
(0.400608 -0.000412117 0)
(0.40076 -0.00055185 0)
(0.400944 -0.000727061 0)
(0.401166 -0.000943671 0)
(0.401435 -0.00120834 0)
(0.401763 -0.00152944 0)
(0.40216 -0.00191807 0)
(0.402641 -0.00238891 0)
(0.403224 -0.00296101 0)
(0.40393 -0.00365867 0)
(0.404786 -0.00451275 0)
(0.405823 -0.00556221 0)
(0.407083 -0.00685568 0)
(0.408615 -0.0084546 0)
(0.41048 -0.0104363 0)
(0.412758 -0.0128973 0)
(0.415543 -0.0159593 0)
(0.418982 -0.0197745 0)
(0.423184 -0.0245449 0)
(0.428564 -0.0304817 0)
(0.434834 -0.0380149 0)
(0.444396 -0.0469523 0)
(0.400004 -9.2381e-06 0)
(0.400022 -2.88676e-05 0)
(0.40006 -5.53151e-05 0)
(0.400114 -9.16416e-05 0)
(0.400177 -0.000137814 0)
(0.40025 -0.000194759 0)
(0.400335 -0.000266818 0)
(0.400434 -0.00036011 0)
(0.400551 -0.00048069 0)
(0.40069 -0.000634307 0)
(0.400856 -0.000826885 0)
(0.401057 -0.0010648 0)
(0.4013 -0.00135531 0)
(0.401594 -0.00170753 0)
(0.40195 -0.00213355 0)
(0.40238 -0.00264936 0)
(0.4029 -0.00327572 0)
(0.403527 -0.00403905 0)
(0.404286 -0.00497275 0)
(0.405203 -0.00611892 0)
(0.406313 -0.00753028 0)
(0.407659 -0.00927329 0)
(0.409292 -0.0114319 0)
(0.411281 -0.0141114 0)
(0.413703 -0.0174456 0)
(0.416685 -0.0216024 0)
(0.420315 -0.0268044 0)
(0.42497 -0.033305 0)
(0.430341 -0.0415305 0)
(0.438759 -0.0515932 0)
(0.400003 -1.43338e-05 0)
(0.400018 -4.36133e-05 0)
(0.400051 -7.75267e-05 0)
(0.400099 -0.000119373 0)
(0.400157 -0.000170574 0)
(0.400223 -0.000233135 0)
(0.4003 -0.000311693 0)
(0.400389 -0.000412666 0)
(0.400494 -0.000542685 0)
(0.400619 -0.000708109 0)
(0.400767 -0.000915354 0)
(0.400945 -0.00117128 0)
(0.401159 -0.00148374 0)
(0.401417 -0.00186253 0)
(0.401729 -0.00232056 0)
(0.402103 -0.00287492 0)
(0.402554 -0.00354777 0)
(0.403097 -0.0043673 0)
(0.40375 -0.00536906 0)
(0.404537 -0.00659774 0)
(0.405486 -0.00810938 0)
(0.406632 -0.00997452 0)
(0.408016 -0.0122824 0)
(0.409692 -0.0151454 0)
(0.411723 -0.0187071 0)
(0.414211 -0.0231489 0)
(0.417218 -0.0287108 0)
(0.421074 -0.0356837 0)
(0.425456 -0.0444906 0)
(0.432546 -0.0555394 0)
(0.400003 -1.87236e-05 0)
(0.400016 -5.6231e-05 0)
(0.400044 -9.69458e-05 0)
(0.400086 -0.000144145 0)
(0.400138 -0.000200118 0)
(0.400197 -0.000267727 0)
(0.400265 -0.000351962 0)
(0.400345 -0.000459541 0)
(0.400438 -0.00059763 0)
(0.400546 -0.000773182 0)
(0.400675 -0.000993067 0)
(0.400829 -0.00126452 0)
(0.401012 -0.00159582 0)
(0.401232 -0.00199728 0)
(0.401496 -0.00248249 0)
(0.401811 -0.00306943 0)
(0.402189 -0.00378136 0)
(0.402642 -0.00464788 0)
(0.403184 -0.00570619 0)
(0.403834 -0.00700294 0)
(0.404612 -0.00859664 0)
(0.405546 -0.0105609 0)
(0.406667 -0.0129888 0)
(0.408013 -0.015998 0)
(0.40963 -0.0197392 0)
(0.411593 -0.0244039 0)
(0.413937 -0.0302452 0)
(0.416931 -0.0375859 0)
(0.420251 -0.0468437 0)
(0.425838 -0.0587018 0)
(0.400002 -2.24711e-05 0)
(0.400014 -6.70931e-05 0)
(0.400038 -0.000113934 0)
(0.400075 -0.000166088 0)
(0.40012 -0.000226356 0)
(0.400172 -0.000298298 0)
(0.400232 -0.000387343 0)
(0.400301 -0.00050051 0)
(0.400381 -0.00064534 0)
(0.400473 -0.000829204 0)
(0.400582 -0.00105934 0)
(0.40071 -0.00134329 0)
(0.400861 -0.00168968 0)
(0.401041 -0.00210925 0)
(0.401254 -0.00261611 0)
(0.401508 -0.00322888 0)
(0.401809 -0.00397166 0)
(0.402168 -0.00487503 0)
(0.402594 -0.00597735 0)
(0.4031 -0.00732664 0)
(0.403701 -0.00898302 0)
(0.404415 -0.011022 0)
(0.405262 -0.0135392 0)
(0.406266 -0.0166552 0)
(0.407452 -0.0205249 0)
(0.408869 -0.0253464 0)
(0.410521 -0.0313808 0)
(0.412607 -0.0389741 0)
(0.414807 -0.0485364 0)
(0.41874 -0.0609897 0)
(0.400002 -2.56762e-05 0)
(0.400012 -7.64418e-05 0)
(0.400033 -0.00012866 0)
(0.400064 -0.000185231 0)
(0.400104 -0.00024927 0)
(0.400149 -0.000324867 0)
(0.4002 -0.000417829 0)
(0.400258 -0.000535417 0)
(0.400324 -0.000685453 0)
(0.4004 -0.000875651 0)
(0.400487 -0.00111355 0)
(0.400588 -0.00140694 0)
(0.400706 -0.00176467 0)
(0.400844 -0.00219777 0)
(0.401006 -0.0027207 0)
(0.401196 -0.00335252 0)
(0.401418 -0.00411785 0)
(0.401679 -0.00504785 0)
(0.401986 -0.00618156 0)
(0.402345 -0.00756768 0)
(0.402764 -0.00926709 0)
(0.403253 -0.0113561 0)
(0.403819 -0.013931 0)
(0.404473 -0.0171135 0)
(0.40522 -0.0210596 0)
(0.406078 -0.0259691 0)
(0.407023 -0.0321056 0)
(0.408171 -0.0398284 0)
(0.409216 -0.0495338 0)
(0.411382 -0.0623337 0)
(0.400002 -2.84128e-05 0)
(0.40001 -8.4442e-05 0)
(0.400028 -0.000141309 0)
(0.400055 -0.000201703 0)
(0.400088 -0.000268906 0)
(0.400126 -0.000347387 0)
(0.400169 -0.000443279 0)
(0.400216 -0.00056406 0)
(0.400269 -0.000717749 0)
(0.400327 -0.000912281 0)
(0.400393 -0.0011554 0)
(0.400466 -0.00145505 0)
(0.40055 -0.00182023 0)
(0.400645 -0.00226213 0)
(0.400754 -0.00279537 0)
(0.400878 -0.00343924 0)
(0.40102 -0.00421855 0)
(0.401183 -0.00516471 0)
(0.401367 -0.00631688 0)
(0.401576 -0.00772383 0)
(0.401811 -0.00944631 0)
(0.402072 -0.0115603 0)
(0.402356 -0.0141612 0)
(0.402658 -0.0173695 0)
(0.402964 -0.021339 0)
(0.403261 -0.0262669 0)
(0.403497 -0.0324124 0)
(0.4037 -0.0401367 0)
(0.403583 -0.0498145 0)
(0.403918 -0.0626845 0)
(0.400002 -3.0737e-05 0)
(0.400008 -9.12424e-05 0)
(0.400024 -0.00015205 0)
(0.400046 -0.000215616 0)
(0.400074 -0.000285302 0)
(0.400105 -0.000365861 0)
(0.400139 -0.000463686 0)
(0.400175 -0.000586399 0)
(0.400214 -0.000742124 0)
(0.400255 -0.000938917 0)
(0.400298 -0.00118464 0)
(0.400345 -0.00148733 0)
(0.400394 -0.00185601 0)
(0.400446 -0.00230189 0)
(0.400501 -0.00283964 0)
(0.400559 -0.00348849 0)
(0.40062 -0.00427321 0)
(0.400682 -0.00522502 0)
(0.400745 -0.00638277 0)
(0.400804 -0.00779462 0)
(0.400855 -0.00952039 0)
(0.400888 -0.0116345 0)
(0.400892 -0.0142301 0)
(0.400845 -0.0174241 0)
(0.400715 -0.021365 0)
(0.400461 -0.0262427 0)
(0.4 -0.032305 0)
(0.399274 -0.0399021 0)
(0.398016 -0.049378 0)
(0.396519 -0.0620256 0)
(0.400001 -3.27003e-05 0)
(0.400007 -9.69798e-05 0)
(0.40002 -0.000161051 0)
(0.400039 -0.000227113 0)
(0.400061 -0.000298557 0)
(0.400085 -0.000380351 0)
(0.40011 -0.000479076 0)
(0.400136 -0.000602423 0)
(0.400161 -0.000758534 0)
(0.400184 -0.000955495 0)
(0.400206 -0.0012012 0)
(0.400224 -0.00150367 0)
(0.400239 -0.00187187 0)
(0.400247 -0.00231693 0)
(0.400249 -0.00285336 0)
(0.400241 -0.00350015 0)
(0.400221 -0.00428173 0)
(0.400185 -0.00522878 0)
(0.400126 -0.00637936 0)
(0.400036 -0.00778045 0)
(0.399905 -0.00949012 0)
(0.399715 -0.0115802 0)
(0.399444 -0.0141402 0)
(0.399056 -0.0172811 0)
(0.398504 -0.0211435 0)
(0.397717 -0.0259052 0)
(0.396588 -0.0317956 0)
(0.394972 -0.0391415 0)
(0.392626 -0.0482457 0)
(0.389364 -0.0603769 0)
(0.400001 -3.43548e-05 0)
(0.400006 -0.000101796 0)
(0.400016 -0.000168493 0)
(0.400032 -0.00023636 0)
(0.400049 -0.000308794 0)
(0.400067 -0.000390949 0)
(0.400083 -0.000489527 0)
(0.400098 -0.000612201 0)
(0.400109 -0.000767037 0)
(0.400116 -0.000962065 0)
(0.400116 -0.00120512 0)
(0.400107 -0.00150413 0)
(0.400087 -0.00186792 0)
(0.400053 -0.00230738 0)
(0.400002 -0.00283672 0)
(0.399929 -0.00347451 0)
(0.399829 -0.00424454 0)
(0.399694 -0.00517663 0)
(0.399516 -0.00630761 0)
(0.399281 -0.00768274 0)
(0.398972 -0.00935763 0)
(0.398566 -0.0114006 0)
(0.398028 -0.013896 0)
(0.397314 -0.0169476 0)
(0.396359 -0.0206848 0)
(0.395067 -0.0252695 0)
(0.39331 -0.0309064 0)
(0.390868 -0.037887 0)
(0.387518 -0.0464623 0)
(0.382634 -0.0577993 0)
(0.400001 -3.57592e-05 0)
(0.400005 -0.000105849 0)
(0.400014 -0.000174582 0)
(0.400026 -0.000243548 0)
(0.400039 -0.00031617 0)
(0.40005 -0.000397792 0)
(0.400059 -0.000495173 0)
(0.400063 -0.000615867 0)
(0.400061 -0.000767775 0)
(0.400051 -0.000958788 0)
(0.400029 -0.0011966 0)
(0.399994 -0.00148896 0)
(0.39994 -0.00184444 0)
(0.399864 -0.00227361 0)
(0.399761 -0.00279023 0)
(0.399624 -0.00341225 0)
(0.399446 -0.00416257 0)
(0.399217 -0.00506984 0)
(0.398923 -0.00616926 0)
(0.398548 -0.00750389 0)
(0.398067 -0.00912626 0)
(0.397453 -0.0111004 0)
(0.396662 -0.0135044 0)
(0.395639 -0.0164332 0)
(0.394305 -0.0200029 0)
(0.392547 -0.0243562 0)
(0.390216 -0.0296679 0)
(0.387031 -0.0361837 0)
(0.382788 -0.0440946 0)
(0.376493 -0.054395 0)
(0.400001 -3.69842e-05 0)
(0.400004 -0.000109329 0)
(0.400012 -0.00017956 0)
(0.400021 -0.000248901 0)
(0.40003 -0.000320875 0)
(0.400036 -0.000401057 0)
(0.400036 -0.000496198 0)
(0.400031 -0.000613618 0)
(0.400016 -0.000760965 0)
(0.39999 -0.000945919 0)
(0.399948 -0.00117596 0)
(0.399886 -0.00145856 0)
(0.399799 -0.00180196 0)
(0.399683 -0.00221629 0)
(0.39953 -0.00271474 0)
(0.399332 -0.00331444 0)
(0.399079 -0.00403721 0)
(0.398758 -0.00491022 0)
(0.398353 -0.00596673 0)
(0.397843 -0.00724715 0)
(0.3972 -0.00880041 0)
(0.396388 -0.0106856 0)
(0.395359 -0.0129737 0)
(0.394048 -0.0157497 0)
(0.392367 -0.019115 0)
(0.390185 -0.0231906 0)
(0.387343 -0.0281178 0)
(0.383516 -0.0340888 0)
(0.378516 -0.0412289 0)
(0.371077 -0.0503032 0)
(0.400001 -3.81212e-05 0)
(0.400004 -0.000112478 0)
(0.400011 -0.000183715 0)
(0.400019 -0.000252668 0)
(0.400024 -0.000323122 0)
(0.400024 -0.000400965 0)
(0.400017 -0.000492837 0)
(0.400002 -0.000605708 0)
(0.399976 -0.000746907 0)
(0.399934 -0.000923834 0)
(0.399872 -0.00114366 0)
(0.399785 -0.0014135 0)
(0.399667 -0.00174118 0)
(0.399512 -0.00213631 0)
(0.399311 -0.00261137 0)
(0.399054 -0.00318253 0)
(0.39873 -0.0038703 0)
(0.398322 -0.00470013 0)
(0.397812 -0.00570305 0)
(0.397175 -0.0069165 0)
(0.396378 -0.00838539 0)
(0.395382 -0.0101634 0)
(0.394133 -0.0123139 0)
(0.392558 -0.0149112 0)
(0.390563 -0.0180411 0)
(0.388007 -0.0218016 0)
(0.384723 -0.026299 0)
(0.380365 -0.0316679 0)
(0.37476 -0.0379662 0)
(0.366484 -0.0456917 0)
(0.400001 -3.9293e-05 0)
(0.400004 -0.000115607 0)
(0.400011 -0.000187391 0)
(0.400018 -0.000255123 0)
(0.40002 -0.000323148 0)
(0.400015 -0.000397775 0)
(0.400002 -0.000485395 0)
(0.399978 -0.000592475 0)
(0.39994 -0.000725959 0)
(0.399883 -0.000892932 0)
(0.399802 -0.0011002 0)
(0.399692 -0.00135445 0)
(0.399545 -0.00166299 0)
(0.399353 -0.00203483 0)
(0.399107 -0.0024816 0)
(0.398795 -0.00301838 0)
(0.398403 -0.00366421 0)
(0.397914 -0.00444262 0)
(0.397305 -0.00538214 0)
(0.396549 -0.00651696 0)
(0.395611 -0.00788771 0)
(0.394446 -0.00954228 0)
(0.392995 -0.0115363 0)
(0.391182 -0.013933 0)
(0.388908 -0.0168026 0)
(0.386029 -0.0202202 0)
(0.382378 -0.0242575 0)
(0.377604 -0.0289912 0)
(0.371552 -0.034415 0)
(0.362763 -0.0407452 0)
(0.400001 -4.06743e-05 0)
(0.400005 -0.000119142 0)
(0.400013 -0.000191008 0)
(0.40002 -0.000256558 0)
(0.40002 -0.000321204 0)
(0.40001 -0.00039176 0)
(0.399991 -0.000474166 0)
(0.399959 -0.000574282 0)
(0.39991 -0.000698627 0)
(0.39984 -0.000853885 0)
(0.399742 -0.00104639 0)
(0.399609 -0.0012823 0)
(0.399435 -0.00156836 0)
(0.399209 -0.00191289 0)
(0.398921 -0.00232664 0)
(0.398557 -0.00282344 0)
(0.398103 -0.00342073 0)
(0.397538 -0.00413997 0)
(0.396838 -0.00500699 0)
(0.395974 -0.00605255 0)
(0.394906 -0.00731284 0)
(0.393586 -0.00882987 0)
(0.391954 -0.0106514 0)
(0.389931 -0.0128301 0)
(0.387415 -0.0154209 0)
(0.384265 -0.0184773 0)
(0.380318 -0.0220391 0)
(0.375241 -0.0261288 0)
(0.368898 -0.0306846 0)
(0.359909 -0.0356506 0)
(0.400001 -4.25285e-05 0)
(0.400007 -0.000123664 0)
(0.400018 -0.000195052 0)
(0.400025 -0.000257305 0)
(0.400023 -0.000317602 0)
(0.40001 -0.000383206 0)
(0.399985 -0.000459376 0)
(0.399945 -0.000551376 0)
(0.399887 -0.000665331 0)
(0.399804 -0.000807415 0)
(0.399691 -0.000983375 0)
(0.399538 -0.00119874 0)
(0.399338 -0.00145959 0)
(0.399081 -0.00177356 0)
(0.398754 -0.00215042 0)
(0.398344 -0.00260262 0)
(0.397833 -0.00314582 0)
(0.397199 -0.00379922 0)
(0.396417 -0.00458584 0)
(0.395453 -0.00553288 0)
(0.394268 -0.00667198 0)
(0.392811 -0.00803933 0)
(0.39102 -0.00967506 0)
(0.388813 -0.0116217 0)
(0.386092 -0.0139205 0)
(0.38272 -0.0166055 0)
(0.378545 -0.0196894 0)
(0.373268 -0.0231481 0)
(0.366776 -0.0268772 0)
(0.357867 -0.0305825 0)
(0.400002 -4.52869e-05 0)
(0.400011 -0.000129976 0)
(0.400026 -0.000199976 0)
(0.400035 -0.000257649 0)
(0.400032 -0.000312884 0)
(0.400015 -0.000372885 0)
(0.399985 -0.000441742 0)
(0.399939 -0.000524113 0)
(0.399873 -0.0006258 0)
(0.399779 -0.000752461 0)
(0.39965 -0.000909289 0)
(0.39948 -0.00110117 0)
(0.399257 -0.00133348 0)
(0.398972 -0.00161302 0)
(0.39861 -0.00194851 0)
(0.398158 -0.00235102 0)
(0.397595 -0.00283437 0)
(0.3969 -0.00341544 0)
(0.396044 -0.00411433 0)
(0.394993 -0.00495458 0)
(0.393705 -0.00596336 0)
(0.392128 -0.00717121 0)
(0.390198 -0.00861108 0)
(0.387835 -0.0103163 0)
(0.384943 -0.0123161 0)
(0.381396 -0.0146283 0)
(0.377053 -0.0172442 0)
(0.371665 -0.0201041 0)
(0.365141 -0.0230781 0)
(0.356532 -0.0256882 0)
(0.400003 -4.97124e-05 0)
(0.400017 -0.000139324 0)
(0.400039 -0.000206079 0)
(0.400052 -0.000257222 0)
(0.400047 -0.0003068 0)
(0.400027 -0.000361336 0)
(0.399994 -0.000423283 0)
(0.399943 -0.000496552 0)
(0.399869 -0.000586416 0)
(0.399765 -0.000697739 0)
(0.399624 -0.000835043 0)
(0.399438 -0.00100249 0)
(0.399195 -0.00120492 0)
(0.398885 -0.00144832 0)
(0.398493 -0.00174009 0)
(0.398003 -0.00208969 0)
(0.397396 -0.00250907 0)
(0.396647 -0.00301273 0)
(0.395727 -0.0036178 0)
(0.3946 -0.00434418 0)
(0.393222 -0.00521457 0)
(0.391542 -0.0062541 0)
(0.389494 -0.00748912 0)
(0.387001 -0.00894488 0)
(0.383971 -0.0106407 0)
(0.380288 -0.0125819 0)
(0.375829 -0.0147451 0)
(0.370397 -0.0170474 0)
(0.363926 -0.0193557 0)
(0.35577 -0.0210786 0)
(0.400006 -5.71346e-05 0)
(0.400029 -0.000153861 0)
(0.400061 -0.000214803 0)
(0.400077 -0.000256289 0)
(0.400071 -0.000296872 0)
(0.400048 -0.000341885 0)
(0.400011 -0.00039278 0)
(0.399956 -0.000453233 0)
(0.399875 -0.000527902 0)
(0.399763 -0.000620702 0)
(0.399612 -0.000735587 0)
(0.399412 -0.000875285 0)
(0.399153 -0.00104401 0)
(0.398821 -0.00124732 0)
(0.398404 -0.0014915 0)
(0.397882 -0.00178431 0)
(0.397237 -0.00213558 0)
(0.396442 -0.00255728 0)
(0.395468 -0.00306353 0)
(0.394277 -0.00367067 0)
(0.392825 -0.00439711 0)
(0.391058 -0.00526291 0)
(0.388914 -0.00628848 0)
(0.386316 -0.00749218 0)
(0.383178 -0.00888586 0)
(0.379396 -0.0104658 0)
(0.374867 -0.0122012 0)
(0.369441 -0.0139959 0)
(0.363081 -0.0157414 0)
(0.355458 -0.016811 0)
(0.40001 -6.93139e-05 0)
(0.400048 -0.000174643 0)
(0.400096 -0.000230788 0)
(0.400117 -0.000268481 0)
(0.40011 -0.00030616 0)
(0.400086 -0.000345945 0)
(0.400046 -0.000388968 0)
(0.399987 -0.00043905 0)
(0.399901 -0.000500203 0)
(0.399782 -0.000574961 0)
(0.399622 -0.000667684 0)
(0.399412 -0.000780136 0)
(0.399139 -0.000915224 0)
(0.39879 -0.0010773 0)
(0.398351 -0.00127159 0)
(0.397805 -0.00150453 0)
(0.397129 -0.00178401 0)
(0.396298 -0.00211947 0)
(0.39528 -0.00252197 0)
(0.394039 -0.00300424 0)
(0.392529 -0.00358054 0)
(0.390696 -0.00426618 0)
(0.38848 -0.00507632 0)
(0.385807 -0.00602372 0)
(0.382596 -0.00711506 0)
(0.37876 -0.00834114 0)
(0.374214 -0.00967091 0)
(0.368854 -0.0110031 0)
(0.362678 -0.0122864 0)
(0.355641 -0.0129317 0)
(0.400017 -9.37427e-05 0)
(0.400079 -0.000183023 0)
(0.400143 -0.000210944 0)
(0.400168 -0.000234379 0)
(0.40016 -0.000262874 0)
(0.400136 -0.000292501 0)
(0.400095 -0.000324317 0)
(0.400034 -0.000361791 0)
(0.399944 -0.000407539 0)
(0.39982 -0.000463819 0)
(0.399654 -0.000531601 0)
(0.399435 -0.000613927 0)
(0.399152 -0.000713692 0)
(0.39879 -0.000833556 0)
(0.398336 -0.000977209 0)
(0.39777 -0.00114945 0)
(0.397071 -0.001356 0)
(0.396213 -0.00160369 0)
(0.395165 -0.0019006 0)
(0.393888 -0.00225605 0)
(0.392339 -0.00268037 0)
(0.390465 -0.00318454 0)
(0.388207 -0.00377927 0)
(0.385499 -0.00447334 0)
(0.382268 -0.00527096 0)
(0.37844 -0.00616212 0)
(0.373959 -0.00712026 0)
(0.368743 -0.00804232 0)
(0.362874 -0.00895186 0)
(0.356186 -0.0092425 0)
(0.400026 -0.000161381 0)
(0.400176 -0.000308085 0)
(0.400259 -0.000298205 0)
(0.400257 -0.000303551 0)
(0.400234 -0.000319749 0)
(0.400198 -0.000337473 0)
(0.400143 -0.000356524 0)
(0.40006 -0.000379732 0)
(0.399945 -0.00040904 0)
(0.39979 -0.000441192 0)
(0.399589 -0.000489301 0)
(0.399332 -0.000537857 0)
(0.399005 -0.000599107 0)
(0.398598 -0.000673596 0)
(0.398092 -0.000763102 0)
(0.39747 -0.000871161 0)
(0.396709 -0.00100177 0)
(0.395782 -0.00115943 0)
(0.394657 -0.00134941 0)
(0.393296 -0.00157786 0)
(0.391655 -0.00185168 0)
(0.389682 -0.00217826 0)
(0.387319 -0.00256479 0)
(0.384498 -0.00301719 0)
(0.381149 -0.00353796 0)
(0.377196 -0.00411969 0)
(0.372581 -0.00474566 0)
(0.367221 -0.00532466 0)
(0.361352 -0.00592935 0)
(0.353394 -0.00549764 0)
(0.399648 -0.000112109 0)
(0.399358 -0.000187922 0)
(0.39891 -0.000201735 0)
(0.398388 -0.000209075 0)
(0.39785 -0.000218391 0)
(0.397301 -0.000227086 0)
(0.39673 -0.000235588 0)
(0.39613 -0.000244905 0)
(0.395494 -0.00025568 0)
(0.394817 -0.000269202 0)
(0.394088 -0.000283788 0)
(0.393295 -0.000302041 0)
(0.392427 -0.000325247 0)
(0.391468 -0.000353454 0)
(0.390399 -0.000387121 0)
(0.389197 -0.000427326 0)
(0.387834 -0.000475545 0)
(0.386277 -0.000533661 0)
(0.384486 -0.000603965 0)
(0.382412 -0.000689091 0)
(0.379998 -0.000791959 0)
(0.377175 -0.000915713 0)
(0.373866 -0.00106352 0)
(0.369982 -0.00123794 0)
(0.365431 -0.00144003 0)
(0.360123 -0.00166698 0)
(0.353986 -0.00191659 0)
(0.346994 -0.00213648 0)
(0.339378 -0.0024246 0)
(0.32837 -0.00170215 0)
(0.466372 -0.00684172 7.8538e-21)
(0.472404 -0.0105463 -1.19146e-17)
(0.477756 -0.0147314 1.19887e-17)
(0.482028 -0.0193531 6.03477e-18)
(0.485704 -0.0243551 4.56372e-18)
(0.489063 -0.0297235 9.21805e-18)
(0.492184 -0.0354938 4.63936e-18)
(0.495124 -0.0417226 1.25104e-17)
(0.497947 -0.0484567 6.32447e-18)
(0.500697 -0.0557283 3.18328e-18)
(0.503382 -0.0635653 -3.22409e-18)
(0.505988 -0.0720018 6.49417e-18)
(0.508497 -0.081082 3.31007e-18)
(0.510895 -0.0908624 3.33441e-18)
(0.513175 -0.101413 6.73462e-18)
(0.515334 -0.112822 3.4225e-18)
(0.517376 -0.125195 1.03244e-17)
(0.519304 -0.138662 0)
(0.521123 -0.153382 0)
(0.522839 -0.169553 3.5311e-18)
(0.524464 -0.187422 -2.93158e-20)
(0.526009 -0.207303 3.62229e-18)
(0.527493 -0.22959 0)
(0.528927 -0.254812 7.26546e-18)
(0.530393 -0.283556 3.63516e-18)
(0.531575 -0.317078 -3.69575e-18)
(0.534094 -0.354574 3.62364e-18)
(0.531407 -0.407059 3.63266e-18)
(0.544411 -0.440489 1.05615e-17)
(0.513046 -0.564891 -3.36848e-18)
(0.472506 -0.0145995 -5.99019e-18)
(0.476187 -0.0183137 6.78741e-18)
(0.479201 -0.0228057 -6.84743e-18)
(0.481641 -0.0276942 0)
(0.483917 -0.0328949 -6.21814e-18)
(0.486213 -0.0384518 -6.2664e-18)
(0.488523 -0.0444297 -1.58284e-18)
(0.49082 -0.0508683 -1.12058e-17)
(0.49309 -0.057785 -6.46156e-18)
(0.495308 -0.0651963 -6.55501e-18)
(0.497435 -0.0731306 3.30367e-18)
(0.499437 -0.0816298 -3.34954e-18)
(0.501291 -0.0907464 -6.75194e-18)
(0.502987 -0.100543 -6.83085e-18)
(0.504515 -0.111094 -6.91218e-18)
(0.505869 -0.122488 -6.99568e-18)
(0.507039 -0.13483 -1.42108e-17)
(0.508012 -0.148249 3.58986e-18)
(0.508772 -0.162903 -3.64976e-18)
(0.509299 -0.178986 -1.10852e-17)
(0.509572 -0.19674 2.19646e-20)
(0.509561 -0.216468 -4.45147e-20)
(0.509224 -0.23855 -3.23358e-20)
(0.508516 -0.263481 -1.16208e-17)
(0.507365 -0.291843 -7.81804e-18)
(0.505537 -0.324684 -3.85686e-18)
(0.503731 -0.361849 9.08946e-20)
(0.497299 -0.41077 -1.08529e-19)
(0.503025 -0.447931 -1.14788e-17)
(0.46653 -0.561727 0)
(0.470225 -0.0217902 0)
(0.472683 -0.0255124 0)
(0.474854 -0.0300433 0)
(0.476943 -0.0350036 -7.84998e-19)
(0.479061 -0.0402897 7.14095e-18)
(0.481193 -0.0459268 -1.60364e-18)
(0.483273 -0.051953 1.62433e-18)
(0.485251 -0.0583897 6.55466e-18)
(0.487105 -0.0652589 -1.65843e-18)
(0.488816 -0.0725952 8.38833e-18)
(0.490369 -0.0804437 3.39699e-18)
(0.491752 -0.0888545 -3.44675e-18)
(0.492956 -0.0978816 3.48341e-18)
(0.493971 -0.107586 -3.53729e-18)
(0.494781 -0.118038 -7.18462e-18)
(0.495366 -0.129325 7.28521e-18)
(0.495699 -0.141551 7.33673e-18)
(0.49575 -0.154841 0)
(0.495483 -0.169351 0)
(0.494855 -0.185268 7.64792e-18)
(0.493809 -0.202827 0)
(0.492277 -0.222316 1.18692e-17)
(0.490162 -0.244098 4.01762e-18)
(0.487354 -0.268631 8.0573e-18)
(0.483663 -0.296484 1.2223e-17)
(0.478855 -0.32852 4.20061e-18)
(0.472987 -0.365024 0)
(0.462976 -0.410887 1.6733e-17)
(0.460572 -0.450778 0)
(0.420942 -0.553234 8.23124e-18)
(0.467721 -0.0292558 0)
(0.46969 -0.0331543 0)
(0.471425 -0.0377627 0)
(0.473198 -0.0427466 -6.43266e-18)
(0.474962 -0.0480295 0)
(0.476624 -0.0536435 0)
(0.478152 -0.0596322 0)
(0.47954 -0.0660258 6.747e-18)
(0.480789 -0.0728532 0)
(0.481888 -0.0801494 0)
(0.482823 -0.0879535 0)
(0.483577 -0.096308 -7.11536e-18)
(0.484128 -0.105261 -7.21722e-18)
(0.48445 -0.114872 -3.64665e-18)
(0.484516 -0.125211 -4.11649e-20)
(0.484292 -0.136363 -7.48809e-18)
(0.48374 -0.148432 8.83236e-21)
(0.482816 -0.161538 1.16795e-17)
(0.481464 -0.175829 3.93771e-18)
(0.479618 -0.191486 -4.01515e-18)
(0.477192 -0.208727 -4.06796e-18)
(0.474079 -0.227822 -4.08896e-18)
(0.470132 -0.249108 -4.20286e-18)
(0.465188 -0.272996 1.29371e-17)
(0.458952 -0.300023 0)
(0.451189 -0.33088 -1.33028e-17)
(0.441446 -0.366091 -4.51534e-18)
(0.427908 -0.408888 2.45027e-19)
(0.41771 -0.449335 -1.38221e-17)
(0.376158 -0.540442 5.08023e-19)
(0.464326 -0.0363342 0)
(0.465789 -0.0402717 6.42307e-18)
(0.466999 -0.0448499 -8.11055e-19)
(0.468314 -0.0497973 1.39662e-17)
(0.469622 -0.0550608 0)
(0.470794 -0.0606656 0)
(0.471813 -0.0666429 6.83832e-18)
(0.472691 -0.0730145 -6.90192e-18)
(0.473421 -0.0798034 0)
(0.47398 -0.0870397 0)
(0.474343 -0.0947607 0)
(0.474484 -0.103009 7.30121e-18)
(0.474377 -0.111836 7.41211e-18)
(0.473991 -0.121301 -3.77296e-18)
(0.473293 -0.131473 1.14892e-17)
(0.472241 -0.142434 0)
(0.470786 -0.154282 7.97212e-18)
(0.46887 -0.16713 -1.2127e-17)
(0.466419 -0.181118 -4.11823e-18)
(0.463342 -0.196411 0)
(0.459528 -0.213211 0)
(0.454834 -0.231764 0)
(0.449073 -0.252374 0)
(0.442028 -0.275405 -4.48415e-18)
(0.433329 -0.30134 -4.64702e-18)
(0.422719 -0.330723 4.66468e-18)
(0.40937 -0.364211 4.85561e-18)
(0.39246 -0.403784 -9.73085e-18)
(0.37504 -0.443451 9.92817e-18)
(0.332579 -0.523478 -9.86363e-18)
(0.460136 -0.0430251 -6.48273e-18)
(0.461134 -0.0470086 -6.13711e-18)
(0.461863 -0.0515913 -1.24508e-18)
(0.462748 -0.0565328 -5.03548e-18)
(0.463629 -0.0617837 -9.10789e-22)
(0.464344 -0.0673601 -2.59108e-18)
(0.464873 -0.0732869 3.20656e-20)
(0.465239 -0.079586 -7.12476e-18)
(0.46543 -0.0862826 -5.42897e-18)
(0.465419 -0.0934089 7.3454e-18)
(0.465177 -0.101003 0)
(0.464677 -0.109107 9.47462e-18)
(0.46389 -0.117769 -9.63676e-18)
(0.46278 -0.127045 -7.84902e-18)
(0.461304 -0.137 1.19695e-17)
(0.459411 -0.14771 -1.21966e-17)
(0.45704 -0.159265 -4.09951e-18)
(0.454117 -0.17177 -4.29235e-18)
(0.450553 -0.185352 -4.29608e-18)
(0.446236 -0.200162 1.32224e-17)
(0.441031 -0.21638 0)
(0.434766 -0.234224 4.58438e-18)
(0.427218 -0.25396 -9.39665e-18)
(0.418126 -0.275901 9.72266e-18)
(0.407066 -0.300463 4.94906e-18)
(0.393748 -0.328065 1.02442e-17)
(0.377083 -0.359395 0)
(0.357001 -0.395508 1.08674e-17)
(0.333151 -0.433226 0)
(0.290511 -0.502519 -1.14753e-17)
(0.455167 -0.0492599 6.60629e-18)
(0.455714 -0.0532649 3.35893e-18)
(0.45597 -0.0578235 -3.40695e-18)
(0.456417 -0.06272 2.59344e-18)
(0.45686 -0.0679123 7.0197e-22)
(0.457103 -0.0734153 6.35071e-22)
(0.457133 -0.0792532 -6.28654e-18)
(0.456977 -0.0854479 1.8022e-18)
(0.456625 -0.0920241 1.11299e-17)
(0.456045 -0.0990121 -9.4239e-18)
(0.455202 -0.106447 1.9204e-18)
(0.454067 -0.114367 -9.74957e-18)
(0.452604 -0.122817 7.93421e-18)
(0.45077 -0.131849 8.08142e-18)
(0.448514 -0.141522 -4.08607e-18)
(0.445777 -0.151907 8.40058e-18)
(0.442486 -0.163086 0)
(0.438557 -0.175153 4.35987e-18)
(0.433885 -0.188221 4.50046e-18)
(0.428342 -0.202422 -9.16229e-18)
(0.421771 -0.217913 0)
(0.413976 -0.23488 -4.83995e-18)
(0.404706 -0.253547 6.65547e-21)
(0.393664 -0.274174 -1.01502e-17)
(0.38039 -0.297102 1.05483e-17)
(0.364557 -0.322642 -1.62458e-17)
(0.34492 -0.351434 0)
(0.321938 -0.383868 -1.14537e-17)
(0.292568 -0.418708 7.32172e-20)
(0.250337 -0.477771 1.24043e-17)
(0.449439 -0.0549331 3.38972e-18)
(0.449545 -0.0589363 -2.99749e-18)
(0.449341 -0.0634454 3.04229e-18)
(0.449355 -0.0682707 -7.07411e-18)
(0.449359 -0.0733773 -3.59891e-18)
(0.449138 -0.0787796 -9.11486e-19)
(0.448676 -0.0844989 3.71601e-18)