/*--------------------------------*- C++ -*----------------------------------*\
  =========                 |
  \\      /  F ield         | OpenFOAM: The Open Source CFD Toolbox
   \\    /   O peration     | Website:  https://openfoam.org
    \\  /    A nd           | Version:  11
     \\/     M anipulation  |
\*---------------------------------------------------------------------------*/
FoamFile
{
    format      ascii;
    class       volScalarField;
    location    "8.1";
    object      p;
}
// * * * * * * * * * * * * * * * * * * * * * * * * * * * * * * * * * * * * * //

dimensions      [0 2 -2 0 0 0 0];

internalField   nonuniform List<scalar> 
12600
(
0.569365
0.569229
0.56916
0.569131
0.5691
0.569056
0.569004
0.568944
0.568874
0.568791
0.568693
0.568575
0.568433
0.568262
0.568055
0.567804
0.567497
0.567121
0.566659
0.566092
0.56539
0.564524
0.56346
0.562141
0.560497
0.55844
0.555859
0.552602
0.548503
0.543251
0.569292
0.569222
0.569163
0.569132
0.569099
0.569057
0.569005
0.568946
0.568877
0.568795
0.568698
0.568582
0.568442
0.568273
0.568069
0.56782
0.567517
0.567148
0.566693
0.566135
0.565443
0.564586
0.563536
0.562237
0.560615
0.558586
0.556035
0.552818
0.548739
0.54356
0.56926
0.569225
0.569174
0.569136
0.569103
0.569062
0.569012
0.568954
0.568886
0.568807
0.568711
0.568597
0.56846
0.568294
0.568094
0.567851
0.567555
0.567193
0.566749
0.566203
0.565529
0.564697
0.563674
0.562406
0.560824
0.558842
0.556349
0.553205
0.549184
0.54412
0.569239
0.569217
0.569175
0.569137
0.569104
0.569065
0.569017
0.568961
0.568896
0.568818
0.568726
0.568615
0.568483
0.568323
0.568129
0.567894
0.567608
0.567259
0.566831
0.566305
0.565657
0.564858
0.563872
0.56265
0.561126
0.559217
0.556811
0.553775
0.549868
0.544953
0.569226
0.56921
0.569178
0.569144
0.569111
0.569074
0.569028
0.568974
0.568911
0.568836
0.568747
0.568641
0.568514
0.568361
0.568176
0.567952
0.567679
0.567346
0.566939
0.566438
0.565823
0.565064
0.564127
0.562966
0.561518
0.559704
0.557414
0.554521
0.550776
0.546066
0.569218
0.569207
0.569181
0.569149
0.569117
0.569081
0.569038
0.568987
0.568927
0.568856
0.568772
0.568672
0.568552
0.568407
0.568233
0.568021
0.567764
0.567451
0.567069
0.566599
0.566023
0.565313
0.564436
0.56335
0.561995
0.560298
0.558152
0.555436
0.551901
0.54745
0.569214
0.569205
0.569184
0.569156
0.569126
0.569092
0.569052
0.569004
0.568947
0.568881
0.568802
0.568708
0.568596
0.568462
0.568299
0.568103
0.567865
0.567575
0.567221
0.566788
0.566256
0.565603
0.564796
0.563797
0.562552
0.560991
0.559015
0.556511
0.553232
0.549095
0.569214
0.569207
0.569189
0.569164
0.569136
0.569104
0.569066
0.569022
0.56897
0.568908
0.568835
0.568749
0.568646
0.568523
0.568374
0.568195
0.567978
0.567714
0.567393
0.567001
0.56652
0.565929
0.565201
0.564301
0.563179
0.561774
0.559994
0.557734
0.554756
0.550989
0.569216
0.56921
0.569195
0.569173
0.569147
0.569117
0.569083
0.569042
0.568994
0.568938
0.568873
0.568794
0.568702
0.568591
0.568457
0.568297
0.568103
0.567869
0.567583
0.567235
0.56681
0.566289
0.565648
0.564856
0.563871
0.562638
0.561075
0.559089
0.556456
0.553113
0.56922
0.569215
0.569202
0.569183
0.569159
0.569132
0.569101
0.569065
0.569022
0.568972
0.568913
0.568844
0.568762
0.568664
0.568547
0.568408
0.568239
0.568035
0.567789
0.567489
0.567123
0.566677
0.566129
0.565454
0.564616
0.56357
0.562244
0.560558
0.558309
0.555444
0.569226
0.569222
0.56921
0.569194
0.569173
0.569149
0.569121
0.569088
0.569051
0.569007
0.568956
0.568896
0.568826
0.568742
0.568644
0.568525
0.568384
0.568213
0.568007
0.567758
0.567456
0.567088
0.566638
0.566087
0.565405
0.564557
0.563483
0.56212
0.56029
0.557952
0.569234
0.56923
0.56922
0.569206
0.569187
0.569166
0.569142
0.569114
0.569081
0.569044
0.569001
0.568951
0.568893
0.568825
0.568744
0.568649
0.568535
0.568399
0.568236
0.56804
0.567804
0.567517
0.56717
0.566747
0.566227
0.565584
0.564775
0.56375
0.562367
0.560595
0.569243
0.56924
0.569231
0.569218
0.569203
0.569184
0.569164
0.56914
0.569113
0.569083
0.569048
0.569009
0.568963
0.56891
0.568849
0.568777
0.568692
0.568592
0.568473
0.568331
0.568162
0.56796
0.567717
0.567425
0.56707
0.566637
0.566098
0.565422
0.564503
0.563328
0.569253
0.56925
0.569243
0.569232
0.569219
0.569203
0.569186
0.569167
0.569146
0.569122
0.569096
0.569068
0.569035
0.568998
0.568956
0.568908
0.568853
0.568789
0.568715
0.568628
0.568527
0.56841
0.568272
0.568111
0.567923
0.5677
0.567432
0.567107
0.56666
0.566095
0.569264
0.569262
0.569256
0.569247
0.569235
0.569223
0.569209
0.569195
0.569179
0.569163
0.569146
0.569127
0.569108
0.569087
0.569065
0.569041
0.569016
0.568989
0.568959
0.568928
0.568895
0.568861
0.568828
0.568798
0.568773
0.568758
0.568756
0.568774
0.568794
0.568835
0.569276
0.569274
0.569269
0.569261
0.569252
0.569243
0.569233
0.569223
0.569213
0.569204
0.569195
0.569187
0.569181
0.569177
0.569174
0.569175
0.569179
0.569188
0.569203
0.569226
0.569261
0.56931
0.569379
0.569476
0.569609
0.569794
0.570048
0.570396
0.570862
0.571486
0.569289
0.569287
0.569283
0.569277
0.56927
0.569263
0.569256
0.569251
0.569246
0.569244
0.569244
0.569247
0.569254
0.569265
0.569282
0.569307
0.56934
0.569385
0.569444
0.569521
0.569621
0.56975
0.569918
0.570136
0.570421
0.570794
0.571288
0.571943
0.572822
0.573986
0.569303
0.569301
0.569297
0.569292
0.569287
0.569282
0.569279
0.569278
0.569279
0.569284
0.569292
0.569306
0.569325
0.569352
0.569388
0.569436
0.569498
0.569577
0.569679
0.569807
0.56997
0.570177
0.570439
0.570772
0.571198
0.571747
0.572459
0.573391
0.574638
0.576278
0.569316
0.569315
0.569312
0.569308
0.569304
0.569302
0.569302
0.569305
0.569312
0.569323
0.569339
0.569363
0.569394
0.569436
0.569491
0.569561
0.569651
0.569764
0.569906
0.570084
0.570307
0.570586
0.570936
0.571376
0.571933
0.572639
0.573547
0.574719
0.576277
0.578313
0.569331
0.56933
0.569326
0.569323
0.569321
0.569321
0.569324
0.569331
0.569343
0.56936
0.569384
0.569417
0.569461
0.569517
0.56959
0.569682
0.569797
0.569942
0.570122
0.570347
0.570626
0.570973
0.571405
0.571943
0.572617
0.573463
0.574538
0.575912
0.577717
0.580057
0.569346
0.569344
0.569341
0.569338
0.569337
0.569339
0.569345
0.569356
0.569372
0.569395
0.569427
0.569469
0.569524
0.569594
0.569683
0.569795
0.569935
0.57011
0.570326
0.570594
0.570926
0.571336
0.571842
0.572468
0.573245
0.574212
0.575427
0.57696
0.578947
0.581492
0.569361
0.56936
0.569356
0.569352
0.569352
0.569356
0.569365
0.569379
0.5694
0.569428
0.569467
0.569518
0.569583
0.569666
0.56977
0.569901
0.570064
0.570266
0.570516
0.570824
0.571203
0.571669
0.572242
0.572947
0.573813
0.574882
0.576208
0.577859
0.579963
0.582616
0.569377
0.569375
0.56937
0.569366
0.569366
0.569372
0.569383
0.569401
0.569425
0.569459
0.569504
0.569563
0.569637
0.569732
0.56985
0.569998
0.570182
0.570409
0.570689
0.571033
0.571455
0.571972
0.572604
0.573376
0.574318
0.57547
0.576881
0.578612
0.580775
0.583448
0.569394
0.569391
0.569384
0.569378
0.569379
0.569387
0.5694
0.56942
0.569448
0.569487
0.569538
0.569603
0.569686
0.569791
0.569923
0.570086
0.570288
0.570538
0.570845
0.571221
0.571681
0.572242
0.572925
0.573754
0.57476
0.575976
0.577449
0.579228
0.581401
0.584019
0.569413
0.569407
0.569396
0.569389
0.569391
0.5694
0.569415
0.569437
0.569468
0.569511
0.569567
0.569638
0.569729
0.569843
0.569986
0.570163
0.570382
0.570651
0.570981
0.571385
0.571878
0.572477
0.573203
0.57408
0.575136
0.576403
0.577918
0.579718
0.581864
0.584375
0.569433
0.569424
0.569407
0.569399
0.569402
0.569412
0.569428
0.569452
0.569486
0.569532
0.569593
0.569669
0.569767
0.569889
0.570041
0.570229
0.570462
0.570748
0.571098
0.571525
0.572045
0.572676
0.573437
0.574353
0.575449
0.576753
0.578294
0.580097
0.582194
0.584571
0.569457
0.569441
0.569416
0.569405
0.569409
0.569421
0.569438
0.569464
0.5695
0.569549
0.569613
0.569694
0.569796
0.569925
0.570085
0.570283
0.570527
0.570826
0.571192
0.571639
0.572181
0.572837
0.573627
0.574573
0.575699
0.577029
0.578585
0.580379
0.582421
0.584661
0.569486
0.569459
0.569424
0.569413
0.569418
0.56943
0.569448
0.569474
0.569512
0.569563
0.56963
0.569714
0.569821
0.569954
0.57012
0.570325
0.570578
0.570888
0.571266
0.571727
0.572286
0.572961
0.573772
0.574741
0.575889
0.577237
0.5788
0.58058
0.582576
0.584707
0.569523
0.569461
0.569421
0.569415
0.569422
0.569434
0.569452
0.56948
0.569519
0.569572
0.56964
0.569727
0.569836
0.569973
0.570143
0.570354
0.570612
0.570929
0.571316
0.571787
0.572357
0.573045
0.573871
0.574855
0.576018
0.577377
0.578943
0.580708
0.582662
0.584727
0.5696
0.569471
0.56942
0.569418
0.569427
0.569438
0.569456
0.569484
0.569524
0.569578
0.569646
0.569735
0.569846
0.569985
0.570157
0.57037
0.570632
0.570954
0.571346
0.571823
0.5724
0.573096
0.573931
0.574925
0.576097
0.577464
0.57903
0.580783
0.582679
0.584578
0.53841
0.536392
0.534809
0.53352
0.532158
0.530638
0.529019
0.527348
0.525631
0.523859
0.522027
0.520126
0.51814
0.516049
0.513823
0.511427
0.508814
0.505928
0.502694
0.499017
0.494771
0.489788
0.483843
0.476624
0.467722
0.456436
0.442391
0.421471
0.404576
0.34882
0.539484
0.537825
0.536384
0.535112
0.533778
0.532338
0.530856
0.529364
0.527851
0.5263
0.524699
0.523041
0.521309
0.519483
0.51754
0.515447
0.513166
0.510649
0.50783
0.504628
0.500934
0.496603
0.491443
0.485187
0.477478
0.46774
0.45553
0.438184
0.421651
0.376186
0.539806
0.538499
0.537344
0.536201
0.535004
0.533763
0.532507
0.531239
0.529946
0.528616
0.527245
0.525826
0.524347
0.522791
0.521138
0.519363
0.517433
0.515307
0.51293
0.510234
0.507126
0.503485
0.499147
0.493893
0.487412
0.479249
0.468947
0.454682
0.439715
0.403166
0.540681
0.539709
0.538835
0.537846
0.536786
0.535717
0.53465
0.533574
0.532478
0.53136
0.530215
0.529037
0.527815
0.526536
0.525183
0.523734
0.522165
0.52044
0.518516
0.516336
0.513825
0.510883
0.507374
0.503119
0.497856
0.491231
0.48279
0.471296
0.458391
0.42961
0.541902
0.541168
0.540505
0.53966
0.538746
0.537856
0.536987
0.536115
0.535231
0.534336
0.533426
0.532496
0.531539
0.530544
0.529499
0.528388
0.52719
0.525881
0.524424
0.522775
0.520874
0.518643
0.515971
0.512714
0.508657
0.503529
0.496895
0.487961
0.477302
0.455293
0.543441
0.542922
0.542466
0.541787
0.541037
0.540331
0.539659
0.538989
0.538314
0.537638
0.536963
0.536283
0.535594
0.534888
0.534158
0.533391
0.532574
0.531687
0.530704
0.529592
0.528306
0.526783
0.52494
0.522662
0.519777
0.516079
0.51117
0.504584
0.496184
0.479991
0.545291
0.544974
0.544715
0.5442
0.543613
0.543087
0.542609
0.542141
0.541677
0.541226
0.540789
0.540364
0.539947
0.539536
0.539125
0.538707
0.538275
0.537814
0.537309
0.536734
0.536057
0.535235
0.534201
0.532871
0.531108
0.528757
0.525472
0.521009
0.51478
0.503535
0.547444
0.547319
0.547248
0.546898
0.546477
0.546133
0.545849
0.545583
0.545332
0.545104
0.544906
0.544736
0.544594
0.544478
0.544388
0.544321
0.544272
0.544236
0.544203
0.544157
0.544077
0.543932
0.543677
0.543247
0.542539
0.541436
0.539647
0.537066
0.53286
0.525725
0.549889
0.549945
0.550052
0.549866
0.549611
0.549446
0.549354
0.549289
0.549248
0.549244
0.549284
0.549369
0.549499
0.549677
0.549905
0.550184
0.550514
0.550895
0.551321
0.551787
0.552281
0.552782
0.553261
0.553671
0.553935
0.553964
0.553522
0.552573
0.550195
0.546378
0.552603
0.552829
0.553102
0.553077
0.552989
0.553001
0.553096
0.553229
0.553396
0.553612
0.553887
0.554221
0.554619
0.555084
0.555623
0.556239
0.556935
0.557716
0.558584
0.559536
0.56057
0.561674
0.56283
0.564006
0.565144
0.566177
0.566912
0.56734
0.566565
0.565324
0.555556
0.555937
0.556364
0.556495
0.556571
0.556755
0.557033
0.557358
0.557727
0.558156
0.558657
0.559234
0.55989
0.560632
0.561468
0.562404
0.563449
0.564608
0.565888
0.567292
0.568823
0.570476
0.572242
0.574099
0.576004
0.577901
0.579635
0.581191
0.58177
0.582421
0.558703
0.559224
0.559788
0.56007
0.560304
0.560655
0.561106
0.561614
0.562175
0.562809
0.563525
0.564331
0.565231
0.566233
0.567348
0.568584
0.569951
0.571458
0.573115
0.574928
0.576904
0.579044
0.581344
0.583788
0.586343
0.588962
0.591514
0.59397
0.59565
0.5976
0.561985
0.562629
0.563313
0.563736
0.564122
0.564629
0.565243
0.565921
0.566663
0.567486
0.568403
0.56942
0.570545
0.571787
0.573156
0.574664
0.576321
0.578139
0.580129
0.582301
0.584663
0.58722
0.589969
0.5929
0.595985
0.59918
0.602374
0.60552
0.608059
0.610841
0.565332
0.566081
0.566866
0.567418
0.567946
0.568597
0.569358
0.570192
0.571097
0.572092
0.57319
0.574397
0.575723
0.577177
0.578771
0.580517
0.582427
0.584513
0.586787
0.589261
0.591944
0.594841
0.597951
0.601264
0.604753
0.608373
0.612026
0.615644
0.618774
0.622029
0.568663
0.569497
0.570363
0.57103
0.571687
0.572466
0.573357
0.574327
0.575376
0.57652
0.577775
0.579147
0.580645
0.58228
0.584064
0.58601
0.588129
0.590435
0.59294
0.595656
0.59859
0.601748
0.605127
0.608716
0.612484
0.61638
0.620307
0.62416
0.627561
0.630895
0.57189
0.572788
0.573716
0.57448
0.57525
0.576138
0.577139
0.578223
0.579391
0.580661
0.582045
0.583552
0.58519
0.586971
0.588907
0.59101
0.593293
0.595768
0.598447
0.60134
0.604454
0.607793
0.611352
0.615113
0.619043
0.62308
0.627122
0.631023
0.634449
0.637481
0.574925
0.575867
0.576835
0.577679
0.578541
0.579518
0.580605
0.581778
0.58304
0.584407
0.58589
0.587499
0.589243
0.591132
0.593178
0.595394
0.597791
0.600382
0.603176
0.606183
0.609407
0.61285
0.616501
0.620339
0.624325
0.628386
0.632415
0.636238
0.639572
0.642263
0.577685
0.578652
0.57964
0.580542
0.581475
0.582518
0.583665
0.584901
0.586229
0.587662
0.589213
0.590889
0.592701
0.594658
0.596772
0.599055
0.601517
0.604169
0.607021
0.610078
0.613343
0.616814
0.620476
0.624302
0.628244
0.632224
0.636124
0.639747
0.642848
0.645023
0.580098
0.581072
0.582063
0.583001
0.583982
0.585065
0.586248
0.587519
0.588882
0.590351
0.591934
0.593643
0.595484
0.597469
0.599608
0.601911
0.604388
0.607049
0.6099
0.612946
0.616186
0.619612
0.623207
0.626935
0.630741
0.634533
0.638184
0.641465
0.644133
0.645589
0.582116
0.583078
0.584055
0.585008
0.586012
0.58711
0.588302
0.589579
0.590949
0.59242
0.594004
0.595708
0.597541
0.599513
0.601633
0.60391
0.606354
0.608971
0.611766
0.614742
0.617892
0.621206
0.624659
0.628207
0.631786
0.635288
0.638567
0.641359
0.643441
0.64409
0.583711
0.584647
0.585595
0.586541
0.587543
0.588631
0.589805
0.591062
0.592407
0.593849
0.595399
0.597064
0.598851
0.60077
0.60283
0.605037
0.6074
0.609923
0.612609
0.615456
0.618456
0.621591
0.62483
0.628121
0.631386
0.634504
0.637309
0.63951
0.640935
0.64035
0.584884
0.585781
0.586687
0.587605
0.58858
0.589633
0.590765
0.591974
0.593266
0.59465
0.596134
0.597725
0.59943
0.601258
0.603216
0.60531
0.607546
0.609927
0.612453
0.615117
0.617907
0.6208
0.623757
0.626715
0.629587
0.632227
0.634479
0.635968
0.636672
0.634365
0.585665
0.586508
0.58736
0.588232
0.589159
0.590154
0.59122
0.592356
0.593568
0.594865
0.596252
0.597737
0.599326
0.601026
0.602843
0.604784
0.606849
0.609042
0.611357
0.613786
0.616311
0.618903
0.621514
0.624072
0.626474
0.628557
0.63015
0.630778
0.630726
0.62643
0.586104
0.586885
0.587672
0.58848
0.589338
0.590255
0.591233
0.592273
0.593381
0.594563
0.595825
0.597174
0.598614
0.600152
0.601793
0.60354
0.605394
0.607353
0.609412
0.611555
0.613762
0.615993
0.618193
0.620276
0.622128
0.623555
0.624396
0.624019
0.623116
0.616718
0.586272
0.586982
0.587694
0.588425
0.589196
0.590018
0.59089
0.591815
0.592795
0.593839
0.594951
0.596136
0.5974
0.598745
0.600176
0.601693
0.603296
0.60498
0.606735
0.608543
0.610374
0.612183
0.613905
0.615439
0.616657
0.617331
0.617311
0.615762
0.613822
0.604952
0.586259
0.586891
0.587518
0.588154
0.588824
0.589535
0.590286
0.591077
0.591912
0.592797
0.593736
0.594732
0.595789
0.59691
0.598097
0.599348
0.60066
0.602027
0.603432
0.604854
0.606256
0.607584
0.608762
0.609673
0.610173
0.609987
0.608983
0.606071
0.602914
0.591078
0.586157
0.586709
0.587237
0.587768
0.588328
0.588918
0.589535
0.590179
0.590855
0.591566
0.592314
0.593102
0.593931
0.594804
0.595719
0.596674
0.597661
0.598671
0.599683
0.600669
0.601586
0.60237
0.602932
0.603136
0.602818
0.601649
0.599524
0.595045
0.590515
0.575216
0.586115
0.586536
0.586907
0.587314
0.587766
0.588234
0.58871
0.589196
0.589697
0.590214
0.590748
0.591304
0.591882
0.592481
0.593096
0.59372
0.594346
0.594958
0.595533
0.596036
0.596414
0.596593
0.59647
0.595885
0.594657
0.592388
0.589015
0.582745
0.576763
0.557427
0.586416
0.58658
0.586682
0.586941
0.587279
0.587626
0.58797
0.588319
0.588659
0.588985
0.589306
0.589617
0.589931
0.590248
0.590546
0.590818
0.591055
0.591238
0.591336
0.591305
0.591084
0.590585
0.589688
0.588207
0.585939
0.582411
0.577643
0.569216
0.561864
0.537663
0.586768
0.586498
0.586363
0.586543
0.586795
0.58702
0.58721
0.587372
0.587509
0.587618
0.587705
0.587759
0.587781
0.587767
0.587705
0.587583
0.587386
0.587089
0.586658
0.586042
0.585169
0.583936
0.582204
0.579757
0.576369
0.571452
0.565318
0.554038
0.546109
0.515539
0.492058
0.466043
0.436191
0.403743
0.369101
0.331631
0.291049
0.247915
0.203131
0.157401
0.112223
0.0676056
0.0249185
-0.0116662
-0.0379377
-0.0516884
-0.0545361
-0.0521118
-0.0476919
-0.0420675
-0.0353343
-0.0275482
-0.0185003
-0.00794774
0.00428303
0.0178264
0.0324486
0.0484509
0.0666087
0.0887619
0.530189
0.507604
0.480865
0.452012
0.420623
0.38615
0.347699
0.3056
0.260034
0.211284
0.160442
0.108576
0.0572928
0.0110054
-0.0229424
-0.0404351
-0.0442661
-0.0403168
-0.0331216
-0.0242309
-0.0136245
-0.00117709
0.0132941
0.0299486
0.0484428
0.0677728
0.0876614
0.108054
0.129327
0.151434
0.537993
0.517702
0.493393
0.465932
0.435393
0.401059
0.362756
0.321082
0.275979
0.227832
0.17702
0.125068
0.0734998
0.0263221
-0.00858531
-0.0261808
-0.0289907
-0.0232107
-0.0137599
-0.00246562
0.0109563
0.0267498
0.0449931
0.0653213
0.0865087
0.107234
0.127573
0.146857
0.16532
0.18127
0.553304
0.535179
0.512952
0.488165
0.460036
0.427195
0.389661
0.347683
0.30139
0.251398
0.19872
0.145014
0.0921029
0.0439205
0.00815093
-0.0105993
-0.0134819
-0.00666992
0.00436503
0.0176826
0.0335869
0.0522127
0.073396
0.0961263
0.118766
0.140084
0.160845
0.17882
0.197223
0.21055
0.560988
0.54529
0.525755
0.503511
0.477847
0.447442
0.411857
0.37114
0.325388
0.275035
0.221153
0.165573
0.110689
0.0607204
0.0232042
0.00311851
0.000293111
0.00833099
0.0210426
0.0363359
0.0545481
0.0757056
0.0994014
0.123973
0.147593
0.169645
0.190981
0.206387
0.222365
0.23087
0.567665
0.554124
0.536706
0.516459
0.492616
0.463982
0.429909
0.390277
0.345121
0.294753
0.24013
0.183152
0.126635
0.0751386
0.0363167
0.0154931
0.0131415
0.0225479
0.0368663
0.0539939
0.0743671
0.0978256
0.123653
0.149613
0.174125
0.196932
0.215597
0.230778
0.241904
0.241579
0.572418
0.560664
0.545378
0.527223
0.505386
0.478673
0.446275
0.407834
0.363262
0.312826
0.257471
0.199194
0.141154
0.0882767
0.0484326
0.0271145
0.0253276
0.0360833
0.0519392
0.0708236
0.0932289
0.118747
0.146521
0.173914
0.19923
0.220386
0.236769
0.247992
0.253985
0.247322
0.576008
0.565884
0.552454
0.536192
0.516256
0.49146
0.460881
0.423909
0.380231
0.329986
0.274075
0.214582
0.154992
0.100666
0.0597998
0.0380501
0.0369249
0.0490902
0.0664421
0.0869665
0.111201
0.138624
0.168597
0.197131
0.221205
0.239758
0.25252
0.257708
0.257389
0.247336
0.578697
0.569983
0.558211
0.543672
0.525504
0.502526
0.473731
0.438314
0.395734
0.345937
0.289715
0.229173
0.168085
0.112287
0.070427
0.0483841
0.048071
0.0616833
0.0804221
0.10243
0.128288
0.157553
0.189537
0.217216
0.239741
0.254656
0.260437
0.259078
0.253614
0.241147
0.580737
0.573244
0.562937
0.549955
0.533426
0.512177
0.48512
0.451276
0.409885
0.360691
0.304335
0.2429
0.180403
0.123167
0.0803981
0.0582139
0.0588348
0.0738849
0.0938776
0.11723
0.144611
0.175555
0.207702
0.235345
0.254784
0.262288
0.261121
0.255114
0.246576
0.233001
0.582297
0.575862
0.566841
0.555256
0.540235
0.520627
0.495265
0.463011
0.422891
0.374423
0.318072
0.255871
0.192041
0.133395
0.0897849
0.0675817
0.0692383
0.0857054
0.106818
0.131379
0.16033
0.192932
0.224393
0.251052
0.263315
0.26332
0.257711
0.248806
0.23875
0.224456
0.583501
0.577983
0.570094
0.55975
0.546108
0.528039
0.504313
0.473647
0.434863
0.387238
0.331027
0.268172
0.203071
0.143023
0.0986204
0.0765106
0.0793048
0.0971607
0.119265
0.14491
0.175416
0.20927
0.240462
0.261159
0.265594
0.260726
0.252605
0.241642
0.230879
0.216089
0.584439
0.579716
0.572821
0.563587
0.551197
0.534561
0.512396
0.483296
0.445888
0.3992
0.343249
0.279847
0.213532
0.152085
0.106932
0.0850256
0.0890591
0.108266
0.131258
0.158001
0.189679
0.224455
0.252747
0.265792
0.264165
0.256652
0.246733
0.234227
0.223546
0.208215
0.585173
0.581145
0.575123
0.566881
0.555631
0.54032
0.519636
0.492066
0.456054
0.410378
0.35479
0.290938
0.223461
0.160612
0.114754
0.0931473
0.0985217
0.119039
0.142811
0.170868
0.203187
0.237502
0.260659
0.26636
0.261076
0.251901
0.240509
0.226971
0.216786
0.200377
0.585749
0.582329
0.57708
0.569716
0.559511
0.545422
0.526138
0.500054
0.465444
0.420838
0.365706
0.30149
0.232899
0.168641
0.12213
0.100897
0.107712
0.1295
0.153899
0.183068
0.215873
0.247793
0.264392
0.264703
0.257308
0.2467
0.234121
0.220137
0.210016
0.192634
0.586199
0.583316
0.578753
0.572188
0.56292
0.549958
0.53199
0.507341
0.47413
0.430641
0.376046
0.311546
0.241883
0.176204
0.129066
0.108306
0.116652
0.139673
0.164563
0.193291
0.227326
0.25491
0.265095
0.262058
0.253145
0.241268
0.227813
0.213698
0.203227
0.184633
0.586547
0.584139
0.580189
0.574343
0.565929
0.554004
0.537272
0.514003
0.482176
0.439839
0.385852
0.321142
0.250443
0.183333
0.135579
0.115411
0.125371
0.149542
0.174914
0.202818
0.236563
0.258831
0.264196
0.258968
0.248533
0.235809
0.22172
0.207471
0.196145
0.176569
0.586811
0.584824
0.581422
0.576228
0.5686
0.557628
0.542051
0.520102
0.48964
0.448481
0.395164
0.330312
0.258609
0.190054
0.141645
0.122244
0.1339
0.159071
0.184431
0.212398
0.243317
0.260369
0.262533
0.255526
0.243925
0.230418
0.215818
0.201297
0.188873
0.168482
0.587003
0.585391
0.582481
0.577879
0.570976
0.56089
0.546388
0.525697
0.496574
0.456611
0.40402
0.339087
0.266406
0.196401
0.147294
0.128787
0.142258
0.168328
0.192337
0.220751
0.247775
0.26058
0.260392
0.251904
0.239339
0.225112
0.210036
0.195114
0.181522
0.160448
0.587135
0.585855
0.58339
0.579327
0.573078
0.563831
0.550334
0.530842
0.503026
0.464269
0.412452
0.347497
0.273856
0.202402
0.152537
0.135015
0.150464
0.177403
0.199636
0.227342
0.250248
0.26011
0.258138
0.248231
0.234804
0.21988
0.204322
0.188918
0.174145
0.152482
0.587214
0.58623
0.584166
0.580601
0.57497
0.566483
0.55393
0.53558
0.509037
0.471492
0.420491
0.355567
0.280992
0.208018
0.157404
0.141055
0.158524
0.185807
0.206907
0.232102
0.251514
0.259448
0.255609
0.244519
0.230278
0.214696
0.198636
0.182695
0.16668
0.144473
0.587248
0.586526
0.584824
0.581716
0.576658
0.56888
0.557214
0.539953
0.514647
0.478313
0.428166
0.363323
0.287823
0.21334
0.161917
0.146806
0.166352
0.19255
0.213513
0.235333
0.25223
0.25863
0.25297
0.240793
0.225756
0.209534
0.192942
0.176388
0.159041
0.13662
0.587245
0.586751
0.585376
0.582689
0.578165
0.571053
0.56022
0.543994
0.519888
0.484763
0.435503
0.370788
0.294375
0.218302
0.16607
0.152359
0.173886
0.198808
0.218719
0.237405
0.25286
0.257514
0.250236
0.23704
0.221218
0.204368
0.187218
0.169955
0.151415
0.129161
0.587212
0.586917
0.585832
0.583534
0.579508
0.573022
0.562975
0.547734
0.524791
0.49087
0.442528
0.377986
0.300676
0.222961
0.169897
0.157723
0.181195
0.205187
0.222282
0.238942
0.253628
0.256263
0.247416
0.233173
0.216651
0.199185
0.181445
0.16341
0.143951
0.122163
0.587157
0.587033
0.586205
0.584265
0.580701
0.574807
0.565508
0.551203
0.529382
0.496651
0.449249
0.38492
0.306718
0.227333
0.173398
0.162803
0.188026
0.210804
0.224753
0.240553
0.254264
0.254864
0.244511
0.229297
0.212083
0.19396
0.175599
0.15683
0.13674
0.1157
0.58708
0.587102
0.586503
0.584894
0.58176
0.576405
0.567831
0.554425
0.533702
0.502166
0.455735
0.391665
0.312572
0.231463
0.176644
0.167601
0.193733
0.215485
0.226726
0.242345
0.25474
0.253284
0.241558
0.225461
0.207475
0.188615
0.1697
0.150316
0.12987
0.10986
0.586978
0.587119
0.586732
0.585425
0.582697
0.577873
0.569949
0.557373
0.537679
0.507303
0.461852
0.398068
0.318105
0.235056
0.179208
0.17206
0.198913
0.218623
0.228467
0.244183
0.255174
0.251677
0.238682
0.221542
0.202692
0.183187
0.163881
0.143943
0.123394
0.104623
0.586871
0.587088
0.586896
0.585873
0.583495
0.579207
0.572007
0.560315
0.541687
0.512481
0.468062
0.404668
0.324002
0.239605
0.182301
0.176308
0.203191
0.220307
0.230001
0.245823
0.255242
0.249406
0.234787
0.216812
0.197531
0.17805
0.158328
0.13786
0.117356
0.0999336
0.586808
0.587029
0.587001
0.586268
0.584183
0.580129
0.573368
0.562371
0.54464
0.516392
0.472728
0.409357
0.327568
0.241102
0.183427
0.178778
0.205823
0.221352
0.231533
0.247494
0.255477
0.248479
0.233062
0.214398
0.194318
0.1738
0.15257
0.13168
0.111483
0.0957885
0.586798
0.586967
0.587052
0.586606
0.58511
0.581781
0.57585
0.565906
0.549556
0.522976
0.481034
0.418638
0.33605
0.24713
0.187132
0.180904
0.207539
0.222702
0.233278
0.24884
0.255048
0.245084
0.227567
0.207398
0.186211
0.164772
0.143462
0.122785
0.104593
0.0923767
0.19879
0.158065
0.0992669
0.0622085
0.0575856
0.0885859
0.153266
0.232552
0.293254
0.332335
0.35765
0.374742
0.386824
0.395721
0.402763
0.408898
0.414721
0.420596
0.426731
0.433235
0.440156
0.447509
0.455336
0.463394
0.472161
0.480703
0.490763
0.500097
0.512611
0.517568
0.197147
0.145015
0.0700863
0.0277377
0.0251436
0.0615538
0.12777
0.210758
0.282597
0.330846
0.36032
0.378151
0.389933
0.398107
0.404241
0.409397
0.414219
0.419118
0.424341
0.430022
0.436176
0.442853
0.45009
0.457652
0.465809
0.473972
0.482829
0.49089
0.500612
0.507475
0.219043
0.154341
0.0682967
0.015415
0.00760395
0.0415027
0.105446
0.188928
0.269132
0.327692
0.36285
0.382875
0.395007
0.402402
0.407334
0.411158
0.414625
0.418207
0.422231
0.426723
0.431881
0.437752
0.444208
0.451198
0.458777
0.466711
0.475165
0.483666
0.493068
0.502764
0.262079
0.190223
0.0959378
0.0274666
0.0109027
0.0382221
0.0987981
0.18222
0.267322
0.333492
0.374629
0.397101
0.408094
0.413259
0.415796
0.417321
0.418692
0.420398
0.422747
0.425928
0.430084
0.435043
0.44076
0.447241
0.454486
0.462352
0.47083
0.479756
0.489136
0.498786
0.303949
0.236491
0.142476
0.0663808
0.0389017
0.0562669
0.111615
0.193233
0.277887
0.348207
0.394375
0.4185
0.428075
0.430178
0.429173
0.427281
0.425598
0.424649
0.424694
0.425887
0.428309
0.432034
0.436732
0.442343
0.4489
0.456264
0.46434
0.473004
0.482121
0.491545
0.318881
0.260649
0.180847
0.11295
0.0814362
0.0920848
0.139117
0.214389
0.296614
0.368269
0.418294
0.444919
0.453883
0.452881
0.447619
0.441342
0.435589
0.431055
0.427929
0.426476
0.426653
0.428316
0.431458
0.435937
0.441472
0.448012
0.455493
0.463775
0.472694
0.482014
0.289423
0.24281
0.18216
0.135215
0.118114
0.126806
0.16802
0.23674
0.315405
0.386756
0.440253
0.47176
0.482655
0.480111
0.471002
0.460017
0.44963
0.440616
0.433276
0.428319
0.425624
0.424836
0.425872
0.428493
0.432738
0.438146
0.444772
0.452569
0.461294
0.470647
0.219914
0.188031
0.146772
0.120668
0.116891
0.135677
0.177234
0.240191
0.318368
0.392172
0.449861
0.487093
0.504151
0.504542
0.494393
0.48002
0.465412
0.452116
0.440654
0.431684
0.425377
0.421536
0.419653
0.420537
0.423476
0.427169
0.43239
0.43919
0.447174
0.45615
0.142414
0.128161
0.100107
0.0850821
0.0890727
0.111682
0.151604
0.212554
0.288806
0.36735
0.433741
0.480245
0.505164
0.514091
0.508635
0.494883
0.4781
0.461285
0.445996
0.433129
0.423125
0.416105
0.411893
0.410002
0.409878
0.411991
0.416516
0.422568
0.429648
0.437538
0.0845716
0.087266
0.0654808
0.0565087
0.0629369
0.0836332
0.116942
0.166419
0.233702
0.310736
0.383661
0.441487
0.4795
0.498904
0.502975
0.495904
0.482291
0.465774
0.448879
0.433149
0.419512
0.408517
0.400457
0.395304
0.393024
0.393396
0.395786
0.399596
0.405523
0.413074
0.061708
0.0659539
0.0467363
0.0386959
0.0443512
0.0621846
0.0896914
0.128431
0.183
0.250584
0.319734
0.378303
0.420214
0.44546
0.457122
0.459092
0.454206
0.444601
0.432725
0.420122
0.407795
0.396542
0.386721
0.379663
0.374635
0.37144
0.370886
0.372838
0.377459
0.384221
0.0631844
0.0683481
0.0471925
0.0357255
0.037437
0.0496245
0.0701377
0.0998139
0.142648
0.197804
0.256252
0.307815
0.347049
0.373217
0.388
0.393838
0.393223
0.388767
0.381882
0.37389
0.365847
0.35802
0.352536
0.348183
0.342979
0.339747
0.338845
0.339847
0.342408
0.34696
0.0821389
0.0877356
0.0671375
0.0519319
0.0469198
0.0506302
0.0619442
0.0829547
0.11594
0.158383
0.203142
0.24345
0.275534
0.298401
0.31273
0.319952
0.321747
0.319758
0.315264
0.309377
0.303031
0.296935
0.291514
0.286683
0.283276
0.281789
0.283211
0.285973
0.289147
0.294049
0.103477
0.110664
0.094968
0.0774897
0.0661418
0.0617758
0.0642556
0.0774525
0.10167
0.132058
0.16341
0.191852
0.215028
0.231967
0.242874
0.248596
0.250271
0.249043
0.245768
0.240999
0.235143
0.228664
0.222083
0.216018
0.211048
0.20768
0.206235
0.20666
0.210516
0.217328
0.11744
0.123243
0.115446
0.101581
0.0877641
0.0773399
0.0726068
0.0803827
0.0966658
0.116391
0.136348
0.154281
0.168672
0.178699
0.184524
0.186862
0.186484
0.184063
0.17991
0.174129
0.166873
0.158452
0.149354
0.140211
0.131625
0.124141
0.118523
0.115519
0.115532
0.118396
0.128571
0.130106
0.127399
0.116104
0.10112
0.0872949
0.0828233
0.0872276
0.096549
0.10872
0.120353
0.12976
0.13636
0.140073
0.140826
0.139088
0.135459
0.130091
0.122744
0.113147
0.101376
0.0877533
0.0727339
0.057134
0.0420418
0.0284251
0.0169122
0.00809272
0.0028025
0.00178211
0.142082
0.138935
0.133736
0.120967
0.106341
0.0950618
0.0926213
0.0947397
0.100969
0.108263
0.11365
0.117023
0.118039
0.116495
0.112718
0.10714
0.099823
0.0903245
0.0780782
0.0626679
0.0441045
0.0230316
-3.21713e-05
-0.0242277
-0.0482836
-0.071005
-0.0912856
-0.108265
-0.121044
-0.129662
0.157789
0.153027
0.142886
0.128247
0.111085
0.103763
0.103291
0.106644
0.111328
0.113874
0.114989
0.114362
0.111489
0.106415
0.0994736
0.0907651
0.0798169
0.0658384
0.0481737
0.0265889
0.000899754
-0.0278336
-0.058879
-0.091353
-0.123845
-0.155067
-0.183822
-0.209286
-0.230189
-0.246922
0.174833
0.170974
0.159789
0.141927
0.123288
0.11808
0.119402
0.122903
0.123823
0.123226
0.122106
0.119209
0.114204
0.107261
0.098539
0.0876569
0.0737045
0.055901
0.0336918
0.00692323
-0.0239946
-0.0586834
-0.096218
-0.135277
-0.174482