/*--------------------------------*- C++ -*----------------------------------*\
  =========                 |
  \\      /  F ield         | OpenFOAM: The Open Source CFD Toolbox
   \\    /   O peration     | Website:  https://openfoam.org
    \\  /    A nd           | Version:  11
     \\/     M anipulation  |
\*---------------------------------------------------------------------------*/
FoamFile
{
    format      ascii;
    class       surfaceScalarField;
    location    "8.1";
    object      phi;
}
// * * * * * * * * * * * * * * * * * * * * * * * * * * * * * * * * * * * * * //

dimensions      [0 3 -1 0 0 0 0];

internalField   nonuniform List<scalar> 
24840
(
1.92423e-05
5.8721e-09
1.92365e-05
5.7225e-09
1.92332e-05
3.35185e-09
1.92318e-05
1.34435e-09
1.92325e-05
-6.09127e-10
1.92348e-05
-2.38879e-09
1.92393e-05
-4.4515e-09
1.9246e-05
-6.74537e-09
1.92553e-05
-9.22204e-09
1.92672e-05
-1.19719e-08
1.92824e-05
-1.51378e-08
1.93013e-05
-1.88832e-08
1.93246e-05
-2.336e-08
1.93533e-05
-2.87003e-08
1.93884e-05
-3.51038e-08
1.94312e-05
-4.28077e-08
1.94833e-05
-5.20528e-08
1.95464e-05
-6.30929e-08
1.96226e-05
-7.61924e-08
1.97142e-05
-9.16644e-08
1.98241e-05
-1.09851e-07
1.99552e-05
-1.31093e-07
2.01109e-05
-1.55743e-07
2.02951e-05
-1.84172e-07
2.05119e-05
-2.16767e-07
2.07655e-05
-2.53665e-07
2.10612e-05
-2.95718e-07
2.13998e-05
-3.38568e-07
2.18001e-05
-4.00305e-07
-3.89222e-07
2.21893e-05
1.9253e-05
1.00752e-09
1.926e-05
-1.24623e-09
1.92689e-05
-5.62723e-09
1.92805e-05
-1.01825e-08
1.92945e-05
-1.46271e-08
1.93111e-05
-1.89544e-08
1.93297e-05
-2.31154e-08
1.93501e-05
-2.71487e-08
1.93723e-05
-3.14436e-08
1.93968e-05
-3.63966e-08
1.94239e-05
-4.22512e-08
1.94542e-05
-4.92115e-08
1.94884e-05
-5.7535e-08
1.95272e-05
-6.7564e-08
1.95718e-05
-7.96422e-08
1.96231e-05
-9.41546e-08
1.96826e-05
-1.11537e-07
1.97518e-05
-1.32257e-07
1.98325e-05
-1.56883e-07
1.99268e-05
-1.8604e-07
2.00373e-05
-2.20337e-07
2.01667e-05
-2.6047e-07
2.03183e-05
-3.0736e-07
2.04962e-05
-3.62066e-07
2.0705e-05
-4.25499e-07
2.09493e-05
-4.98056e-07
2.12341e-05
-5.80431e-07
2.15637e-05
-6.68241e-07
2.19427e-05
-7.79265e-07
-8.1098e-07
2.23644e-05
1.92512e-05
-2.10768e-09
1.92574e-05
-7.39745e-09
1.92658e-05
-1.40433e-08
1.92766e-05
-2.09786e-08
1.92897e-05
-2.76699e-08
1.93048e-05
-3.41063e-08
1.9322e-05
-4.03539e-08
1.93415e-05
-4.65798e-08
1.93632e-05
-5.31626e-08
1.93873e-05
-6.05355e-08
1.94142e-05
-6.90872e-08
1.94441e-05
-7.91866e-08
1.94778e-05
-9.12348e-08
1.9516e-05
-1.05703e-07
1.95595e-05
-1.23114e-07
1.96094e-05
-1.44069e-07
1.96671e-05
-1.69236e-07
1.97342e-05
-1.99341e-07
1.98125e-05
-2.35232e-07
1.99043e-05
-2.77863e-07
2.00122e-05
-3.28222e-07
2.01391e-05
-3.87378e-07
2.02884e-05
-4.56594e-07
2.04636e-05
-5.37276e-07
2.06688e-05
-6.30771e-07
2.09087e-05
-7.37877e-07
2.11881e-05
-8.59889e-07
2.15119e-05
-9.92033e-07
2.18864e-05
-1.15371e-06
-1.24251e-06
2.23179e-05
1.92504e-05
-4.34269e-09
1.92559e-05
-1.29347e-08
1.92639e-05
-2.20726e-08
1.92743e-05
-3.13037e-08
1.92868e-05
-4.0188e-08
1.93013e-05
-4.86667e-08
1.93179e-05
-5.69068e-08
1.93365e-05
-6.52108e-08
1.93574e-05
-7.39959e-08
1.93805e-05
-8.37301e-08
1.94064e-05
-9.48993e-08
1.94352e-05
-1.0801e-07
1.94676e-05
-1.23607e-07
1.95042e-05
-1.42304e-07
1.95458e-05
-1.64799e-07
1.95937e-05
-1.91894e-07
1.96489e-05
-2.24491e-07
1.97132e-05
-2.63587e-07
1.97882e-05
-3.10298e-07
1.98762e-05
-3.65862e-07
1.99796e-05
-4.31619e-07
2.01013e-05
-5.09062e-07
2.02446e-05
-5.99879e-07
2.04132e-05
-7.05871e-07
2.06113e-05
-8.28833e-07
2.08435e-05
-9.70118e-07
2.11153e-05
-1.13168e-06
2.14328e-05
-1.30955e-06
2.18018e-05
-1.52265e-06
-1.67561e-06
2.22349e-05
1.92499e-05
-6.10326e-09
1.92548e-05
-1.78369e-08
1.92622e-05
-2.95061e-08
1.92719e-05
-4.098e-08
1.92837e-05
-5.19898e-08
1.92975e-05
-6.24878e-08
1.93133e-05
-7.26827e-08
1.93311e-05
-8.29565e-08
1.93509e-05
-9.37967e-08
1.93729e-05
-1.05745e-07
1.93973e-05
-1.1938e-07
1.94247e-05
-1.35323e-07
1.94553e-05
-1.54252e-07
1.94899e-05
-1.7693e-07
1.95294e-05
-2.04223e-07
1.95746e-05
-2.37116e-07
1.96268e-05
-2.76719e-07
1.96875e-05
-3.24266e-07
1.97583e-05
-3.81136e-07
1.98413e-05
-4.48867e-07
1.99389e-05
-5.2916e-07
2.00537e-05
-6.23904e-07
2.0189e-05
-7.35206e-07
2.03485e-05
-8.65359e-07
2.05365e-05
-1.01677e-06
2.07579e-05
-1.19158e-06
2.10188e-05
-1.3925e-06
2.13262e-05
-1.61699e-06
2.16862e-05
-1.8827e-06
-2.10403e-06
2.21147e-05
1.92496e-05
-7.61333e-09
1.9254e-05
-2.2205e-08
1.92609e-05
-3.63479e-08
1.92699e-05
-5.00102e-08
1.92809e-05
-6.30475e-08
1.92939e-05
-7.54575e-08
1.93087e-05
-8.74891e-08
1.93254e-05
-9.95914e-08
1.93439e-05
-1.12328e-07
1.93645e-05
-1.26323e-07
1.93873e-05
-1.42244e-07
1.94128e-05
-1.60817e-07
1.94414e-05
-1.82837e-07
1.94737e-05
-2.09194e-07
1.95103e-05
-2.40903e-07
1.95524e-05
-2.79121e-07
1.96008e-05
-3.2516e-07
1.9657e-05
-3.80481e-07
1.97226e-05
-4.46716e-07
1.97994e-05
-5.25686e-07
1.98897e-05
-6.1942e-07
1.9996e-05
-7.302e-07
2.01214e-05
-8.60602e-07
2.02695e-05
-1.01349e-06
2.04447e-05
-1.19196e-06
2.06522e-05
-1.39909e-06
2.08982e-05
-1.63856e-06
2.1191e-05
-1.90977e-06
2.15375e-05
-2.22919e-06
-2.52364e-06
2.19571e-05
1.92495e-05
-8.95095e-09
1.92534e-05
-2.61117e-08
1.92596e-05
-4.25706e-08
1.92679e-05
-5.82988e-08
1.92781e-05
-7.32273e-08
1.929e-05
-8.7412e-08
1.93037e-05
-1.01145e-07
1.9319e-05
-1.14929e-07
1.93361e-05
-1.29398e-07
1.9355e-05
-1.45253e-07
1.9376e-05
-1.6325e-07
1.93994e-05
-1.84205e-07
1.94256e-05
-2.09017e-07
1.94551e-05
-2.3869e-07
1.94886e-05
-2.74376e-07
1.95268e-05
-3.1739e-07
1.95709e-05
-3.6922e-07
1.96219e-05
-4.31531e-07
1.96814e-05
-5.06182e-07
1.9751e-05
-5.95255e-07
1.98326e-05
-7.01096e-07
1.99288e-05
-8.26374e-07
2.00424e-05
-9.74139e-07
2.01767e-05
-1.14785e-06
2.03362e-05
-1.35142e-06
2.05261e-05
-1.58898e-06
2.0753e-05
-1.86545e-06
2.10259e-05
-2.18267e-06
2.13529e-05
-2.55625e-06
-2.9284e-06
2.17577e-05
1.92493e-05
-1.01388e-08
1.92528e-05
-2.9586e-08
1.92584e-05
-4.81512e-08
1.92659e-05
-6.57822e-08
1.92751e-05
-8.24471e-08
1.92859e-05
-9.82501e-08
1.92983e-05
-1.13525e-07
1.93122e-05
-1.28823e-07
1.93276e-05
-1.44837e-07
1.93447e-05
-1.62341e-07
1.93636e-05
-1.82174e-07
1.93847e-05
-2.05234e-07
1.94082e-05
-2.32506e-07
1.94346e-05
-2.65092e-07
1.94644e-05
-3.04257e-07
1.94985e-05
-3.51454e-07
1.95376e-05
-4.08328e-07
1.95828e-05
-4.76723e-07
1.96353e-05
-5.58699e-07
1.96966e-05
-6.56569e-07
1.97685e-05
-7.72967e-07
1.98531e-05
-9.10916e-07
1.99528e-05
-1.07393e-06
2.00711e-05
-1.2661e-06
2.02118e-05
-1.49216e-06
2.03803e-05
-1.75747e-06
2.05832e-05
-2.06837e-06
2.08302e-05
-2.42962e-06
2.11303e-05
-2.8564e-06
-3.30947e-06
2.15114e-05
1.92492e-05
-1.11816e-08
1.92522e-05
-3.26362e-08
1.92571e-05
-5.30715e-08
1.92638e-05
-7.24079e-08
1.9272e-05
-9.06271e-08
1.92816e-05
-1.07868e-07
1.92925e-05
-1.24505e-07
1.93049e-05
-1.41128e-07
1.93185e-05
-1.58483e-07
1.93336e-05
-1.77412e-07
1.93502e-05
-1.9882e-07
1.93687e-05
-2.2368e-07
1.93892e-05
-2.53045e-07
1.94122e-05
-2.88097e-07
1.94381e-05
-3.30195e-07
1.94676e-05
-3.80906e-07
1.95013e-05
-4.42009e-07
1.954e-05
-5.15492e-07
1.95849e-05
-6.03578e-07
1.96371e-05
-7.08776e-07
1.96981e-05
-8.33958e-07
1.97697e-05
-9.82468e-07
1.9854e-05
-1.15825e-06
1.99539e-05
-1.36598e-06
2.00729e-05
-1.61124e-06
2.02161e-05
-1.90062e-06
2.03898e-05
-2.24211e-06
2.06039e-05
-2.64373e-06
2.08682e-05
-3.12062e-06
-3.65514e-06
2.12138e-05
1.9249e-05
-1.20784e-08
1.92517e-05
-3.5259e-08
1.92559e-05
-5.73106e-08
1.92616e-05
-7.81286e-08
1.92687e-05
-9.76972e-08
1.9277e-05
-1.16179e-07
1.92865e-05
-1.3398e-07
1.92971e-05
-1.51728e-07
1.93088e-05
-1.70209e-07
1.93217e-05
-1.9032e-07
1.93359e-05
-2.13028e-07
1.93516e-05
-2.39361e-07
1.9369e-05
-2.70427e-07
1.93883e-05
-3.07468e-07
1.94101e-05
-3.51916e-07
1.94346e-05
-4.05427e-07
1.94625e-05
-4.69878e-07
1.94943e-05
-5.47369e-07
1.9531e-05
-6.40245e-07
1.95734e-05
-7.51158e-07
1.96226e-05
-8.83167e-07
1.968e-05
-1.03987e-06
1.97473e-05
-1.22556e-06
1.98268e-05
-1.44543e-06
1.99214e-05
-1.70586e-06
2.00354e-05
-2.01463e-06
2.01746e-05
-2.38137e-06
2.03484e-05
-2.81753e-06
2.05665e-05
-3.33867e-06
-3.95078e-06
2.08621e-05
1.92489e-05
-1.28263e-08
1.92511e-05
-3.74456e-08
1.92546e-05
-6.08472e-08
1.92594e-05
-8.29052e-08
1.92653e-05
-1.03601e-07
1.92722e-05
-1.23112e-07
1.92801e-05
-1.41869e-07
1.92889e-05
-1.60527e-07
1.92986e-05
-1.79908e-07
1.93092e-05
-2.00949e-07
1.93209e-05
-2.24666e-07
1.93336e-05
-2.5213e-07
1.93477e-05
-2.84488e-07
1.93633e-05
-3.2302e-07
1.93805e-05
-3.69209e-07
1.93999e-05
-4.2477e-07
1.94217e-05
-4.91649e-07
1.94463e-05
-5.72013e-07
1.94743e-05
-6.68279e-07
1.95064e-05
-7.83188e-07
1.95431e-05
-9.19912e-07
1.95855e-05
-1.08221e-06
1.96345e-05
-1.27463e-06
1.96919e-05
-1.50277e-06
1.97596e-05
-1.77362e-06
1.9841e-05
-2.09599e-06
1.99407e-05
-2.48103e-06
2.00666e-05
-2.94348e-06
2.02275e-05
-3.4996e-06
-4.17948e-06
2.04562e-05
1.92487e-05
-1.34221e-08
1.92505e-05
-3.91869e-08
1.92533e-05
-6.3663e-08
1.92571e-05
-8.67068e-08
1.92618e-05
-1.08294e-07
1.92673e-05
-1.28611e-07
1.92735e-05
-1.48106e-07
1.92804e-05
-1.67453e-07
1.9288e-05
-1.875e-07
1.92963e-05
-2.09213e-07
1.93053e-05
-2.33641e-07
1.9315e-05
-2.61886e-07
1.93257e-05
-2.95115e-07
1.93373e-05
-3.3463e-07
1.935e-05
-3.81937e-07
1.9364e-05
-4.38784e-07
1.93795e-05
-5.07145e-07
1.93967e-05
-5.89212e-07
1.94158e-05
-6.87423e-07
1.94372e-05
-8.04539e-07
1.9461e-05
-9.43764e-07
1.94878e-05
-1.10891e-06
1.95178e-05
-1.30465e-06
1.95518e-05
-1.53677e-06
1.95908e-05
-1.81266e-06
1.96367e-05
-2.14187e-06
1.96924e-05
-2.53671e-06
1.97635e-05
-3.01466e-06
1.98566e-05
-3.5927e-06
-4.32333e-06
2.00005e-05
1.92486e-05
-1.38631e-08
1.92499e-05
-4.04753e-08
1.92519e-05
-6.57444e-08
1.92547e-05
-8.95113e-08
1.92582e-05
-1.11745e-07
1.92622e-05
-1.32638e-07
1.92668e-05
-1.52646e-07
1.92718e-05
-1.72458e-07
1.92772e-05
-1.92932e-07
1.9283e-05
-2.15055e-07
1.92893e-05
-2.39896e-07
1.9296e-05
-2.68569e-07
1.93031e-05
-3.02248e-07
1.93107e-05
-3.42233e-07
1.93188e-05
-3.90036e-07
1.93274e-05
-4.47403e-07
1.93366e-05
-5.16299e-07
1.93463e-05
-5.98897e-07
1.93565e-05
-6.97598e-07
1.9367e-05
-8.15112e-07
1.93778e-05
-9.54581e-07
1.93887e-05
-1.11976e-06
1.93993e-05
-1.31524e-06
1.94093e-05
-1.54681e-06
1.94186e-05
-1.82194e-06
1.94272e-05
-2.15045e-06
1.94357e-05
-2.54525e-06
1.94467e-05
-3.02561e-06
1.94628e-05
-3.60889e-06
-4.36554e-06
1.95051e-05
1.92484e-05
-1.4148e-08
1.92492e-05
-4.13065e-08
1.92506e-05
-6.70838e-08
1.92524e-05
-9.13067e-08
1.92546e-05
-1.13938e-07
1.92571e-05
-1.35171e-07
1.92599e-05
-1.55465e-07
1.9263e-05
-1.75513e-07
1.92662e-05
-1.96178e-07
1.92696e-05
-2.18451e-07
1.92731e-05
-2.43408e-07
1.92767e-05
-2.72162e-07
1.92804e-05
-3.05874e-07
1.9284e-05
-3.4583e-07
1.92874e-05
-3.93518e-07
1.92907e-05
-4.50654e-07
1.92935e-05
-5.1916e-07
1.92958e-05
-6.01141e-07
1.92971e-05
-6.98906e-07
1.9297e-05
-8.15041e-07
1.9295e-05
-9.52531e-07
1.92901e-05
-1.11493e-06
1.92815e-05
-1.30659e-06
1.92677e-05
-1.53302e-06
1.92471e-05
-1.80139e-06
1.92179e-05
-2.12124e-06
1.9178e-05
-2.50532e-06
1.91257e-05
-2.97332e-06
1.90591e-05
-3.54224e-06
-4.29331e-06
1.89868e-05
1.92483e-05
-1.4275e-08
1.92486e-05
-4.1682e-08
1.92492e-05
-6.7681e-08
1.925e-05
-9.20913e-08
1.92509e-05
-1.14869e-07
1.9252e-05
-1.36205e-07
1.92531e-05
-1.56558e-07
1.92542e-05
-1.76617e-07
1.92552e-05
-1.97238e-07
1.92562e-05
-2.19408e-07
1.9257e-05
-2.44192e-07
1.92575e-05
-2.72687e-07
1.92577e-05
-3.06032e-07
1.92573e-05
-3.45476e-07
1.92563e-05
-3.92463e-07
1.92543e-05
-4.48653e-07
1.9251e-05
-5.15886e-07
1.9246e-05
-5.96157e-07
1.92387e-05
-6.9163e-07
1.92284e-05
-8.04698e-07
1.92139e-05
-9.38092e-07
1.9194e-05
-1.09503e-06
1.91669e-05
-1.27946e-06
1.91302e-05
-1.49631e-06
1.90809e-05
-1.75205e-06
1.9015e-05
-2.05536e-06
1.89276e-05
-2.41789e-06
1.88124e-05
-2.85816e-06
1.86618e-05
-3.3916e-06
-4.10099e-06
1.84694e-05
1.92481e-05
-1.42496e-08
1.9248e-05
-4.16018e-08
1.92479e-05
-6.75412e-08
1.92477e-05
-9.1874e-08
1.92474e-05
-1.1455e-07
1.92469e-05
-1.35754e-07
1.92463e-05
-1.55941e-07
1.92455e-05
-1.7579e-07
1.92444e-05
-1.9614e-07
1.92429e-05
-2.17959e-07
1.9241e-05
-2.42291e-07
1.92385e-05
-2.70206e-07
1.92353e-05
-3.02803e-07
1.92311e-05
-3.41282e-07
1.92257e-05
-3.87023e-07
1.92186e-05
-4.41599e-07
1.92095e-05
-5.06739e-07
1.91976e-05
-5.84291e-07
1.91822e-05
-6.76224e-07
1.91622e-05
-7.84678e-07
1.91361e-05
-9.12048e-07
1.91022e-05
-1.0611e-06
1.90579e-05
-1.23518e-06
1.9e-05
-1.43842e-06
1.89241e-05
-1.67618e-06
1.88244e-05
-1.95567e-06
1.86931e-05
-2.28653e-06
1.85193e-05
-2.6844e-06
1.82895e-05
-3.16178e-06
-3.79286e-06
1.79814e-05
1.9248e-05
-1.40708e-08
1.92474e-05
-4.10808e-08
1.92466e-05
-6.66823e-08
1.92454e-05
-9.06756e-08
1.92438e-05
-1.13003e-07
1.92419e-05
-1.33845e-07
1.92396e-05
-1.53647e-07
1.92369e-05
-1.73071e-07
1.92337e-05
-1.92933e-07
1.92299e-05
-2.14169e-07
1.92254e-05
-2.37787e-07
1.922e-05
-2.64818e-07
1.92135e-05
-2.96313e-07
1.92057e-05
-3.33409e-07
1.9196e-05
-3.77404e-07
1.91842e-05
-4.29762e-07
1.91695e-05
-4.92071e-07
1.91512e-05
-5.66002e-07
1.91283e-05
-6.53292e-07
1.90994e-05
-7.55777e-07
1.90628e-05
-8.75448e-07
1.90162e-05
-1.01453e-06
1.89567e-05
-1.17561e-06
1.88801e-05
-1.36182e-06
1.8781e-05
-1.5771e-06
1.8652e-05
-1.82666e-06
1.84828e-05
-2.11734e-06
1.82588e-05
-2.46038e-06
1.79611e-05
-2.86405e-06
-3.3845e-06
1.75527e-05
1.92478e-05
-1.37455e-08
1.92469e-05
-4.01315e-08
1.92453e-05
-6.51275e-08
1.92432e-05
-8.85275e-08
1.92404e-05
-1.10269e-07
1.92371e-05
-1.30525e-07
1.92332e-05
-1.49729e-07
1.92286e-05
-1.68521e-07
1.92234e-05
-1.87687e-07
1.92173e-05
-2.08123e-07
1.92103e-05
-2.30787e-07
1.92022e-05
-2.56656e-07
1.91926e-05
-2.86725e-07
1.91812e-05
-3.2206e-07
1.91677e-05
-3.63863e-07
1.91514e-05
-4.13471e-07
1.91317e-05
-4.7231e-07
1.91075e-05
-5.41846e-07
1.90778e-05
-6.23561e-07
1.90409e-05
-7.18953e-07
1.89951e-05
-8.29564e-07
1.89375e-05
-9.57012e-07
1.8865e-05
-1.10305e-06
1.87728e-05
-1.26964e-06
1.86548e-05
-1.4591e-06
1.85024e-05
-1.67428e-06
1.83037e-05
-1.91868e-06
1.80414e-05
-2.19804e-06
1.76928e-05
-2.51545e-06
-2.90209e-06
1.72104e-05
1.92477e-05
-1.32809e-08
1.92463e-05
-3.87752e-08
1.92441e-05
-6.29101e-08
1.9241e-05
-8.54733e-08
1.92372e-05
-1.06399e-07
1.92325e-05
-1.25854e-07
1.9227e-05
-1.44257e-07
1.92207e-05
-1.62222e-07
1.92135e-05
-1.80498e-07
1.92053e-05
-1.9993e-07
1.9196e-05
-2.21418e-07
1.91852e-05
-2.45877e-07
1.91727e-05
-2.74234e-07
1.91581e-05
-3.07479e-07
1.9141e-05
-3.46705e-07
1.91206e-05
-3.93109e-07
1.90962e-05
-4.47941e-07
1.90668e-05
-5.12451e-07
1.90311e-05
-5.87847e-07
1.89875e-05
-6.75279e-07
1.89337e-05
-7.75819e-07
1.88672e-05
-8.90454e-07
1.87842e-05
-1.02006e-06
1.86799e-05
-1.16541e-06
1.85479e-05
-1.32706e-06
1.8379e-05
-1.5054e-06
1.81607e-05
-1.70038e-06
1.78744e-05
-1.91176e-06
1.74961e-05
-2.13714e-06
-2.37951e-06
1.69735e-05
1.92475e-05
-1.26861e-08
1.92458e-05
-3.70398e-08
1.9243e-05
-6.00732e-08
1.92391e-05
-8.15679e-08
1.92341e-05
-1.01457e-07
1.92282e-05
-1.19906e-07
1.92212e-05
-1.37317e-07
1.92133e-05
-1.54273e-07
1.92043e-05
-1.71477e-07
1.9194e-05
-1.89719e-07
1.91825e-05
-2.09833e-07
1.91692e-05
-2.32663e-07
1.91541e-05
-2.59064e-07
1.91365e-05
-2.89937e-07
1.91161e-05
-3.26262e-07
1.90921e-05
-3.69089e-07
1.90636e-05
-4.19487e-07
1.90297e-05
-4.78484e-07
1.89888e-05
-5.47018e-07
1.89394e-05
-6.25891e-07
1.88793e-05
-7.15716e-07
1.88057e-05
-8.16866e-07
1.87151e-05
-9.29378e-07
1.86025e-05
-1.05284e-06
1.84616e-05
-1.18615e-06
1.82835e-05
-1.32732e-06
1.8056e-05
-1.47288e-06
1.77611e-05
-1.6169e-06
1.73758e-05
-1.75183e-06
-1.85388e-06
1.68502e-05
1.92474e-05
-1.19733e-08
1.92453e-05
-3.49607e-08
1.92419e-05
-5.66707e-08
1.92372e-05
-7.6878e-08
1.92313e-05
-9.55215e-08
1.92242e-05
-1.12769e-07
1.92159e-05
-1.29008e-07
1.92064e-05
-1.44784e-07
1.91957e-05
-1.60751e-07
1.91836e-05
-1.77635e-07
1.91699e-05
-1.96199e-07
1.91545e-05
-2.17214e-07
1.91369e-05
-2.41453e-07
1.91167e-05
-2.69722e-07
1.90933e-05
-3.02885e-07
1.9066e-05
-3.41843e-07
1.9034e-05
-3.87487e-07
1.89962e-05
-4.40631e-07
1.89511e-05
-5.01953e-07
1.88972e-05
-5.71929e-07
1.88322e-05
-6.50754e-07
1.87536e-05
-7.3824e-07
1.86579e-05
-8.33669e-07
1.85406e-05
-9.3558e-07
1.83959e-05
-1.04143e-06
1.82157e-05
-1.14712e-06
1.79891e-05
-1.24627e-06
1.77003e-05
-1.32814e-06
1.73295e-05
-1.38103e-06
-1.35923e-06
1.68349e-05
1.92473e-05
-1.11578e-08
1.92449e-05
-3.2583e-08
1.9241e-05
-5.27691e-08
1.92356e-05
-7.14814e-08
1.92288e-05
-8.86788e-08
1.92206e-05
-1.04543e-07
1.9211e-05
-1.19444e-07
1.92001e-05
-1.33884e-07
1.91878e-05
-1.48461e-07
1.9174e-05
-1.63837e-07
1.91585e-05
-1.80702e-07
1.91411e-05
-1.99744e-07
1.91213e-05
-2.2165e-07
1.90987e-05
-2.47131e-07
1.90727e-05
-2.76931e-07
1.90427e-05
-3.11809e-07
1.90077e-05
-3.52482e-07
1.89666e-05
-3.99567e-07
1.89182e-05
-4.53506e-07
1.88607e-05
-5.1449e-07
1.87923e-05
-5.82352e-07
1.87105e-05
-6.56439e-07
1.86123e-05
-7.35412e-07
1.84937e-05
-8.16976e-07
1.83497e-05
-8.97438e-07
1.81736e-05
-9.71096e-07
1.79568e-05
-1.02939e-06
1.76867e-05
-1.05811e-06
1.73484e-05
-1.0427e-06
-9.23253e-07
1.69124e-05
1.92472e-05
-1.02598e-08
1.92446e-05
-2.99662e-08
1.92403e-05
-4.84496e-08
1.92343e-05
-6.54665e-08
1.92266e-05
-8.10253e-08
1.92174e-05
-9.53377e-08
1.92067e-05
-1.08748e-07
1.91946e-05
-1.21709e-07
1.91809e-05
-1.3476e-07
1.91655e-05
-1.48499e-07
1.91483e-05
-1.63536e-07
1.91291e-05
-1.80474e-07
1.91073e-05
-1.99913e-07
1.90827e-05
-2.22465e-07
1.90545e-05
-2.48759e-07
1.90221e-05
-2.79415e-07
1.89846e-05
-3.14992e-07
1.8941e-05
-3.55931e-07
1.889e-05
-4.02473e-07
1.883e-05
-4.54572e-07
1.87595e-05
-5.11784e-07
1.86761e-05
-5.73104e-07
1.85775e-05
-6.36748e-07
1.84603e-05
-6.99842e-07
1.83208e-05
-7.5793e-07
1.8154e-05
-8.04309e-07
1.79538e-05
-8.29113e-07
1.7712e-05
-8.16321e-07
1.74191e-05
-7.49834e-07
-5.64306e-07
1.70602e-05
1.92472e-05
-9.30745e-09
1.92444e-05
-2.71898e-08
1.92398e-05
-4.38104e-08
1.92332e-05
-5.89329e-08
1.92249e-05
-7.2668e-08
1.92148e-05
-8.52704e-08
1.92031e-05
-9.70502e-08
1.91898e-05
-1.08401e-07
1.91748e-05
-1.19807e-07
1.91581e-05
-1.31795e-07
1.91395e-05
-1.44896e-07
1.91187e-05
-1.59626e-07
1.90952e-05
-1.76495e-07
1.90688e-05
-1.96019e-07
1.90387e-05
-2.18713e-07
1.90044e-05
-2.45069e-07
1.89649e-05
-2.75506e-07
1.89193e-05
-3.1031e-07
1.88664e-05
-3.49562e-07
1.88049e-05
-3.93045e-07
1.87332e-05
-4.40122e-07
1.86497e-05
-4.89574e-07
1.85523e-05
-5.39368e-07
1.84388e-05
-5.86331e-07
1.83065e-05
-6.25665e-07
1.81525e-05
-6.50296e-07
1.79734e-05
-6.49973e-07
1.77656e-05
-6.08564e-07
1.75253e-05
-5.09551e-07
-2.90326e-07
1.72513e-05
1.92472e-05
-8.34726e-09
1.92444e-05
-2.43702e-08
1.92395e-05
-3.89594e-08
1.92325e-05
-5.19769e-08
1.92236e-05
-6.37223e-08
1.92128e-05
-7.44784e-08
1.92003e-05
-8.44999e-08
1.9186e-05
-9.41221e-08
1.91699e-05
-1.03773e-07
1.91521e-05
-1.13913e-07
1.91322e-05
-1.2499e-07
1.911e-05
-1.37432e-07
1.90851e-05
-1.51657e-07
1.90572e-05
-1.68085e-07
1.90256e-05
-1.87125e-07
1.89897e-05
-2.09151e-07
1.89486e-05
-2.3446e-07
1.89015e-05
-2.63216e-07
1.88474e-05
-2.95379e-07
1.87849e-05
-3.30622e-07
1.8713e-05
-3.68212e-07
1.86303e-05
-4.06852e-07
1.85354e-05
-4.44455e-07
1.84269e-05
-4.77845e-07
1.83035e-05
-5.02301e-07
1.81642e-05
-5.10948e-07
1.80082e-05
-4.94019e-07
1.78365e-05
-4.36819e-07
1.76504e-05
-3.23468e-07
-1.00283e-07
1.74604e-05
1.92472e-05
-7.46054e-09
1.92446e-05
-2.1702e-08
1.92396e-05
-3.40257e-08
1.92324e-05
-4.46859e-08
1.92229e-05
-5.42767e-08
1.92115e-05
-6.30656e-08
1.91982e-05
-7.1218e-08
1.91831e-05
-7.90102e-08
1.91662e-05
-8.68216e-08
1.91473e-05
-9.50406e-08
1.91263e-05
-1.04026e-07
1.9103e-05
-1.14117e-07
1.9077e-05
-1.25645e-07
1.90478e-05
-1.38938e-07
1.9015e-05
-1.54306e-07
1.89779e-05
-1.72017e-07
1.89357e-05
-1.92258e-07
1.88876e-05
-2.15094e-07
1.88326e-05
-2.40411e-07
1.87698e-05
-2.67838e-07
1.86982e-05
-2.96642e-07
1.8617e-05
-3.25577e-07
1.85252e-05
-3.52684e-07
1.84224e-05
-3.75031e-07
1.83084e-05
-3.88335e-07
1.81839e-05
-3.86475e-07
1.80509e-05
-3.60944e-07
1.79136e-05
-2.99536e-07
1.77787e-05
-1.88587e-07
1.36496e-08
1.76648e-05
1.92475e-05
-6.80031e-09
1.92452e-05
-1.94523e-08
1.92404e-05
-2.91566e-08
1.92329e-05
-3.72449e-08
1.92232e-05
-4.45146e-08
1.92113e-05
-5.11946e-08
1.91974e-05
-5.73498e-08
1.91816e-05
-6.32136e-08
1.91639e-05
-6.91104e-08
1.91442e-05
-7.53451e-08
1.91224e-05
-8.21882e-08
1.90981e-05
-8.98928e-08
1.90712e-05
-9.87025e-08
1.90411e-05
-1.08851e-07
1.90074e-05
-1.20554e-07
1.89693e-05
-1.33985e-07
1.89263e-05
-1.49246e-07
1.88776e-05
-1.66326e-07
1.88222e-05
-1.85069e-07
1.87595e-05
-2.05114e-07
1.86886e-05
-2.25804e-07
1.86091e-05
-2.46067e-07
1.85207e-05
-2.64246e-07
1.84236e-05
-2.77883e-07
1.83186e-05
-2.83413e-07
1.82079e-05
-2.75771e-07
1.80953e-05
-2.48282e-07
1.7988e-05
-1.92268e-07
1.7896e-05
-9.65792e-08
6.3703e-08
1.78459e-05
1.92482e-05
-6.88968e-09
1.92465e-05
-1.76959e-08
1.92416e-05
-2.4245e-08
1.9234e-05
-2.9712e-08
1.92241e-05
-3.45558e-08
1.92119e-05
-3.90402e-08
1.91977e-05
-4.3096e-08
1.91814e-05
-4.69443e-08
1.91631e-05
-5.08582e-08
1.91428e-05
-5.50571e-08
1.91204e-05
-5.97214e-08
1.90955e-05
-6.50171e-08
1.90679e-05
-7.11008e-08
1.90372e-05
-7.81142e-08
1.90028e-05
-8.61733e-08
1.89642e-05
-9.53595e-08
1.89206e-05
-1.05707e-07
1.88715e-05
-1.17176e-07
1.8816e-05
-1.29611e-07
1.87536e-05
-1.42695e-07
1.86837e-05
-1.559e-07
1.8606e-05
-1.68405e-07
1.85208e-05
-1.78972e-07
1.84286e-05
-1.85766e-07
1.83314e-05
-1.86211e-07
1.82323e-05
-1.76594e-07
1.81365e-05
-1.525e-07
1.80527e-05
-1.08525e-07
1.79942e-05
-3.80943e-08
6.68038e-08
1.79911e-05
1.92509e-05
-9.64624e-09
1.92492e-05
-1.60061e-08
1.92439e-05
-1.89914e-08
1.92361e-05
-2.18262e-08
1.92256e-05
-2.40927e-08
1.92128e-05
-2.62256e-08
1.91979e-05
-2.82495e-08
1.91812e-05
-3.02362e-08
1.91626e-05
-3.22747e-08
1.9142e-05
-3.44561e-08
1.91192e-05
-3.687e-08
1.90938e-05
-3.96024e-08
1.90654e-05
-4.27364e-08
1.90336e-05
-4.63467e-08
1.8998e-05
-5.04922e-08
1.89578e-05
-5.52111e-08
1.89126e-05
-6.05135e-08
1.88618e-05
-6.63613e-08
1.88048e-05
-7.26451e-08
1.87413e-05
-7.91601e-08
1.8671e-05
-8.55803e-08
1.8594e-05
-9.14202e-08
1.8511e-05
-9.59624e-08
1.84234e-05
-9.81512e-08
1.83337e-05
-9.65582e-08
1.82464e-05
-8.92649e-08
1.81674e-05
-7.353e-08
1.81054e-05
-4.65229e-08
1.80696e-05
-2.29991e-09
6.17411e-08
1.80747e-05
1.92385e-05
1.92225e-05
1.92035e-05
1.91817e-05
1.91576e-05
1.91313e-05
1.91031e-05
1.90729e-05
1.90406e-05
1.90061e-05
1.89693e-05
1.89297e-05
1.88869e-05
1.88406e-05
1.87901e-05
1.87349e-05
1.86744e-05
1.8608e-05
1.85353e-05
1.84562e-05
1.83706e-05
1.82792e-05
1.81832e-05
1.80851e-05
1.79885e-05
1.78993e-05
1.78257e-05
1.77792e-05
1.77769e-05
1.78386e-05
2.17592e-05
-1.02957e-05
1.07258e-05
2.13151e-05
-1.04176e-05
1.08617e-05
2.08434e-05
-1.05308e-05
1.10026e-05
2.03406e-05
-1.06325e-05
1.11353e-05
1.98136e-05
-1.07319e-05
1.12588e-05
1.92689e-05
-1.08329e-05
1.13776e-05
1.87108e-05
-1.09363e-05
1.14945e-05
1.81421e-05
-1.10433e-05
1.1612e-05
1.75648e-05
-1.1155e-05
1.17323e-05
1.69796e-05
-1.1272e-05
1.18573e-05
1.63864e-05
-1.1395e-05
1.19881e-05
1.57847e-05
-1.15242e-05
1.21259e-05
1.51738e-05
-1.16604e-05
1.22714e-05
1.45528e-05
-1.18048e-05
1.24257e-05
1.3921e-05
-1.19585e-05
1.25903e-05
1.32772e-05
-1.21232e-05
1.2767e-05
1.26201e-05
-1.23009e-05
1.29581e-05
1.19477e-05
-1.24938e-05
1.31661e-05
1.12577e-05
-1.27044e-05
1.33944e-05
1.05467e-05
-1.2936e-05
1.36469e-05
9.81075e-06
-1.31923e-05
1.39283e-05
9.04415e-06
-1.34781e-05
1.42447e-05
8.23964e-06
-1.37987e-05
1.46033e-05
7.38722e-06
-1.41619e-05
1.50143e-05
6.47331e-06
-1.45737e-05
1.54876e-05
5.47865e-06
-1.50497e-05
1.60444e-05
4.38225e-06
-1.55875e-05
1.66839e-05
3.11581e-06
-1.62383e-05
1.75048e-05
1.74307e-06
-1.68817e-05
1.82545e-05
-1.80266e-05
1.97697e-05
2.18971e-05
-9.82835e-06
2.1394e-05
-9.91447e-06
2.08661e-05
-1.0003e-05
2.03243e-05
-1.00907e-05
1.97733e-05
-1.01809e-05
1.92153e-05
-1.02749e-05
1.86516e-05
-1.03726e-05
1.80823e-05
-1.0474e-05
1.75067e-05
-1.05794e-05
1.69239e-05
-1.06892e-05
1.63328e-05
-1.08039e-05
1.57326e-05
-1.0924e-05
1.51226e-05
-1.10504e-05
1.45021e-05
-1.11842e-05
1.38703e-05
-1.13266e-05
1.32259e-05
-1.14789e-05
1.25676e-05
-1.16426e-05
1.18932e-05
-1.18194e-05
1.12002e-05
-1.20114e-05
1.04854e-05
-1.22211e-05
9.7444e-06
-1.24514e-05
8.97186e-06
-1.27055e-05
8.16059e-06
-1.29875e-05
7.30101e-06
-1.33023e-05
6.38054e-06
-1.36532e-05
5.38216e-06
-1.40513e-05
4.28262e-06
-1.4488e-05
3.04752e-06
-1.50032e-05
1.67227e-06
-1.55065e-05
-1.63543e-05
2.18101e-05
-9.32053e-06
2.12886e-05
-9.39301e-06
2.07558e-05
-9.47018e-06
2.02169e-05
-9.5518e-06
1.9673e-05
-9.63696e-06
1.9123e-05
-9.72495e-06
1.8566e-05
-9.81564e-06
1.80013e-05
-9.90928e-06
1.74283e-05
-1.00064e-05
1.68464e-05
-1.01074e-05
1.62555e-05
-1.0213e-05
1.56552e-05
-1.03237e-05
1.5045e-05
-1.04403e-05
1.44243e-05
-1.05636e-05
1.37922e-05
-1.06944e-05
1.31472e-05
-1.08339e-05
1.24877e-05
-1.09831e-05
1.18116e-05
-1.11433e-05
1.11163e-05
-1.13161e-05
1.03985e-05
-1.15033e-05
9.65401e-06
-1.17069e-05
8.87748e-06
-1.1929e-05
8.06202e-06
-1.2172e-05
7.19856e-06
-1.24388e-05
6.27552e-06
-1.27302e-05
5.27728e-06
-1.30531e-05
4.18324e-06
-1.3394e-05
2.96868e-06
-1.37887e-05
1.6035e-06
-1.41413e-05
-1.47508e-05
2.17195e-05
-8.80518e-06
2.11961e-05
-8.86958e-06
2.06642e-05
-8.93831e-06
2.01256e-05
-9.01317e-06
1.95804e-05
-9.0918e-06
1.9028e-05
-9.17251e-06
1.84678e-05
-9.25544e-06
1.78998e-05
-9.34126e-06
1.73239e-05
-9.43048e-06
1.67399e-05
-9.52345e-06
1.61475e-05
-9.62057e-06
1.55462e-05
-9.72229e-06
1.4935e-05
-9.82915e-06
1.43132e-05
-9.94174e-06
1.36795e-05
-1.00607e-05
1.30325e-05
-1.01869e-05
1.23705e-05
-1.03211e-05
1.16914e-05
-1.04642e-05
1.09927e-05
-1.06174e-05
1.0271e-05
-1.07817e-05
9.52235e-06
-1.09582e-05
8.74159e-06
-1.11483e-05
7.92223e-06
-1.13526e-05
7.05593e-06
-1.15725e-05
6.13228e-06
-1.18066e-05
5.13736e-06
-1.20581e-05
4.0542e-06
-1.23108e-05
2.86175e-06
-1.25962e-05
1.52631e-06
-1.28059e-05
-1.32245e-05
2.15938e-05
-8.28431e-06
2.10661e-05
-8.34187e-06
2.05309e-05
-8.40316e-06
1.99892e-05
-8.4714e-06
1.9441e-05
-8.54364e-06
1.88861e-05
-8.61761e-06
1.83241e-05
-8.69348e-06
1.77549e-05
-8.77205e-06
1.71782e-05
-8.85371e-06
1.65934e-05
-8.93866e-06
1.6e-05
-9.02716e-06
1.53972e-05
-9.11957e-06
1.47844e-05
-9.21631e-06
1.41605e-05
-9.31782e-06
1.35244e-05
-9.42461e-06
1.28747e-05
-9.53718e-06
1.22097e-05
-9.65609e-06
1.15274e-05
-9.78191e-06
1.08252e-05
-9.9152e-06
1.01e-05
-1.00565e-05
9.34797e-06
-1.02062e-05
8.56425e-06
-1.03645e-05
7.74293e-06
-1.05313e-05
6.87652e-06
-1.07061e-05
5.9559e-06
-1.08859e-05
4.969e-06
-1.10712e-05
3.90216e-06
-1.1244e-05
2.7365e-06
-1.14305e-05
1.44385e-06
-1.15132e-05
-1.17807e-05
2.14317e-05
-7.75893e-06
2.09003e-05
-7.81042e-06
2.03621e-05
-7.865e-06
1.98177e-05
-7.92698e-06
1.92671e-05
-7.99303e-06
1.87099e-05
-8.06044e-06
1.81458e-05
-8.12935e-06
1.75743e-05
-8.20062e-06
1.69952e-05
-8.2746e-06
1.6408e-05
-8.35139e-06
1.5812e-05
-8.43115e-06
1.52065e-05
-8.51415e-06
1.45909e-05
-8.60069e-06
1.39641e-05
-8.69106e-06
1.33251e-05
-8.78554e-06
1.26723e-05
-8.88442e-06
1.20042e-05
-8.98797e-06
1.13187e-05
-9.09641e-06
1.06134e-05
-9.20989e-06
9.88536e-06
-9.32843e-06
9.13098e-06
-9.45181e-06
8.34594e-06
-9.5795e-06
7.52494e-06
-9.71032e-06
6.66144e-06
-9.8426e-06
5.7477e-06
-9.97221e-06
4.7736e-06
-1.00971e-05
3.72847e-06
-1.01988e-05
2.59601e-06
-1.02981e-05
1.35673e-06
-1.02739e-05
-1.04239e-05
2.12278e-05
-7.22908e-06
2.06924e-05
-7.27498e-06
2.01507e-05
-7.32333e-06
1.9603e-05
-7.37925e-06
1.90492e-05
-7.43918e-06
1.84889e-05
-7.50012e-06
1.79217e-05
-7.56217e-06
1.73473e-05
-7.62621e-06
1.67652e-05
-7.69257e-06
1.61751e-05
-7.76124e-06
1.55762e-05
-7.83229e-06
1.4968e-05
-7.90588e-06
1.43495e-05
-7.9822e-06
1.37198e-05
-8.06139e-06
1.30778e-05
-8.14355e-06
1.24221e-05
-8.22876e-06
1.17512e-05
-8.31705e-06
1.10632e-05
-8.40834e-06
1.03557e-05
-8.50242e-06
9.62613e-06
-8.59888e-06
8.87129e-06
-8.69697e-06
8.08734e-06
-8.79554e-06
7.2697e-06
-8.89269e-06
6.41287e-06
-8.98577e-06
5.51053e-06
-9.06987e-06
4.55449e-06
-9.1411e-06
3.53694e-06
-9.18128e-06
2.44451e-06
-9.20565e-06
1.26673e-06
-9.09615e-06
-9.15721e-06
2.09769e-05
-6.69461e-06
2.04373e-05
-6.73534e-06
1.98918e-05
-6.77786e-06
1.93405e-05
-6.82792e-06
1.87832e-05
-6.88183e-06
1.82194e-05
-6.93641e-06
1.7649e-05
-6.99171e-06
1.70714e-05
-7.04861e-06
1.64862e-05
-7.10741e-06
1.5893e-05
-7.16802e-06
1.52911e-05
-7.23041e-06
1.46799e-05
-7.29466e-06
1.40585e-05
-7.36084e-06
1.34261e-05
-7.42896e-06
1.27815e-05
-7.49897e-06
1.21236e-05
-7.57079e-06
1.14507e-05
-7.64421e-06
1.07613e-05
-7.7189e-06
1.00532e-05
-7.79436e-06
9.32416e-06
-7.86982e-06
8.57134e-06
-7.94415e-06
7.79148e-06
-8.01568e-06
6.98081e-06
-8.08202e-06
6.13488e-06
-8.13985e-06
5.24877e-06
-8.18376e-06
4.31623e-06
-8.20856e-06
3.33212e-06
-8.19716e-06
2.28611e-06
-8.15964e-06
1.17602e-06
-7.98606e-06
-7.98119e-06
2.06747e-05
-6.15545e-06
2.01307e-05
-6.19138e-06
1.95813e-05
-6.22849e-06
1.90263e-05
-6.27286e-06
1.84653e-05
-6.32085e-06
1.78981e-05
-6.3692e-06
1.73243e-05
-6.41789e-06
1.67435e-05
-6.4678e-06
1.61552e-05
-6.51918e-06
1.55591e-05
-6.57188e-06
1.49544e-05
-6.62578e-06
1.43407e-05
-6.6809e-06
1.3717e-05
-6.73719e-06
1.30826e-05
-6.79456e-06
1.24365e-05
-6.85284e-06
1.17775e-05
-6.91177e-06
1.11043e-05
-6.97098e-06
1.04153e-05
-7.02995e-06
9.70889e-06
-7.08793e-06
8.98295e-06
-7.14389e-06
8.2352e-06
-7.19639e-06
7.46299e-06
-7.24348e-06
6.66335e-06
-7.28238e-06
5.83289e-06
-7.30939e-06
4.96804e-06
-7.31891e-06
4.06442e-06
-7.30494e-06
3.11924e-06
-7.25198e-06
2.12507e-06
-7.16547e-06
1.08666e-06
-6.94765e-06
-6.89453e-06
2.03184e-05
-5.61169e-06
1.97702e-05
-5.64322e-06
1.92171e-05
-5.67535e-06
1.86585e-05
-5.71427e-06
1.80941e-05
-5.75648e-06
1.75237e-05
-5.79877e-06
1.69469e-05
-5.84107e-06
1.63633e-05
-5.88422e-06
1.57725e-05
-5.92843e-06
1.51742e-05
-5.97349e-06
1.45676e-05
-6.01922e-06
1.39523e-05
-6.06556e-06
1.33275e-05
-6.1124e-06
1.26924e-05
-6.15954e-06
1.20463e-05
-6.2067e-06
1.1388e-05
-6.25351e-06
1.07165e-05
-6.29946e-06
1.00305e-05
-6.34388e-06
9.32838e-06
-6.38585e-06
8.60866e-06