/*--------------------------------*- C++ -*----------------------------------*\
  =========                 |
  \\      /  F ield         | OpenFOAM: The Open Source CFD Toolbox
   \\    /   O peration     | Website:  https://openfoam.org
    \\  /    A nd           | Version:  11
     \\/     M anipulation  |
\*---------------------------------------------------------------------------*/
FoamFile
{
    format      ascii;
    class       volScalarField;
    location    "3.5";
    object      p;
}
// * * * * * * * * * * * * * * * * * * * * * * * * * * * * * * * * * * * * * //

dimensions      [0 2 -2 0 0 0 0];

internalField   nonuniform List<scalar> 
12600
(
0.977557
0.977423
0.977354
0.977325
0.977294
0.977251
0.9772
0.977141
0.977072
0.97699
0.976892
0.976775
0.976634
0.976464
0.976257
0.976005
0.975696
0.975319
0.974851
0.974275
0.973573
0.97271
0.971638
0.970301
0.968631
0.966534
0.963889
0.960533
0.956292
0.950832
0.977486
0.977415
0.977357
0.977325
0.977293
0.977252
0.977201
0.977143
0.977075
0.976995
0.976898
0.976783
0.976643
0.976475
0.976271
0.976022
0.975719
0.975349
0.974888
0.974316
0.973624
0.972774
0.971716
0.970398
0.968749
0.966677
0.96406
0.960744
0.956508
0.951096
0.977454
0.977418
0.977368
0.97733
0.977297
0.977257
0.977208
0.977151
0.977084
0.977005
0.976911
0.976797
0.976661
0.976496
0.976296
0.976053
0.975756
0.975393
0.974943
0.974389
0.973715
0.972884
0.971851
0.970563
0.968951
0.966925
0.964361
0.961113
0.956919
0.951617
0.977433
0.97741
0.977369
0.977332
0.977298
0.977261
0.977214
0.977159
0.977094
0.977017
0.976926
0.976816
0.976684
0.976525
0.976331
0.976096
0.975809
0.975458
0.975026
0.974495
0.973844
0.973041
0.972045
0.970802
0.969246
0.967289
0.964806
0.961656
0.957562
0.952397
0.97742
0.977404
0.977372
0.977338
0.977306
0.977269
0.977225
0.977171
0.977109
0.977035
0.976947
0.976842
0.976716
0.976563
0.976379
0.976154
0.97588
0.975546
0.975134
0.974629
0.974009
0.973244
0.972295
0.971112
0.969628
0.96776
0.965385
0.962368
0.958419
0.953443
0.977412
0.977401
0.977375
0.977344
0.977313
0.977277
0.977235
0.977185
0.977125
0.977055
0.976972
0.976873
0.976753
0.976609
0.976435
0.976224
0.975966
0.975651
0.975265
0.97479
0.974208
0.97349
0.972598
0.971487
0.970093
0.968335
0.966095
0.963243
0.959485
0.954746
0.977409
0.9774
0.977379
0.977351
0.977321
0.977288
0.977248
0.977201
0.977146
0.97708
0.977002
0.97691
0.976798
0.976664
0.976502
0.976305
0.976066
0.975774
0.975417
0.974979
0.97444
0.973776
0.972952
0.971925
0.970635
0.969007
0.966928
0.964274
0.96075
0.956298
0.977409
0.977401
0.977383
0.977359
0.977331
0.9773
0.977263
0.97722
0.977168
0.977108
0.977036
0.97695
0.976848
0.976725
0.976577
0.976397
0.976179
0.975913
0.975588
0.97519
0.974701
0.974098
0.973351
0.972418
0.971247
0.969768
0.967873
0.965448
0.962203
0.95809
0.977411
0.977404
0.97739
0.977368
0.977343
0.977314
0.97728
0.97724
0.977193
0.977138
0.977073
0.976996
0.976904
0.976793
0.97666
0.976499
0.976305
0.976067
0.975778
0.975424
0.974989
0.974454
0.97379
0.972962
0.971923
0.970608
0.96892
0.966752
0.963827
0.960107
0.977415
0.97741
0.977397
0.977378
0.977355
0.977329
0.977299
0.977263
0.977221
0.977172
0.977114
0.977045
0.976964
0.976867
0.97675
0.97661
0.97644
0.976234
0.975983
0.975676
0.9753
0.974837
0.974264
0.97355
0.972652
0.971516
0.970054
0.96817
0.965605
0.962328
0.977421
0.977417
0.977406
0.977389
0.977369
0.977346
0.977319
0.977287
0.97725
0.977207
0.977157
0.977098
0.977028
0.976946
0.976847
0.976728
0.976585
0.976411
0.976201
0.975944
0.97563
0.975244
0.974767
0.974173
0.973426
0.972481
0.971259
0.969682
0.967512
0.964726
0.977429
0.977425
0.977416
0.977402
0.977384
0.977363
0.97734
0.977312
0.977281
0.977245
0.977202
0.977154
0.977096
0.977028
0.976948
0.976852
0.976736
0.976597
0.976429
0.976225
0.975976
0.97567
0.975293
0.974824
0.974234
0.973487
0.97252
0.971266
0.96952
0.967265
0.977439
0.977435
0.977427
0.977415
0.977399
0.977382
0.977362
0.977339
0.977313
0.977283
0.97725
0.977211
0.977166
0.977114
0.977053
0.97698
0.976894
0.97679
0.976666
0.976515
0.976333
0.976109
0.975834
0.975493
0.975065
0.974522
0.973815
0.972895
0.971595
0.969902
0.977449
0.977446
0.977439
0.977429
0.977416
0.977401
0.977385
0.977366
0.977346
0.977324
0.977298
0.97727
0.977239
0.977202
0.97716
0.977112
0.977055
0.976987
0.976908
0.976812
0.976697
0.976557
0.976385
0.976173
0.975907
0.975569
0.975126
0.974544
0.973699
0.972586
0.97746
0.977458
0.977452
0.977443
0.977433
0.977421
0.977408
0.977394
0.97738
0.977364
0.977348
0.977331
0.977312
0.977292
0.97727
0.977245
0.977218
0.977187
0.977152
0.977111
0.977064
0.977007
0.976939
0.976855
0.97675
0.976615
0.976432
0.976185
0.975793
0.97526
0.977473
0.977471
0.977466
0.977458
0.97745
0.977441
0.977432
0.977423
0.977414
0.977405
0.977398
0.977391
0.977385
0.977381
0.977379
0.977379
0.977381
0.977387
0.977396
0.97741
0.977429
0.977455
0.977488
0.97753
0.977582
0.977643
0.977712
0.977788
0.977834
0.977865
0.977486
0.977484
0.97748
0.977474
0.977467
0.977461
0.977455
0.977451
0.977447
0.977446
0.977447
0.977451
0.977459
0.97747
0.977488
0.977511
0.977543
0.977584
0.977637
0.977705
0.977789
0.977895
0.978027
0.97819
0.978392
0.978641
0.978948
0.979326
0.979782
0.98034
0.977499
0.977498
0.977494
0.97749
0.977485
0.977481
0.977479
0.977479
0.977481
0.977486
0.977496
0.97751
0.97753
0.977558
0.977594
0.977642
0.977702
0.977778
0.977873
0.977993
0.978141
0.978324
0.97855
0.978828
0.979172
0.979596
0.980122
0.980776
0.981601
0.982629
0.977514
0.977512
0.977509
0.977505
0.977502
0.977501
0.977502
0.977506
0.977513
0.977525
0.977543
0.977568
0.9776
0.977643
0.977698
0.977768
0.977856
0.977965
0.978102
0.978271
0.978479
0.978735
0.97905
0.979437
0.979911
0.980495
0.981218
0.982116
0.983259
0.984686
0.977528
0.977527
0.977524
0.977521
0.977519
0.97752
0.977524
0.977532
0.977545
0.977563
0.977589
0.977623
0.977667
0.977725
0.977797
0.977889
0.978003
0.978145
0.97832
0.978536
0.978801
0.979126
0.979524
0.98001
0.980604
0.98133
0.982225
0.98333
0.984732
0.986475
0.977543
0.977542
0.977539
0.977536
0.977535
0.977538
0.977545
0.977557
0.977574
0.977599
0.977632
0.977675
0.977731
0.977802
0.977892
0.978003
0.978142
0.978314
0.978526
0.978786
0.979104
0.979493
0.979966
0.980543
0.981243
0.982095
0.983135
0.984408
0.986008
0.987975
0.977559
0.977558
0.977554
0.977551
0.977551
0.977556
0.977566
0.977581
0.977602
0.977632
0.977672
0.977724
0.977791
0.977875
0.97798
0.97811
0.978272
0.978472
0.978718
0.979018
0.979385
0.979832
0.980374
0.981031
0.981825
0.982783
0.983943
0.985345
0.987082
0.989184
0.977575
0.977573
0.977568
0.977564
0.977565
0.977572
0.977584
0.977602
0.977628
0.977663
0.97771
0.977769
0.977845
0.977941
0.978061
0.978209
0.978392
0.978617
0.978893
0.979231
0.979641
0.98014
0.980744
0.981471
0.982346
0.983393
0.984648
0.986143
0.98796
0.990113
0.977593
0.977589
0.977582
0.977577
0.977579
0.977587
0.977601
0.977622
0.977652
0.977691
0.977744
0.97781
0.977895
0.978001
0.978134
0.978298
0.9785
0.978748
0.979051
0.979422
0.979871
0.980416
0.981073
0.981862
0.982805
0.983924
0.98525
0.986807
0.988658
0.990791
0.977611
0.977606
0.977595
0.977588
0.977591
0.977601
0.977616
0.97764
0.977672
0.977716
0.977773
0.977846
0.977939
0.978054
0.978198
0.978376
0.978594
0.978862
0.97919
0.979589
0.980073
0.980657
0.98136
0.982201
0.9832
0.984377
0.985755
0.987348
0.989196
0.991259
0.977632
0.977623
0.977607
0.977598
0.977602
0.977613
0.97763
0.977655
0.97769
0.977738
0.977799
0.977878
0.977977
0.9781
0.978254
0.978443
0.978676
0.978961
0.979309
0.979732
0.980245
0.980863
0.981604
0.982488
0.983533
0.984755
0.986168
0.987777
0.989601
0.991565
0.977656
0.97764
0.977615
0.977605
0.97761
0.977622
0.97764
0.977667
0.977704
0.977754
0.97782
0.977903
0.978007
0.978137
0.978299
0.978498
0.978742
0.979041
0.979406
0.979849
0.980384
0.98103
0.981802
0.98272
0.983802
0.985057
0.986494
0.988108
0.989901
0.991761
0.977685
0.977658
0.977624
0.977613
0.977619
0.977631
0.97765
0.977677
0.977717
0.977769
0.977837
0.977923
0.978032
0.978167
0.978334
0.978541
0.978794
0.979104
0.979482
0.97994
0.980493
0.981159
0.981956
0.982902
0.984013
0.985292
0.986744
0.988354
0.990122
0.991902
0.977723
0.977661
0.977621
0.977615
0.977623
0.977635
0.977654
0.977683
0.977724
0.977778
0.977848
0.977937
0.978048
0.978187
0.978359
0.97857
0.97883
0.979147
0.979533
0.980002
0.980568
0.981248
0.982061
0.983028
0.984166
0.985467
0.986927
0.98853
0.990267
0.991988
0.977799
0.977671
0.97762
0.977619
0.977627
0.977639
0.977658
0.977687
0.977728
0.977784
0.977855
0.977945
0.978058
0.978199
0.978373
0.978588
0.978852
0.979174
0.979566
0.980042
0.980616
0.981307
0.982131
0.983109
0.984255
0.985565
0.987034
0.988642
0.990331
0.9919
0.94559
0.943488
0.941799
0.940403
0.938914
0.937231
0.935415
0.933513
0.931528
0.929449
0.927261
0.924952
0.922497
0.919865
0.917017
0.913902
0.910459
0.906609
0.902253
0.897265
0.891482
0.884685
0.876591
0.866793
0.854823
0.8397
0.821236
0.793994
0.771802
0.702111
0.946724
0.944979
0.94345
0.942068
0.94059
0.938967
0.937268
0.935526
0.933727
0.931848
0.929873
0.927785
0.925562
0.923175
0.920587
0.917754
0.914622
0.911121
0.907165
0.902641
0.897404
0.891266
0.883976
0.875187
0.864478
0.85103
0.834607
0.811219
0.789735
0.731462
0.946996
0.94557
0.944293
0.943014
0.941654
0.940219
0.938737
0.937211
0.935622
0.933953
0.932194
0.930332
0.928347
0.926215
0.923903
0.921374
0.91858
0.91546
0.911939
0.907919
0.903274
0.897841
0.891406
0.883673
0.874276
0.862553
0.848216
0.828277
0.808611
0.760386
0.947798
0.946698
0.945692
0.944553
0.943316
0.942041
0.940737
0.939389
0.937983
0.93651
0.934962
0.933326
0.931584
0.929713
0.927686
0.92547
0.923024
0.920297
0.917222
0.913719
0.909679
0.904966
0.899396
0.892724
0.884635
0.874603
0.862302
0.845521
0.828146
0.788728
0.948925
0.948053
0.947245
0.946232
0.945122
0.94401
0.942889
0.941732
0.940523
0.93926
0.937934
0.936533
0.935042
0.933443
0.931713
0.929824
0.927743
0.925426
0.922819
0.919853
0.91644
0.912465
0.907776
0.902173
0.895388
0.887011
0.876703
0.862872
0.847988
0.816393
0.950353
0.949688
0.949074
0.948212
0.947251
0.946308
0.945372
0.944403
0.94339
0.942333
0.941228
0.940065
0.938831
0.93751
0.936085
0.934533
0.932827
0.930931
0.928803
0.926385
0.923606
0.920374
0.916565
0.912016
0.90651
0.899724
0.891336
0.880232
0.867858
0.843121
0.952075
0.951606
0.951179
0.950466
0.949654
0.948878
0.948122
0.947342
0.946528
0.945683
0.944805
0.943885
0.942913
0.941878
0.940766
0.939559
0.938236
0.93677
0.935126
0.933261
0.931119
0.928625
0.925683
0.922165
0.917892
0.91262
0.906056
0.89744
0.887499
0.868683
0.954091
0.953807
0.953559
0.952999
0.952339
0.951732
0.951158
0.95057
0.949956
0.949325
0.948676
0.948002
0.947296
0.94655
0.945754
0.944895
0.943958
0.942923
0.941764
0.940449
0.938934
0.937163
0.935062
0.932531
0.929431
0.925574
0.92071
0.914326
0.906674
0.892872
0.956392
0.956284
0.956205
0.955797
0.955292
0.954854
0.954462
0.954064
0.953652
0.953235
0.952815
0.952389
0.95195
0.951494
0.951014
0.950503
0.94995
0.949341
0.948659
0.94788
0.946974
0.945899
0.9446
0.943001
0.940993
0.938438
0.935123
0.930706
0.925149
0.915497
0.958962
0.959018
0.959099
0.958842
0.958493
0.958222
0.95801
0.957801
0.957589
0.957385
0.957194
0.957013
0.956838
0.956668
0.9565
0.95633
0.956152
0.955958
0.955737
0.955474
0.955147
0.95473
0.954179
0.953442
0.952432
0.95105
0.949111
0.94639
0.942699
0.936374
0.961774
0.961981
0.962209
0.962101
0.961907
0.961802
0.961764
0.961741
0.961725
0.961729
0.961762
0.96182
0.961903
0.962011
0.962145
0.962304
0.962485
0.962687
0.962903
0.963124
0.963339
0.963529
0.963664
0.963707
0.96359
0.963242
0.962497
0.961217
0.95913
0.955353
0.964788
0.965132
0.965493
0.965528
0.965487
0.965542
0.965673
0.965829
0.966001
0.966207
0.966454
0.966741
0.96707
0.967443
0.967863
0.968333
0.968852
0.969422
0.970043
0.970711
0.971419
0.972157
0.972905
0.973636
0.974299
0.974841
0.975113
0.975045
0.974297
0.972394
0.967952
0.968416
0.968894
0.969066
0.969173
0.96938
0.969671
0.969994
0.970346
0.970741
0.971189
0.971691
0.97225
0.972869
0.973554
0.974308
0.975137
0.976043
0.977028
0.978095
0.979241
0.98046
0.981741
0.983063
0.984387
0.985671
0.986786
0.98771
0.988038
0.987574
0.971201
0.971767
0.972344
0.972642
0.972889
0.973239
0.973676
0.974154
0.97467
0.975239
0.975871
0.976569
0.977335
0.978177
0.9791
0.980109
0.981212
0.982414
0.983719
0.985131
0.986653
0.988281
0.990009
0.99182
0.993683
0.995561
0.99734
0.999012
1.00012
1.00085
0.974457
0.975107
0.975764
0.976176
0.976552
0.977031
0.977598
0.978215
0.978877
0.9796
0.980394
0.981264
0.982213
0.983249
0.984377
0.985606
0.986944
0.988396
0.989969
0.99167
0.993501
0.995462
0.997548
0.999745
1.00203
1.00435
1.00663
1.00883
1.01052
1.01203
0.977638
0.978351
0.979068
0.97958
0.98007
0.980661
0.981341
0.982076
0.982863
0.983717
0.984649
0.985663
0.986765
0.987961
0.98926
0.990669
0.992197
0.993851
0.995639
0.997566
0.999638
1.00185
1.00421
1.00669
1.00927
1.01192
1.01453
1.01707
1.01915
1.02113
0.980656
0.981414
0.982172
0.982766
0.983353
0.984037
0.984808
0.985638
0.986526
0.987485
0.988527
0.989655
0.990877
0.992198
0.993628
0.995175
0.996847
0.998652
1.0006
1.00269
1.00493
1.00733
1.00987
1.01253
1.01531
1.01814
1.02094
1.02364
1.02594
1.02806
0.98343
0.984214
0.984995
0.985652
0.986316
0.987072
0.98791
0.988811
0.989773
0.99081
0.99193
0.993141
0.994447
0.995856
0.997376
0.999017
1.00079
1.00269
1.00474
1.00693
1.00928
1.01178
1.01442
1.01718
1.02004
1.02294
1.02579
1.02848
1.0308
1.03269
0.98589
0.986683
0.987469
0.988169
0.988889
0.989692
0.990574
0.991519
0.992529
0.993613
0.994781
0.996039
0.997393
0.998851
1.00042
1.00211
1.00393
1.00588
1.00798
1.01021
1.0126
1.01513
1.0178
1.02057
1.02342
1.02629
1.02909
1.03166
1.03385
1.03531
0.987984
0.988769
0.989545
0.990268
0.991019
0.991847
0.992748
0.993711
0.994738
0.99584
0.997023
0.998295
0.999662
1.00113
1.00271
1.0044
1.00622
1.00818
1.01026
1.01249
1.01486
1.01736
1.01998
1.02269
1.02546
1.02821
1.03086
1.03324
1.0352
1.03623
0.989683
0.990446
0.991198
0.991922
0.992682
0.993511
0.994406
0.99536
0.996377
0.997466
0.998633
0.999885
1.00123
1.00267
1.00422
1.00588
1.00765
1.00956
1.01159
1.01375
1.01604
1.01845
1.02096
1.02354
1.02615
1.02872
1.03113
1.03322
1.0348
1.03532
0.990983
0.991711
0.992427
0.993133
0.993878
0.994684
0.995549
0.996469
0.997449
0.998496
0.999616
1.00082
1.0021
1.00348
1.00496
1.00654
1.00823
1.01004
1.01197
1.01401
1.01617
1.01843
1.02077
1.02316
1.02554
1.02784
1.02993
1.03161
1.0327
1.03259
0.991907
0.992589
0.993257
0.993927
0.994636
0.995397
0.996209
0.997071
0.997987
0.998964
1.00001
1.00113
1.00232
1.0036
1.00497
1.00644
1.008
1.00967
1.01145
1.01333
1.01531
1.01736
1.01948
1.02161
1.0237
1.02565
1.02733
1.02852
1.02907
1.02803
0.992499
0.993126
0.993737
0.994354
0.995007
0.995703
0.996442
0.997223
0.998052
0.998935
0.999876
1.00088
1.00196
1.00311
1.00433
1.00565
1.00705
1.00854
1.01013
1.0118
1.01354
1.01534
1.01718
1.01899
1.02072
1.02225
1.02345
1.02406
1.024
1.0216
0.992827
0.993392
0.993936
0.994484
0.995063
0.995676
0.996322
0.997003
0.997722
0.998487
0.999301
1.00017
1.0011
1.00209
1.00315
1.00428
1.00549
1.00677
1.00812
1.00954
1.01101
1.0125
1.014
1.01543
1.01673
1.01777
1.01842
1.01833
1.01762
1.01359
0.992969
0.993469
0.993938
0.994402
0.99489
0.995406
0.995945
0.996507
0.997096
0.997719
0.998379
0.999081
0.99983
1.00063
1.00148
1.00239
1.00336
1.00438
1.00546
1.00658
1.00773
1.00888
1.00999
1.011
1.01181
1.0123
1.0123
1.0114
1.00997
1.00433
0.993023
0.993452
0.993825
0.994188
0.994572
0.994975
0.995393
0.995825
0.996276
0.99675
0.997248
0.997774
0.998331
0.998922
0.999549
1.00021
1.00091
1.00165
1.00241
1.00319
1.00396
1.0047
1.00536
1.00586
1.00612
1.00596
1.00524
1.0034
1.00114
0.993625
0.993144
0.993457
0.993686
0.99394
0.994226
0.994515
0.994797
0.995075
0.995354
0.995644
0.995951
0.996273
0.996612
0.996971
0.997348
0.997743
0.998153
0.998574
0.998996
0.999402
0.999767
1.00005
1.0002
1.00014
0.999765
0.998875
0.997343
0.994432
0.991237
0.981455
0.993552
0.993609
0.993554
0.993654
0.993823
0.993989
0.994168
0.994332
0.994456
0.994564
0.994669
0.994771
0.994874
0.994976
0.995073
0.995164
0.995245
0.995311
0.995349
0.995339
0.995252
0.995042
0.994645
0.993965
0.992882
0.991173
0.988726
0.984565
0.980451
0.967875
0.994205
0.993952
0.993706
0.9937
0.993756
0.993776
0.993763
0.993726
0.993669
0.9936
0.993493
0.993354
0.993215
0.993055
0.992852
0.992608
0.992321
0.991983
0.99158
0.991091
0.990485
0.989713
0.9887
0.987336
0.98548
0.982865
0.979443
0.973691
0.969059
0.9528
0.936834
0.919477
0.899954
0.878874
0.85653
0.832663
0.807171
0.780319
0.752605
0.724689
0.697277
0.671293
0.64733
0.627569
0.614103
0.606866
0.603848
0.60303
0.604508
0.607748
0.61208
0.617154
0.62201
0.624541
0.62478
0.623727
0.621536
0.619213
0.613313
0.593455
0.957551
0.942276
0.924576
0.90549
0.884932
0.862509
0.838056
0.811576
0.783234
0.753475
0.722797
0.692309
0.66325
0.637441
0.618982
0.608876
0.604412
0.603582
0.60554
0.609425
0.613752
0.6191
0.62397
0.625677
0.624831
0.622967
0.620098
0.615576
0.602864
0.574676
0.962278
0.948145
0.932063
0.914222
0.894278
0.872028
0.847538
0.821073
0.792769
0.762869
0.731976
0.700853
0.670978
0.643948
0.624164
0.613032
0.607909
0.606725
0.608553
0.612091
0.616643
0.622132
0.626467
0.626775
0.624752
0.622574
0.619385
0.611221
0.589819
0.555597
0.970251
0.958188
0.943376
0.926789
0.908155
0.886862
0.862809
0.836206
0.807156
0.776041
0.743668
0.711045
0.679647
0.65135
0.630262
0.617983
0.61226
0.610973
0.612851
0.616454
0.621194
0.626476
0.629348
0.627865
0.624757
0.622874
0.619039
0.607623
0.5812
0.550475
0.974793
0.963853
0.95063
0.935687
0.918482
0.898488
0.875482
0.849513
0.820636
0.789145
0.755792
0.721736
0.688663
0.658788
0.636042
0.622445
0.616134
0.614834
0.616982
0.621086
0.626058
0.63093
0.632127
0.628971
0.625416
0.623991
0.619572
0.606485
0.583097
0.563197
0.978508
0.968936
0.957138
0.943427
0.927358
0.908379
0.8862
0.86075
0.83206
0.800361
0.766322
0.731126
0.696628
0.665306
0.641085
0.626377
0.619625
0.618406
0.620919
0.625518
0.630599
0.634947
0.634803
0.6307
0.627161
0.625857
0.621094
0.609412
0.594037
0.588834
0.981277
0.972855
0.962289
0.94984
0.93498
0.917137
0.895927
0.871126
0.842682
0.810794
0.776104
0.739836
0.703983
0.671269
0.645702
0.629991
0.622841
0.621727
0.624629
0.629647
0.634936
0.638754
0.638133
0.63408
0.630816
0.629276
0.625094
0.617525
0.613338
0.624619
0.983424
0.976028
0.966615
0.955308
0.941572
0.924839
0.904652
0.880647
0.852635
0.820731
0.785526
0.748265
0.711078
0.676953
0.650054
0.633356
0.625812
0.624833
0.628145
0.633587
0.639159
0.642894
0.642768
0.639712
0.637059
0.635951
0.634065
0.63404
0.645628
0.672241
0.985113
0.978614
0.970225
0.959961
0.947279
0.93161
0.912436
0.889273
0.861804
0.830034
0.794469
0.756339
0.717884
0.682358
0.654139
0.636482
0.628576
0.627753
0.631515
0.637498
0.643409
0.647531
0.64841
0.646746
0.645686
0.646892
0.650479
0.662768
0.690992
0.726002
0.986472
0.980759
0.973277
0.963952
0.952254
0.937602
0.919422
0.897124
0.870262
0.838724
0.802914
0.764023
0.724376
0.68748
0.657969
0.639395
0.631193
0.63053
0.634802
0.641348
0.647814
0.652589
0.654505
0.654529
0.656059
0.661506
0.673609
0.699742
0.737766
0.775543
0.987588
0.982564
0.975889
0.967417
0.956619
0.94293
0.92572
0.904302
0.878103
0.846881
0.810923
0.771362
0.730586
0.692348
0.661572
0.642117
0.633631
0.633195
0.638038
0.645233
0.652384
0.657951
0.661024
0.662923
0.667491
0.678545
0.7
0.735901
0.778195
0.810576
0.988519
0.984103
0.978146
0.970444
0.960477
0.947689
0.931414
0.910875
0.885382
0.854552
0.818537
0.77839
0.736544
0.696987
0.664961
0.644656
0.635909
0.635768
0.641247
0.649189
0.657164
0.663667
0.667972
0.671786
0.679778
0.697066
0.727285
0.767556
0.808843
0.832088
0.989307
0.985428
0.980114
0.973108
0.963906
0.951963
0.936579
0.916907
0.892146
0.861769
0.82578
0.785126
0.742264
0.701409
0.668146
0.647015
0.638052
0.638264
0.64445
0.653239
0.662176
0.669745
0.675283
0.680977
0.692681
0.716179
0.752759
0.795784
0.829902
0.844131
0.989983
0.986577
0.981838
0.975469
0.966973
0.955818
0.941282
0.922457
0.898443
0.868568
0.832675
0.791588
0.747761
0.705626
0.671137
0.649203
0.64007
0.640696
0.647664
0.657403
0.667427
0.676138
0.682821
0.690338
0.7059
0.735128
0.776218
0.81781
0.843467
0.850412
0.990566
0.98758
0.983355
0.977568
0.969729
0.959312
0.94558
0.927579
0.904316
0.874982
0.839248
0.797793
0.753049
0.709651
0.673942
0.651228
0.641972
0.643072
0.650904
0.661698
0.672916
0.682765
0.690414
0.699693
0.71914
0.753441
0.796798
0.834036
0.851441
0.853204
0.991073
0.988461
0.984695
0.979441
0.972216
0.962492
0.949523
0.932318
0.909804
0.881041
0.845522
0.803761
0.758143
0.713497
0.676571
0.653099
0.643764
0.645401
0.654185
0.666138
0.678629
0.689529
0.697879
0.708829
0.732187
0.770619
0.813932
0.845077
0.855523
0.854687
0.991514
0.989237
0.985879
0.981113
0.974465
0.965397
0.953153
0.936716
0.914944
0.886773
0.851517
0.809507
0.763056
0.717173
0.679033
0.654824
0.645452
0.647693
0.65752
0.670733
0.684542
0.696324
0.705086
0.717496
0.74479
0.786205
0.827394
0.852119
0.85742
0.856824
0.991895
0.989919
0.98693
0.982606
0.9765
0.968056
0.956504
0.940809
0.919768
0.892205
0.857252
0.815045
0.767799
0.720688
0.681334
0.656412
0.647039
0.649954
0.66092
0.675484
0.690614
0.70301
0.711806
0.725851
0.756704
0.799833
0.837494
0.856591
0.858596
0.861252
0.992226
0.990519
0.987865
0.983943
0.978341
0.970492
0.959607
0.944627
0.924305
0.89736
0.862747
0.820389
0.772383
0.724051
0.683482
0.657877
0.648524
0.652193
0.664397
0.680394
0.696801
0.709455
0.717563
0.733913
0.767844
0.811418
0.84503
0.859467
0.860304
0.868006
0.992519
0.991045
0.988693
0.98514
0.980006
0.972727
0.962485
0.948199
0.928581
0.90226
0.868018
0.825553
0.776819
0.727271
0.685481
0.659236
0.649908
0.654418
0.667958
0.685456
0.703042
0.715543
0.722734
0.741127
0.777996
0.821144
0.850554
0.861262
0.863691
0.876397
0.992781
0.991511
0.989428
0.986208
0.98151
0.974773
0.965157
0.951547
0.932619
0.906926
0.873081
0.83055
0.781117
0.730353
0.687338
0.660448
0.6512
0.656638
0.671612
0.690663
0.70925
0.720941
0.727764
0.747643
0.787186
0.829377
0.855062
0.863075
0.868763
0.88563
0.993011
0.991926
0.99008
0.987163
0.982865
0.976647
0.96764
0.95469
0.93644
0.911375
0.87795
0.835389
0.785285
0.733306
0.689058
0.661523
0.65241
0.658858
0.675365
0.696009
0.715352
0.725439
0.732093
0.753779
0.795927
0.83692
0.858762
0.8657
0.875044
0.895041
0.993215
0.992296
0.990662
0.988017
0.984084
0.978359
0.969946
0.957645
0.940061
0.915626
0.882643
0.840086
0.789335
0.736136
0.690646
0.662447
0.653546
0.661087
0.679223
0.701471
0.721305
0.729438
0.735441
0.75974
0.804525
0.843857
0.862078
0.8695
0.882099
0.904213
0.993398
0.992627
0.991181
0.988783
0.985179
0.979918
0.972087
0.960425
0.943497
0.919689
0.887164
0.844644
0.793272
0.738849
0.692107
0.663247
0.654614
0.663328
0.683193
0.706993
0.726851
0.732907
0.738392
0.766372
0.814064
0.850227
0.865353
0.874445
0.889565
0.912931
0.993555
0.992926
0.991649
0.989465
0.98616
0.981336
0.974072
0.963042
0.94677
0.923593
0.891539
0.84908
0.797103
0.741447
0.693437
0.663906
0.655605
0.665588
0.687295
0.71256
0.731583
0.735506
0.741678
0.774653
0.823735
0.856045
0.868865
0.880254
0.897168
0.92115
0.993672
0.99319
0.992075
0.990075
0.987029
0.982618
0.975909
0.965495
0.949867
0.927321
0.895763
0.853407
0.800854
0.743958
0.694696
0.664553
0.65657
0.667889
0.691513
0.718058
0.735969
0.737693
0.745996
0.784542
0.833332
0.861386
0.872715
0.886524
0.904794
0.928649
0.993752
0.993412
0.992471
0.990633
0.987795
0.983766
0.977611
0.967824
0.952842
0.930911
0.899825
0.85757
0.804449
0.746289
0.695628
0.664813
0.65733
0.670167
0.695746
0.722904
0.739361
0.739981
0.752012
0.795308
0.84239
0.866157
0.876466
0.892889
0.912578
0.9353
0.993818
0.99359
0.992841
0.991157
0.988489
0.984781
0.979151
0.969992
0.955714
0.93449
0.903952
0.861853
0.80825
0.748965
0.697151
0.665441
0.658252
0.672539
0.699796
0.72645
0.740356
0.741636
0.759776
0.806422
0.850715
0.870761
0.881722
0.89986
0.920461
0.941242
0.993895
0.993729
0.993172
0.991684
0.989166
0.985722
0.98048
0.971772
0.95799
0.937284
0.907136
0.865042
0.810801
0.750247
0.697336
0.665282
0.658817
0.674849
0.703533
0.72922
0.739453
0.741016
0.764423
0.815463
0.8574
0.873398
0.884329
0.904851
0.927795
0.946435
0.993979
0.993853
0.993442
0.99221
0.99005
0.986954
0.982299
0.974431
0.961602
0.941867
0.91265
0.871004
0.816231
0.754188
0.699117
0.665617
0.65948
0.677269
0.70731
0.732691
0.743141
0.749341
0.777741
0.828394
0.865953
0.880273
0.893268
0.914487
0.936191
0.950993
0.687706
0.669449
0.667757
0.712176
0.750993
0.766974
0.75437
0.740324
0.731662
0.727068
0.726291
0.728817
0.733621
0.739861
0.74695
0.754463
0.762097
0.769655
0.776978
0.783962
0.790556
0.79673
0.802516
0.807904
0.81301
0.817922
0.823268
0.828994
0.836029
0.830609
0.664166
0.643689
0.664278
0.726477
0.778
0.794229
0.770911
0.745283
0.730623
0.721808
0.718421
0.719568
0.723735
0.729803
0.737029
0.744862
0.7529
0.760877
0.768628
0.77604
0.783054
0.789626
0.795757
0.801426
0.806668
0.811387
0.815758
0.819003
0.823272
0.824233
0.638263
0.613467
0.641251
0.722779
0.796916
0.816222
0.789884
0.751813
0.72944
0.715911
0.708637
0.707696
0.711091
0.716958
0.724322
0.732553
0.741152
0.749782
0.758228
0.766355
0.774082
0.78136
0.788169
0.794488
0.800334
0.805627
0.810531
0.814673
0.819083
0.823484
0.627553
0.604519
0.620971
0.696564
0.783007
0.819431
0.800663
0.754291
0.721915
0.705881
0.696322
0.693083
0.695916
0.702438
0.710811
0.720082
0.729747
0.739464
0.748973
0.758109
0.766786
0.774963
0.782628
0.78978
0.796455
0.802643
0.808451
0.813775
0.818645
0.823216
0.630244
0.614123
0.615606
0.669888
0.740095
0.781924
0.783961
0.7517
0.71034
0.685523
0.67629
0.673716
0.675546
0.682607
0.692859
0.703946
0.715167
0.72634
0.737228
0.747626
0.757441
0.766649
0.775253
0.783263
0.79071
0.797612
0.804
0.8099
0.815221
0.820199
0.637552
0.627318
0.616137
0.640709
0.687075
0.719641
0.726764
0.715576
0.687852
0.658809
0.644184
0.643166
0.647507
0.655074
0.667639
0.681626
0.695239
0.708395
0.721107
0.733185
0.744506
0.755052
0.764847
0.773922
0.782313
0.790067
0.797216
0.803839
0.809895
0.815654
0.645612
0.642835
0.616242
0.610526
0.632011
0.65224
0.658845
0.653169
0.638949
0.61953
0.603201
0.599896
0.607151
0.617667
0.631774
0.650077
0.668172
0.684709
0.700102
0.714529
0.727921
0.740273
0.751651
0.762127
0.771766
0.780643
0.788815
0.796375
0.803287
0.809849
0.638426
0.651124
0.60561
0.577963
0.58032
0.587005
0.587553
0.582423
0.573452
0.562638
0.551766
0.546474
0.552815
0.56795
0.585574
0.606649
0.630495
0.652778
0.672515
0.690406
0.706737
0.721577
0.735063
0.747349
0.75856
0.768815
0.778206
0.786855
0.794741
0.802203
0.595618
0.621401
0.575459
0.541317
0.530629
0.5246
0.517224
0.509025
0.500923
0.49359
0.488063
0.485445
0.489801
0.504549
0.527408
0.552339
0.579939
0.609171
0.635443
0.658506
0.679086
0.697454
0.713849
0.72855
0.741798
0.753791
0.764683
0.774649
0.783698
0.792224
0.519341
0.565174
0.530631
0.499196
0.481141
0.465584
0.450977
0.438116
0.427517
0.419918
0.41603
0.416213
0.421203
0.433973
0.456142
0.485912
0.518757
0.552639
0.586369
0.616395
0.642878
0.666156
0.686602
0.704624
0.720607
0.734878
0.74769
0.759297
0.769756
0.779531
0.435444
0.494097
0.475788
0.452201
0.432061
0.411169
0.391409
0.37424
0.360196
0.349934
0.344187
0.343849
0.349076
0.36062
0.380463
0.409386
0.445578
0.485863
0.525598
0.562914
0.596588
0.626175
0.651968
0.674423
0.694049
0.711316
0.726607
0.740284
0.75248
0.763742
0.357465
0.421351
0.41788
0.403275
0.384866
0.362365
0.339935
0.319712
0.302702
0.289472
0.280546
0.276838
0.279492
0.288842
0.305816
0.33186
0.36719
0.409245
0.45419
0.498535
0.539737
0.576637
0.608967
0.637006
0.661286
0.68239
0.700834
0.717112
0.73146
0.744519
0.295033
0.356413
0.362913
0.356555
0.341947
0.320385
0.297404
0.275668
0.256682
0.241063
0.229023
0.221301
0.219396
0.224573
0.237388
0.258937
0.29036
0.330947
0.37776
0.426801
0.474569
0.518699
0.558055
0.592438
0.622189
0.647889
0.670145
0.689567
0.70651
0.721703
0.251598
0.30758
0.320502
0.317815
0.30627
0.286603
0.264297
0.242249
0.222248
0.204945
0.190332
0.179009
0.172455
0.172483
0.180172
0.196336
0.222291
0.258609
0.303762
0.354322
0.406255
0.45618
0.501946
0.542598
0.578048
0.608704
0.635159
0.658086
0.677951
0.695529
0.233419
0.279222
0.293589
0.291287
0.280756
0.262392
0.240884
0.219062
0.198743
0.180496
0.164158
0.150031
0.139594
0.134723
0.137083
0.147656
0.167685
0.198398
0.239509
0.288579
0.341755
0.395094
0.445574
0.491419
0.531945
0.567228
0.597734
0.624113
0.646911
0.666873
0.241368
0.271126
0.284241
0.279695
0.267678
0.249011
0.227443
0.20556
0.185074
0.166451
0.149403
0.133832
0.120845
0.112264
0.109856
0.115192
0.129589
0.154535
0.190562
0.236204
0.288147
0.342369
0.395283
0.444481
0.488616
0.527405
0.561114
0.590291
0.61553
0.637452
0.272996
0.284921
0.29153
0.28332
0.268137
0.247461
0.224515
0.201615
0.18035
0.161255
0.143988
0.128147
0.114209
0.103699
0.0981825
0.0994546
0.109252
0.129244
0.160414
0.201975
0.25117
0.304079
0.356926
0.40752
0.453278
0.493894
0.529384
0.560138
0.586797
0.609778
0.323143
0.318259
0.315923
0.301975
0.282687
0.258641
0.232954
0.207823
0.184786
0.164472
0.146558
0.130623
0.116679
0.105716
0.0991643
0.0984802
0.105677
0.122556
0.15029
0.188456
0.234728
0.285572
0.337417
0.386829
0.43165
0.471856
0.507152
0.537757
0.564327
0.587034
0.384836
0.367327
0.355644
0.334976
0.310741
0.28294
0.253845
0.22559
0.199783
0.177314
0.158055
0.141527
0.127593
0.116997
0.111108
0.110454
0.117385
0.133554
0.159983
0.196219
0.240097
0.288403
0.337526
0.383825
0.426567
0.464727
0.498032
0.526781
0.551661
0.57261
0.44854
0.423897
0.403961
0.378425
0.350009
0.31964
0.287481
0.256221
0.227429
0.202244
0.180984
0.163395
0.149391
0.139546
0.134882
0.136254
0.144997
0.1626
0.18969
0.225451
0.267586
0.31289
0.357935
0.400585
0.43991
0.474538
0.504421
0.529925
0.551711
0.569647
0.502963
0.476522
0.452427
0.425013
0.395689
0.364373
0.33183
0.299621
0.269231
0.242076
0.219001
0.200286
0.186167
0.177317
0.174621
0.178482
0.190116
0.210438
0.239371
0.275537
0.316356
0.35871
0.399852
0.438282