/*--------------------------------*- C++ -*----------------------------------*\
  =========                 |
  \\      /  F ield         | OpenFOAM: The Open Source CFD Toolbox
   \\    /   O peration     | Website:  https://openfoam.org
    \\  /    A nd           | Version:  11
     \\/     M anipulation  |
\*---------------------------------------------------------------------------*/
FoamFile
{
    format      ascii;
    class       volScalarField;
    location    "3.6";
    object      p;
}
// * * * * * * * * * * * * * * * * * * * * * * * * * * * * * * * * * * * * * //

dimensions      [0 2 -2 0 0 0 0];

internalField   nonuniform List<scalar> 
12600
(
0.236392
0.236304
0.236251
0.236228
0.236208
0.236183
0.236154
0.236122
0.236086
0.236043
0.235992
0.235934
0.235866
0.235785
0.235687
0.235569
0.235426
0.235252
0.235039
0.234777
0.234455
0.234058
0.233567
0.23296
0.232207
0.231276
0.230128
0.228714
0.22701
0.22488
0.236328
0.236287
0.236249
0.236226
0.236208
0.236185
0.236157
0.236126
0.236089
0.236047
0.235997
0.235941
0.235875
0.235796
0.235701
0.235587
0.235448
0.235278
0.235071
0.234817
0.234504
0.234117
0.233638
0.233043
0.232305
0.23139
0.230255
0.228855
0.227132
0.225015
0.236302
0.236284
0.236256
0.236232
0.236212
0.236189
0.236162
0.236132
0.236097
0.236057
0.23601
0.235956
0.235892
0.235816
0.235725
0.235615
0.235483
0.235321
0.235124
0.234882
0.234583
0.234213
0.233754
0.233183
0.232472
0.231586
0.230479
0.229108
0.227383
0.225298
0.236286
0.236275
0.236255
0.236233
0.236213
0.236192
0.236167
0.236138
0.236105
0.236067
0.236023
0.235972
0.235912
0.235841
0.235756
0.235654
0.235531
0.235381
0.235198
0.234973
0.234696
0.234351
0.233923
0.233388
0.232718
0.231877
0.230818
0.229494
0.2278
0.225743
0.236277
0.236271
0.236256
0.236238
0.236219
0.236199
0.236176
0.236149
0.236119
0.236084
0.236043
0.235996
0.235941
0.235876
0.235798
0.235705
0.235594
0.235458
0.235293
0.23509
0.23484
0.234529
0.23414
0.233653
0.233037
0.232259
0.231267
0.230013
0.228376
0.226374
0.236274
0.236268
0.236257
0.236242
0.236225
0.236207
0.236186
0.236161
0.236133
0.236101
0.236064
0.236022
0.235972
0.235914
0.235846
0.235764
0.235666
0.235548
0.235404
0.235228
0.23501
0.23474
0.234401
0.233972
0.233426
0.232729
0.231826
0.230668
0.22912
0.227205
0.236274
0.236269
0.23626
0.236248
0.236233
0.236216
0.236197
0.236175
0.23615
0.236122
0.236089
0.236052
0.236009
0.235959
0.2359
0.235831
0.235749
0.23565
0.235531
0.235385
0.235205
0.234982
0.2347
0.234342
0.23388
0.233281
0.232492
0.23146
0.230037
0.228249
0.236276
0.236273
0.236265
0.236255
0.236242
0.236227
0.23621
0.236191
0.236169
0.236144
0.236116
0.236085
0.236049
0.236007
0.235959
0.235904
0.235838
0.235761
0.235668
0.235556
0.235419
0.235247
0.235031
0.234752
0.234389
0.233908
0.233257
0.232385
0.231131
0.229522
0.23628
0.236278
0.236272
0.236263
0.236252
0.236239
0.236224
0.236208
0.236189
0.236169
0.236146
0.23612
0.236091
0.236059
0.236022
0.235981
0.235933
0.235878
0.235814
0.235738
0.235645
0.23553
0.235385
0.235196
0.234943
0.234598
0.234111
0.233434
0.2324
0.231035
0.236287
0.236285
0.23628
0.236272
0.236263
0.236252
0.23624
0.236226
0.236211
0.236194
0.236176
0.236156
0.236135
0.236111
0.236086
0.236059
0.23603
0.235998
0.235963
0.235923
0.235878
0.235822
0.235753
0.235659
0.235527
0.235333
0.235035
0.234589
0.233831
0.232785
0.236294
0.236293
0.236289
0.236283
0.236275
0.236266
0.236256
0.236245
0.236233
0.23622
0.236207
0.236193
0.236179
0.236165
0.236151
0.236138
0.236127
0.236118
0.236111
0.236109
0.23611
0.236115
0.236122
0.236128
0.236124
0.236095
0.236006
0.235825
0.2354
0.234753
0.236303
0.236302
0.236299
0.236294
0.236288
0.23628
0.236272
0.236264
0.236255
0.236246
0.236237
0.236229
0.236222
0.236217
0.236214
0.236215
0.236221
0.236233
0.236255
0.236287
0.236334
0.236398
0.236482
0.236588
0.236714
0.236855
0.236991
0.237101
0.23706
0.236893
0.236313
0.236312
0.23631
0.236306
0.236301
0.236295
0.236289
0.236283
0.236277
0.236272
0.236268
0.236265
0.236264
0.236267
0.236274
0.236288
0.236309
0.236342
0.236389
0.236454
0.236543
0.236663
0.236819
0.23702
0.237274
0.237585
0.23795
0.238366
0.238748
0.239126
0.236324
0.236323
0.236321
0.236318
0.236314
0.23631
0.236306
0.236302
0.236299
0.236297
0.236297
0.236299
0.236304
0.236314
0.23633
0.236355
0.23639
0.23644
0.236509
0.236604
0.23673
0.236899
0.23712
0.237408
0.237779
0.238251
0.238837
0.239558
0.240378
0.241339
0.236335
0.236335
0.236333
0.236331
0.236328
0.236325
0.236323
0.236321
0.23632
0.236321
0.236324
0.23633
0.236341
0.236357
0.23638
0.236414
0.236461
0.236526
0.236613
0.236731
0.236888
0.237097
0.237372
0.237734
0.238206
0.238818
0.239604
0.240607
0.241846
0.243386
0.236347
0.236347
0.236346
0.236344
0.236342
0.23634
0.236339
0.236339
0.23634
0.236344
0.236349
0.236359
0.236374
0.236395
0.236424
0.236465
0.236521
0.236596
0.236697
0.236832
0.237012
0.23725
0.237566
0.237983
0.238532
0.239255
0.240203
0.241439
0.243043
0.245101
0.236359
0.236359
0.236358
0.236357
0.236356
0.236355
0.236355
0.236356
0.236359
0.236364
0.236373
0.236385
0.236403
0.236427
0.236461
0.236507
0.236568
0.23665
0.236759
0.236904
0.237097
0.237353
0.237692
0.238142
0.23874
0.239533
0.240589
0.24199
0.243862
0.246318
0.236372
0.236372
0.236371
0.23637
0.236369
0.236369
0.23637
0.236372
0.236377
0.236383
0.236393
0.236407
0.236427
0.236454
0.23649
0.236538
0.236602
0.236687
0.236798
0.236946
0.237142
0.237401
0.237746
0.238204
0.238815
0.239633
0.240733
0.242208
0.244218
0.246895
0.236385
0.236384
0.236384
0.236383
0.236383
0.236383
0.236384
0.236387
0.236392
0.2364
0.236411
0.236427
0.236447
0.236475
0.236512
0.23656
0.236623
0.236706
0.236815
0.236958
0.237146
0.237395
0.237725
0.238166
0.238755
0.239547
0.240617
0.242065
0.24406
0.246743
0.236397
0.236397
0.236396
0.236396
0.236395
0.236396
0.236398
0.236401
0.236407
0.236415
0.236427
0.236442
0.236463
0.23649
0.236526
0.236572
0.236632
0.236709
0.236809
0.23694
0.237111
0.237336
0.237634
0.238031
0.238562
0.239277
0.240246
0.241561
0.243384
0.245843
0.23641
0.23641
0.236409
0.236408
0.236408
0.236408
0.23641
0.236414
0.236419
0.236428
0.236439
0.236455
0.236475
0.2365
0.236533
0.236575
0.236629
0.236697
0.236784
0.236896
0.237041
0.23723
0.237479
0.237809
0.238249
0.23884
0.239641
0.240728
0.242232
0.244254
0.236424
0.236423
0.236422
0.23642
0.236419
0.23642
0.236421
0.236425
0.236431
0.236439
0.23645
0.236464
0.236483
0.236506
0.236535
0.236571
0.236616
0.236672
0.236742
0.23683
0.236942
0.237086
0.237271
0.237515
0.237836
0.238265
0.238843
0.239621
0.24069
0.242108
0.236437
0.236437
0.236434
0.236432
0.23643
0.23643
0.236432
0.236435
0.23644
0.236448
0.236458
0.236471
0.236487
0.236508
0.236532
0.236561
0.236596
0.236638
0.236688
0.236748
0.236821
0.236911
0.237024
0.237167
0.23735
0.237589
0.237904
0.238319
0.238875
0.239582
0.236452
0.236451
0.236447
0.236443
0.236441
0.23644
0.236441
0.236444
0.236448
0.236455
0.236464
0.236476
0.23649
0.236506
0.236525
0.236547
0.236571
0.236597
0.236625
0.236656
0.236687
0.23672
0.236754
0.236788
0.236823
0.236856
0.236888
0.236913
0.23692
0.236878
0.236467
0.236465
0.23646
0.236454
0.23645
0.236449
0.236449
0.236451
0.236455
0.236461
0.236469
0.236479
0.23649
0.236503
0.236516
0.23653
0.236543
0.236553
0.23656
0.23656
0.236549
0.236524
0.236478
0.236403
0.236287
0.236114
0.235861
0.235496
0.234961
0.234198
0.236484
0.236481
0.236472
0.236464
0.236459
0.236457
0.236457
0.236458
0.236461
0.236466
0.236473
0.236481
0.23649
0.236499
0.236507
0.236513
0.236515
0.236511
0.236497
0.236468
0.236417
0.236337
0.236216
0.236036
0.235777
0.235408
0.234888
0.234157
0.233115
0.23164
0.236504
0.236498
0.236484
0.236472
0.236466
0.236463
0.236462
0.236463
0.236465
0.236469
0.236475
0.236481
0.236488
0.236493
0.236497
0.236496
0.236489
0.236472
0.236439
0.236384
0.236298
0.23617
0.235981
0.235709
0.235323
0.234782
0.234027
0.23298
0.231514
0.229498
0.23653
0.236516
0.236496
0.236481
0.236474
0.236471
0.236469
0.236469
0.23647
0.236474
0.236478
0.236483
0.236488
0.236491
0.23649
0.236484
0.236469
0.236441
0.236393
0.236317
0.236203
0.236034
0.23579
0.235443
0.234955
0.234273
0.233329
0.23203
0.230239
0.22781
0.236564
0.236528
0.236497
0.236483
0.236477
0.236473
0.23647
0.23647
0.236471
0.236474
0.236478
0.236482
0.236485
0.236486
0.236484
0.236474
0.236454
0.236418
0.236359
0.236268
0.236134
0.235938
0.235656
0.235255
0.234692
0.23391
0.23283
0.231349
0.229337
0.226654
0.236638
0.23655
0.236501
0.236487
0.236482
0.236478
0.236475
0.236474
0.236475
0.236477
0.236481
0.236484
0.236487
0.236488
0.236484
0.236472
0.236449
0.236409
0.236345
0.236247
0.236101
0.235889
0.235584
0.235153
0.234549
0.23371
0.232553
0.230971
0.228821
0.22592
0.222813
0.221777
0.22118
0.220828
0.220429
0.219927
0.219367
0.218778
0.218154
0.217486
0.216765
0.215984
0.215128
0.214182
0.213123
0.211924
0.21055
0.20896
0.207099
0.204898
0.202262
0.199066
0.195139
0.190243
0.184026
0.176028
0.165534
0.150543
0.135573
0.0923022
0.223433
0.222784
0.222278
0.221866
0.221401
0.220861
0.220294
0.219722
0.219132
0.218509
0.217842
0.217123
0.216338
0.215471
0.214502
0.213408
0.212161
0.210723
0.20905
0.20708
0.204735
0.20191
0.19846
0.194191
0.188812
0.181956
0.172949
0.160788
0.146503
0.112821
0.223485
0.223003
0.222608
0.222208
0.221774
0.221314
0.220846
0.220368
0.219865
0.219326
0.218746
0.218117
0.217429
0.21667
0.215824
0.214872
0.21379
0.212549
0.21111
0.209425
0.207429
0.205037
0.202135
0.198566
0.194099
0.188447
0.181048
0.171308
0.158794
0.1334
0.223872
0.223569
0.223324
0.222992
0.222609
0.222218
0.221822
0.22141
0.220974
0.220509
0.220014
0.219481
0.218903
0.218268
0.217565
0.216777
0.215887
0.214872
0.213701
0.212338
0.210732
0.208819
0.20651
0.203687
0.200167
0.195738
0.189934
0.182399
0.17212
0.153733
0.224476
0.224295
0.224152
0.223872
0.223537
0.223214
0.222901
0.222576
0.222233
0.221871
0.221488
0.221078
0.220636
0.220153
0.219621
0.21903
0.218366
0.217614
0.216753
0.215755
0.214585
0.213197
0.211527
0.209488
0.206944
0.203741
0.1995
0.194038
0.186146
0.173573
0.225296
0.225229
0.225194
0.224988
0.224724
0.22449
0.224274
0.224052
0.223815
0.223568
0.223311
0.223041
0.222753
0.222444
0.222109
0.221742
0.221335
0.220878
0.22036
0.219763
0.219064
0.218235
0.217231
0.215995
0.214429
0.212425
0.209685
0.206146
0.20059
0.192716
0.226356
0.226407
0.226486
0.226364
0.226181
0.22604
0.225931
0.225823
0.225708
0.225594
0.225484
0.225376
0.225267
0.225158
0.225048
0.224933
0.224812
0.224682
0.224537
0.224369
0.224169
0.223919
0.223595
0.22316
0.22255
0.221691
0.22036
0.218559
0.215159
0.211015
0.227691
0.227862
0.228063
0.228036
0.227946
0.227913
0.227924
0.227945
0.22797
0.228008
0.228063
0.228137
0.22823
0.228343
0.228479
0.228641
0.22883
0.229048
0.229297
0.229577
0.229887
0.230221
0.23057
0.230913
0.231211
0.231414
0.23136
0.231074
0.229568
0.228254
0.229327
0.229624
0.229951
0.230031
0.230047
0.230133
0.230277
0.230442
0.230621
0.230826
0.231064
0.231338
0.231649
0.232003
0.232405
0.23286
0.233375
0.233956
0.234609
0.235341
0.236158
0.237064
0.238057
0.23913
0.240259
0.241412
0.242469
0.243444
0.24352
0.244227
0.231282
0.231707
0.232163
0.232359
0.232493
0.23271
0.232999
0.233319
0.233665
0.23405
0.234484
0.234971
0.235514
0.236121
0.236799
0.237556
0.238402
0.239347
0.2404
0.241574
0.242877
0.24432
0.245906
0.247637
0.249496
0.251458
0.25343
0.255396
0.256715
0.258738
0.233554
0.234104
0.234686
0.235007
0.23527
0.235627
0.236068
0.236551
0.237071
0.237644
0.238281
0.238986
0.239766
0.240628
0.241583
0.24264
0.24381
0.245106
0.246541
0.248127
0.249878
0.251805
0.253914
0.256209
0.258676
0.261291
0.263972
0.266667
0.268892
0.271631
0.236106
0.236774
0.237473
0.237921
0.23832
0.238822
0.239417
0.240066
0.240762
0.241523
0.242361
0.243283
0.244294
0.245404
0.246624
0.247965
0.249439
0.25106
0.252841
0.254796
0.256938
0.259278
0.261824
0.264575
0.267519
0.270626
0.273816
0.277014
0.279849
0.282846
0.238854
0.239627
0.240427
0.241
0.241538
0.242182
0.242928
0.243736
0.244602
0.245543
0.246573
0.247697
0.248924
0.250262
0.251724
0.253321
0.255065
0.25697
0.259048
0.261313
0.263777
0.266448
0.269332
0.272424
0.275707
0.279144
0.282657
0.286151
0.289331
0.292331
0.241661
0.242519
0.243399
0.244089
0.244759
0.245539
0.246422
0.247375
0.248396
0.2495
0.250701
0.252005
0.253421
0.254958
0.256627
0.25844
0.260409
0.262545
0.264861
0.267368
0.270076
0.272989
0.276107
0.279422
0.282908
0.286519
0.290168
0.293736
0.296961
0.299776
0.244336
0.245255
0.24619
0.246979
0.24777
0.248667
0.249667
0.250744
0.251895
0.253137
0.25448
0.255932
0.257502
0.259198
0.261032
0.263013
0.265153
0.267462
0.26995
0.272626
0.275496
0.278562
0.281817
0.285246
0.288815
0.292464
0.296097
0.299563
0.302601
0.304926
0.246647
0.2476
0.248562
0.24943
0.250319
0.25131
0.2524
0.253571
0.254822
0.256167
0.257616
0.259178
0.26086
0.26267
0.264619
0.266716
0.26897
0.271391
0.273986
0.276761
0.279718
0.282856
0.286163
0.289615
0.293173
0.296767
0.30029
0.303575
0.306367
0.308299
0.24835
0.249311
0.250276
0.251194
0.252153
0.253207
0.254355
0.255585
0.2569
0.25831
0.259826
0.261455
0.263203
0.26508
0.267094
0.269253
0.271566
0.274039
0.276679
0.279489
0.282468
0.285609
0.288898
0.292305
0.295784
0.299259
0.302617
0.305681
0.30821
0.309769
0.249231
0.250178
0.251125
0.252063
0.253056
0.254138
0.255309
0.256562
0.257901
0.259337
0.260877
0.262528
0.264298
0.266193
0.268222
0.270393
0.272712
0.275184
0.277814
0.280602
0.283546
0.286635
0.28985
0.293158
0.296507
0.299814
0.302956
0.305741
0.307914
0.308966
0.249152
0.250064
0.250976
0.251902
0.252891
0.253964
0.255121
0.25636
0.257684
0.259104
0.260626
0.262256
0.264003
0.265871
0.26787
0.270004
0.27228
0.274703
0.277273
0.279991
0.282851
0.28584
0.288935
0.2921
0.295276
0.298372
0.301257
0.303728
0.305523
0.306105
0.248078
0.248935
0.249799
0.250682
0.251627
0.252654
0.253761
0.254947
0.256218
0.257582
0.259044
0.260613
0.262293
0.264091
0.266015
0.268069
0.270258
0.272587
0.275055
0.277659
0.280394
0.283244
0.286182
0.289169
0.29214
0.294999
0.297608
0.299747
0.301169
0.301149
0.246088
0.246872
0.247675
0.248486
0.24935
0.250293
0.251316
0.252416
0.253596
0.254866
0.25623
0.257697
0.259271
0.260959
0.262767
0.264699
0.266761
0.268954
0.271279
0.273733
0.276305
0.278978
0.281725
0.2845
0.287234
0.289823
0.292123
0.293887
0.294915
0.294018
0.24337
0.244061
0.244784
0.245493
0.246242
0.247068
0.247974
0.248952
0.250008
0.251147
0.252377
0.253705
0.255135
0.256674
0.258327
0.260099
0.261993
0.26401
0.266151
0.26841
0.270776
0.27323
0.275741
0.278259
0.280711
0.282987
0.284937
0.286277
0.286931
0.285017
0.24017
0.240742
0.241363
0.241942
0.242544
0.243222
0.243979
0.244805
0.245702
0.246677
0.247738
0.248892
0.250142
0.251494
0.252953
0.254524
0.25621
0.258011
0.259925
0.261946
0.264062
0.266252
0.268481
0.270696
0.272819
0.274729
0.276275
0.27711
0.27732
0.274495
0.236758
0.237187
0.237677
0.238101
0.238532
0.239036
0.239616
0.240261
0.240969
0.24175
0.242611
0.243557
0.244594
0.245725
0.246956
0.24829
0.24973
0.251275
0.252921
0.254663
0.256484
0.258362
0.260259
0.262116
0.263851
0.265327
0.266393
0.266616
0.266228
0.262267
0.2334
0.233657
0.233988
0.234234
0.234474
0.234782
0.235162
0.2356
0.236095
0.236655
0.237289
0.238001
0.238794
0.239675
0.240645
0.24171
0.242868
0.24412
0.24546
0.24688
0.248362
0.249879
0.251389
0.252829
0.254105
0.255063
0.25555
0.255032
0.253878
0.248405
0.230298
0.230366
0.230507
0.230557
0.230592
0.230686
0.230845
0.231055
0.231316
0.231634
0.232018
0.232471
0.232998
0.233602
0.234285
0.235051
0.235898
0.236824
0.237822
0.23888
0.239979
0.241087
0.242157
0.243115
0.243858
0.24421
0.244008
0.242604
0.240537
0.233133
0.227668
0.227509
0.22743
0.22727
0.227092
0.226959
0.22688
0.226844
0.226851
0.226909
0.227023
0.227198
0.227436
0.227742
0.228116
0.22856
0.22907
0.229644
0.23027
0.230935
0.231613
0.232267
0.232844
0.233258
0.233395
0.233045
0.232043
0.229596
0.22648
0.216673
0.225638
0.225185
0.22482
0.22444
0.224052
0.223687
0.223355
0.223057
0.222798
0.222583
0.222415
0.222297
0.222232
0.222221
0.222265
0.222365
0.222517
0.222713
0.222942
0.223183
0.223409
0.223574
0.223615
0.223434
0.2229
0.221769
0.219864
0.216223
0.211985
0.199193
0.224476
0.223629
0.222898
0.222285
0.221691
0.221095
0.220502
0.219925
0.219375
0.218862
0.218393
0.217968
0.217587
0.21725
0.216959
0.216709
0.216494
0.216304
0.216122
0.215925
0.215676
0.215323
0.214789
0.213962
0.212689
0.210685
0.20776
0.202715
0.197373
0.180822
0.223564
0.222404
0.221486
0.220698
0.21985
0.218944
0.21807
0.217229
0.216396
0.215578
0.214788
0.214029
0.213302
0.212608
0.211947
0.211315
0.210703
0.2101
0.209485
0.208829
0.208089
0.207203
0.206083
0.204594
0.20256
0.199652
0.195679
0.188956
0.182965
0.161744
0.142731
0.12323
0.10264
0.0817166
0.0610716
0.0410172
0.021774
0.00360899
-0.0129222
-0.027612
-0.0401829
-0.0502502
-0.0572482
-0.0610628
-0.0614757
-0.0581499
-0.0511027
-0.0430437
-0.0374483
-0.0385168
-0.0438089
-0.0477171
-0.0489412
-0.0481843
-0.0457151
-0.0433347
-0.0420645
-0.0408272
-0.0386392
-0.03585
0.169268
0.152513
0.134205
0.115787
0.0974546
0.0791729
0.0613416
0.0443305
0.0282759
0.0132656
-0.000199973
-0.0118299
-0.0205578
-0.0263964
-0.0303503
-0.0318711
-0.0306267
-0.0279524
-0.0272876
-0.0325033
-0.041517
-0.0470334
-0.0473427
-0.0446044
-0.0418101
-0.0414989
-0.0426128
-0.042158
-0.0399097
-0.0361213
0.175495
0.15953
0.142618
0.125433
0.107668
0.0898424
0.0723805
0.0553828
0.0389438
0.0235495
0.00975681
-0.00198235
-0.0112343
-0.0178844
-0.0223136
-0.0243056
-0.0243457
-0.0227438
-0.0228616
-0.0266632
-0.0324507
-0.0357543
-0.0363167
-0.0362087
-0.0370711
-0.039043
-0.0402047
-0.0396366
-0.0382681
-0.0342189
0.184672
0.171035
0.155688
0.139673
0.123358
0.106817
0.0900458
0.0733001
0.0570317
0.0416843
0.0277294
0.0155939
0.00562746
-0.00197557
-0.00733474
-0.0105755
-0.012091
-0.0125947
-0.0140078
-0.0170366
-0.0204365
-0.0224607
-0.0234547
-0.0246125
-0.0263864
-0.02867
-0.0299871
-0.0303341
-0.0293385
-0.0242212
0.18983
0.177281
0.163128
0.148489
0.133385
0.117683
0.101507
0.0853115
0.0694468
0.0542916
0.0402808
0.0278525
0.0173871
0.00913234
0.00307659
-0.000957725
-0.00336125
-0.00482141
-0.006406
-0.00863025
-0.0110058
-0.012597
-0.0132326
-0.0134449
-0.0138849
-0.0145099
-0.0144646
-0.013748
-0.0123922
-0.00826403
0.19385
0.182591
0.169738
0.156249
0.142135
0.127246
0.111755
0.0960444
0.0804826
0.0654538
0.0513959
0.0387637
0.0279538
0.0192268
0.012621
0.0079702
0.00490318
0.00285563
0.00110956
-0.000757903
-0.0024533
-0.0033201
-0.00326802
-0.00281281
-0.00223949
-0.00124364
0.000322406
0.002154
0.00404768
0.00599504
0.196781
0.18657
0.174783
0.162292
0.149095
0.135041
0.120269
0.105112
0.0899455
0.0751556
0.0611748
0.0484589
0.0374153
0.028325
0.0212731
0.0161347
0.01259
0.0101666
0.00832585
0.00677003
0.00569633
0.00547824
0.00610494
0.00727927
0.00889175
0.0109619
0.0133556
0.0159272
0.0183975
0.0189845
0.19902
0.18971
0.178864
0.167283
0.15492
0.141621
0.1275
0.112869
0.0980912
0.0835514
0.0696767
0.0569231
0.0457102
0.0363436
0.0289487
0.0234457
0.0195679
0.01692
0.0150901
0.0138574
0.0133167
0.0136637
0.0148755
0.0167623
0.0192014
0.0221366
0.0254288
0.0288547
0.0318733
0.0337262
0.200781
0.192239
0.182208
0.171417
0.159801
0.147194
0.133688
0.119569
0.105184
0.0909076
0.0771649
0.0644155
0.0530915
0.0435221
0.0358685
0.0300946
0.0259861
0.0232167
0.0214595
0.0205314
0.020463
0.0213553
0.0231716
0.0257568
0.0289824
0.0327641
0.0369784
0.0414308
0.0459175
0.049811
0.20222
0.194328
0.185
0.174903
0.163955
0.151975
0.139037
0.125403
0.111399
0.0973899
0.0837972
0.071083
0.0596912
0.0499727
0.0421222
0.0361465
0.031882
0.0290611
0.0274152
0.0267855
0.0271647
0.0285917
0.0310125
0.0342901
0.0383035
0.0429634
0.0481995
0.0538839
0.0601274
0.0663853
0.203444
0.196103
0.187374
0.177887
0.167534
0.156121
0.143702
0.13052
0.116879
0.103133
0.0896973
0.0770368
0.0656064
0.0557783
0.0477788
0.0416559
0.0372926
0.0344713
0.0329671
0.0326381
0.033451
0.0354015
0.03842
0.0423812
0.0471773
0.052733
0.0590326
0.06602
0.0739065
0.0821706
0.204531
0.197655
0.189437
0.180482
0.170659
0.159755
0.147808
0.135042
0.121743
0.108249
0.094971
0.0823746
0.0709259
0.0610174
0.0529061
0.046678
0.0422594
0.0394755
0.0381357
0.0381108
0.0393479
0.041811
0.0454186
0.0500534
0.0556189
0.0620583
0.0693785
0.0775618
0.0867639
0.0964483
0.205533
0.199052
0.191268
0.182777
0.173424
0.162976
0.151456
0.13907
0.126088
0.112832
0.0997057
0.0871774
0.0757229
0.0657548
0.0575589
0.0512574
0.0468161
0.0440977
0.0429393
0.0432212
0.0448757
0.047842
0.0520278
0.0573193
0.0636258
0.0708969
0.0791297
0.0882991
0.0984509
0.10899
0.206488
0.200342
0.192928
0.18484
0.175904
0.165863
0.154726
0.142685
0.129993
0.116958
0.103974
0.0915124
0.0800585
0.0700442
0.0617832
0.0554319
0.0509925
0.0483602
0.047396
0.0479878
0.0500539
0.0535135
0.0582626
0.0641852
0.0711872
0.0792077
0.0882119
0.0981294
0.108889
0.119831
0.207424
0.201564
0.194463
0.186726
0.178157
0.168479
0.157686
0.145956
0.133526
0.120691
0.107838
0.0954369
0.0839846
0.0739316
0.0656187
0.0592347
0.0548157
0.0522862
0.0515245
0.0524281
0.0549001
0.0588417
0.0641348
0.0706547
0.0782932
0.0869646
0.0965852
0.107022
0.118103
0.129137
0.208359
0.202743
0.195908
0.188478
0.180232
0.170877
0.16039
0.148937
0.136743
0.124087
0.111348
0.0989993
0.0875454
0.0774564
0.0690995
0.0626946
0.0583088
0.055892
0.0553424
0.0565584
0.0594305
0.0638412
0.0696554
0.0767322
0.0849401
0.0941572
0.104242
0.115001
0.126181
0.137095
0.209306
0.203901
0.197291
0.190129
0.182169
0.1731
0.162884
0.151678
0.139691
0.127192
0.114551
0.102241
0.0907789
0.0806523
0.0722549
0.0658364
0.0614926
0.0591969
0.058865
0.0603935
0.0636594
0.0685252
0.0748349
0.0824245
0.0911312
0.10079
0.111203
0.122123
0.133237
0.143895
0.210274
0.205053
0.198634
0.191696
0.183998
0.175182
0.165206
0.154217
0.142412
0.130046
0.117483
0.105199
0.0937176
0.0835483
0.0751101
0.0686818
0.0643855
0.0622173
0.0621062
0.0639468
0.0676005
0.0729069
0.0796846
0.0877415
0.0968772
0.106883
0.117504
0.128459
0.139391
0.149716
0.211267
0.206209
0.199956
0.193221
0.185744
0.177152
0.167388
0.156589
0.144939
0.132683
0.120179
0.107902
0.0963896
0.0861692
0.0776867
0.0712495
0.0670037
0.0649667
0.0650796
0.0672316
0.0712667
0.0769988
0.084217
0.0926959
0.102195
0.112462
0.123195
0.13409
0.144766
0.154718
0.212288
0.207376
0.201266
0.194711
0.187429
0.179036
0.169459
0.158823
0.147303
0.135134
0.122666
0.110379
0.0988194
0.0885365
0.0800034
0.0735558
0.0693664
0.0674572
0.0677967
0.0702594
0.0746701
0.0808136
0.0884455
0.0973036
0.107106
0.117561
0.128327
0.139096
0.149475
0.159047
0.213336
0.208558
0.202577
0.19618
0.189072
0.180854
0.17144
0.160945
0.149531
0.137424
0.124971
0.112652
0.101028
0.0906686
0.082076
0.075614
0.0714736
0.0696998
0.070267
0.0730408
0.0778225
0.0843642
0.0923849
0.101583
0.111636
0.122218
0.132956
0.14356
0.153628
0.162825
0.214408
0.209758
0.203894
0.197639
0.190686
0.182622
0.173352
0.162976
0.151646
0.139578
0.127116
0.114743
0.103034
0.0925818
0.0839185
0.0774364
0.0733417
0.0717038
0.0724999
0.0755855
0.0807346
0.0876629
0.0960496
0.105553
0.115813
0.126474
0.137142
0.147561
0.157316
0.166157
0.215497
0.210975
0.205224
0.199099
0.192283
0.184356
0.175213
0.164937
0.153668
0.141617
0.129122
0.116671
0.104854
0.0942887
0.0855413
0.0790319
0.0749783
0.0734765
0.0745046
0.0779047
0.0834195
0.0907251
0.0994585
0.109237
0.119664
0.130365
0.140943
0.151185
0.160595
0.168963
0.216594
0.212204
0.20657
0.200565
0.19387
0.186068
0.177037
0.166843
0.155615
0.143559
0.131007
0.118454
0.106505
0.0958062
0.08696
0.0804158
0.0763953
0.0750284
0.0762924
0.0800099
0.085889
0.0935641
0.102629
0.11266
0.123227
0.133933
0.144393
0.154472
0.16357
0.17165
0.217689
0.213439
0.207935
0.202044
0.195454
0.187767
0.178838
0.168711
0.157503
0.145417
0.132778
0.120094
0.107985
0.0971261
0.0881636
0.0815743
0.0775684
0.0763331
0.0778408
0.0818877
0.0881385
0.0961813
0.105567
0.115835
0.126531
0.13725
0.147601
0.15742
0.166086
0.174121
0.218779
0.214674
0.209319
0.203541
0.197035
0.189457
0.180628
0.170566
0.159372
0.147244
0.134501
0.121661
0.109366
0.0983226
0.0892313
0.0826418
0.0786336
0.0775105
0.0792503
0.083618
0.0902319
0.0986294
0.108312
0.118775
0.129547
0.140257
0.150594
0.160369
0.168841
0.176689
0.219844
0.2159
0.210724
0.205076
0.198627
0.191119
0.182348
0.172317
0.161106
0.148896
0.136024
0.122995
0.110474
0.0991987
0.089918
0.0831276
0.0792649
0.0783176
0.0803397
0.0850696
0.0920846
0.100874
0.110891
0.121579
0.132413
0.142993
0.152995
0.162356
0.170942
0.178904
0.220863
0.217097
0.212108
0.206647
0.200415
0.193017
0.184346
0.174362
0.163132
0.15083
0.137815
0.124589
0.111847
0.100358
0.0909764
0.0841061
0.0800039
0.0791319
0.0813925
0.0864496
0.0938353
0.102995
0.113353
0.12434
0.135447
0.146311
0.156535
0.165822
0.173826
0.181349
0.221814
0.218289
0.213398
0.207806
0.201513
0.194196
0.185615
0.175641
0.164337
0.151899
0.138685
0.125227
0.112241
0.100505
0.0909943
0.0841742
0.080229
0.0795419
0.0821125
0.0875381
0.0952703
0.104688
0.115157
0.126069
0.136931
0.147484
0.157438
0.16675
0.175407
0.182993
0.222733
0.219873
0.215538
0.210223
0.204111
0.196959
0.188512
0.17862
0.167299
0.154712
0.14122
0.127373
0.113912
0.101691
0.0916885
0.0844999
0.0804559
0.0799065
0.0828369
0.0888097
0.0972059
0.107357
0.118524
0.130024
0.141381
0.152103
0.162038
0.171145
0.179016
0.185231
0.158345
0.141671
0.140107
0.156563
0.173371
0.177
0.176555
0.176334
0.176485
0.177138
0.178502
0.180488
0.182917
0.185641
0.188543
0.19153
0.194515
0.19743
0.200223
0.202855
0.205316
0.207568
0.209685
0.211559
0.213442
0.215052
0.216827
0.218312
0.220484
0.219147
0.16336
0.138461
0.140836
0.158976
0.177647
0.182242
0.180176
0.178396
0.177325
0.17684
0.177293
0.178625
0.180608
0.183033
0.185755
0.188666
0.191669
0.194673
0.197613
0.20043
0.203097
0.205558
0.207841
0.209859
0.211717
0.213277
0.214776
0.215815
0.217209
0.217597
0.168315
0.143519
0.145054
0.16156
0.183256
0.189521
0.185673
0.181732
0.179003
0.177149
0.17641
0.176806
0.17813
0.180113
0.182558
0.185329
0.188309
0.19139
0.194487
0.197527
0.200462
0.203236
0.205831
0.208198
0.21035
0.212234
0.21395
0.215371
0.216806
0.218092
0.164508
0.149297
0.149383
0.170318
0.192263
0.199546
0.193932
0.187146
0.182048
0.178492
0.176407
0.175773
0.176369
0.177858
0.179993
0.182607
0.185555
0.188701
0.191939
0.195188
0.198384
0.201473
0.204417
0.207182
0.209749
0.212089
0.214216
0.216094
0.217748
0.219177
0.150148
0.140811
0.149659
0.179129
0.202919
0.211835
0.204922
0.194834
0.187184
0.181189
0.176956
0.174817
0.174478
0.175334
0.177008
0.179329
0.182145
0.185287
0.18862
0.192038
0.195466
0.19884
0.202112
0.20524
0.208194
0.210944
0.213471
0.215758
0.217787
0.219572
0.13441
0.121275
0.135146
0.175859
0.211478
0.224038
0.217805
0.204041
0.193083
0.185295
0.178603
0.173897
0.171962
0.171982
0.17309
0.174986
0.177535
0.180577
0.183949
0.187514
0.191169
0.194837
0.198456
0.201977
0.205359
0.20857
0.211583
0.21438
0.216936
0.21926
0.128345
0.113895
0.120788
0.159098
0.20413
0.22695
0.228163
0.214303
0.198634
0.188169
0.180561
0.174126
0.16949
0.16786
0.168062
0.16947
0.171692
0.174553
0.177901
0.181581
0.185455
0.189421
0.193404
0.197346
0.201199
0.204926
0.208491
0.211872
0.215031
0.217968
0.133206
0.121236
0.118211
0.141556
0.180038
0.211861
0.225359
0.219845
0.203942
0.189175
0.179218
0.172104
0.166884
0.163086
0.161488
0.162108
0.163978
0.166659
0.169945
0.173718
0.177818
0.182107
0.186484
0.190872
0.195219
0.199484
0.20363
0.207631
0.211447
0.215071
0.138856
0.132747
0.12419
0.133572
0.158875
0.183813
0.200393
0.207092
0.202292
0.189032
0.17526
0.165265
0.159027
0.155157
0.153241
0.15231
0.153527
0.156064
0.159352
0.163217
0.167483
0.172083
0.176882
0.181764
0.18666
0.191517
0.196293
0.20096
0.205473
0.209818
0.140509
0.140334
0.132291
0.131446
0.143562
0.159436
0.17281
0.180685
0.182678
0.178276
0.168064
0.156217
0.146535
0.140961
0.138368
0.137788
0.138672
0.140436
0.144211
0.148761
0.153507
0.158589
0.163833
0.169213
0.174687
0.180178
0.185629
0.191012
0.196276
0.201402
0.137295
0.143224
0.135999
0.130192
0.133112
0.139963
0.147404
0.153058
0.155383
0.154159
0.149548
0.141565
0.131694
0.123028
0.117298
0.115587
0.116583
0.118968
0.121987
0.126066
0.132336
0.139216
0.145636
0.151931
0.15824
0.164536
0.170764
0.176916
0.182955
0.188873
0.128619
0.135339
0.131152
0.125859
0.123577
0.123791
0.125128
0.126253
0.126075
0.123999
0.120136
0.114969
0.108432
0.100801
0.0934577
0.0883221
0.0864598
0.0882785
0.0925614
0.0974306
0.102258
0.108884
0.117526
0.126049
0.134135
0.141965
0.149552
0.156914
0.164017
0.170886
0.113639
0.121633
0.120509
0.117156
0.112874
0.108928
0.105341
0.101643
0.097309
0.0920915
0.0860557
0.0795443
0.0731937
0.0672345
0.0614669
0.0561366
0.0522958
0.050886
0.052652
0.0576797
0.0646042
0.0721924
0.0796487
0.0885559
0.0991663
0.109295
0.11898
0.128292
0.137088
0.145439
0.0985413
0.106597
0.106748
0.104733
0.100116
0.0941332
0.0872301
0.0795131
0.0709489
0.0616544
0.0519332
0.0421917
0.0329243
0.0247598
0.0183451
0.013381
0.00988122
0.0078788
0.00792408
0.0104579
0.0155301
0.0233887
0.0333514
0.0441736
0.0542924
0.0650789
0.0774166
0.0892692
0.100226
0.110768
0.0845596
0.090845
0.0917062
0.0900939
0.0856205
0.0789084
0.0702838
0.0599776
0.0481395
0.0351198
0.0215012
0.00786592
-0.00522891
-0.0171743
-0.0274578
-0.0352592
-0.0403625
-0.0429944
-0.0434433
-0.0417838
-0.0378792
-0.0315395
-0.0230248
-0.012479
8.33363e-05
0.0138881
0.0276598
0.040389
0.0529821
0.0664265
0.0701668
0.0749563
0.0752519
0.073559
0.0692645
0.062611
0.0536291
0.042432
0.0291404
0.0140788
-0.00223731
-0.0190676
-0.0356366
-0.0511899
-0.0650853
-0.0768016
-0.085939
-0.0919458
-0.0946738
-0.0945232
-0.0918518
-0.0868072
-0.0794709
-0.0698561
-0.0581099
-0.0447943
-0.0302679
-0.0146417
0.00140503
0.0168444
0.0540376
0.0574141
0.0566671
0.0544407
0.0502439
0.0441769
0.0359755
0.0254572
0.0125848
-0.00236487
-0.0189276
-0.0367253
-0.0550254
-0.0729358
-0.0895483
-0.104141
-0.116233
-0.125511
-0.131711
-0.134534
-0.13439
-0.131425
-0.125931
-0.11804
-0.107815
-0.0954207
-0.0811213
-0.0653531
-0.0486815
-0.0320549