/*--------------------------------*- C++ -*----------------------------------*\
  =========                 |
  \\      /  F ield         | OpenFOAM: The Open Source CFD Toolbox
   \\    /   O peration     | Website:  https://openfoam.org
    \\  /    A nd           | Version:  11
     \\/     M anipulation  |
\*---------------------------------------------------------------------------*/
FoamFile
{
    format      ascii;
    class       volScalarField;
    location    "9.3";
    object      p;
}
// * * * * * * * * * * * * * * * * * * * * * * * * * * * * * * * * * * * * * //

dimensions      [0 2 -2 0 0 0 0];

internalField   nonuniform List<scalar> 
12600
(
0.0903337
0.090197
0.0901334
0.0901153
0.0900995
0.0900781
0.0900545
0.0900303
0.0900051
0.0899781
0.0899483
0.089915
0.0898775
0.0898348
0.0897856
0.0897286
0.0896619
0.0895833
0.0894899
0.0893787
0.0892457
0.0890853
0.088891
0.0886548
0.0883686
0.0880187
0.087589
0.0870568
0.0863894
0.085498
0.0902574
0.0901882
0.0901359
0.0901143
0.0900976
0.0900768
0.0900538
0.0900298
0.0900049
0.0899781
0.0899486
0.0899156
0.0898784
0.089836
0.0897873
0.0897307
0.0896647
0.089587
0.0894947
0.0893847
0.0892531
0.0890949
0.0889034
0.0886713
0.0883881
0.0880422
0.0876203
0.0871008
0.0864962
0.0858219
0.0902222
0.0901894
0.0901439
0.0901162
0.090098
0.0900781
0.0900557
0.0900319
0.0900071
0.0899806
0.0899513
0.0899188
0.0898821
0.0898403
0.0897924
0.0897369
0.0896721
0.0895962
0.0895061
0.0893985
0.0892696
0.0891145
0.0889274
0.0887006
0.0884243
0.0880875
0.0876776
0.0871786
0.0865915
0.0858851
0.0901973
0.0901768
0.0901411
0.0901137
0.0900951
0.0900764
0.0900548
0.0900317
0.0900075
0.0899816
0.089953
0.0899212
0.0898854
0.0898447
0.0897981
0.089744
0.0896808
0.0896073
0.0895201
0.089416
0.0892912
0.0891412
0.0889605
0.0887416
0.0884755
0.0881514
0.087757
0.0872778
0.0866998
0.0859976
0.0901791
0.0901657
0.0901392
0.0901145
0.0900957
0.0900776
0.0900568
0.0900343
0.0900107
0.0899853
0.0899575
0.0899265
0.0898918
0.0898524
0.0898074
0.0897554
0.0896949
0.0896235
0.0895396
0.0894399
0.0893206
0.0891775
0.089005
0.0887963
0.0885429
0.0882346
0.087859
0.0874019
0.0868427
0.0861617
0.0901656
0.0901563
0.0901361
0.090114
0.0900952
0.0900773
0.0900575
0.0900359
0.0900128
0.0899882
0.0899613
0.0899314
0.089898
0.08986
0.0898168
0.0897672
0.0897096
0.0896419
0.0895623
0.0894679
0.0893553
0.0892203
0.0890579
0.0888616
0.0886236
0.0883342
0.0879812
0.0875508
0.0870194
0.0863692
0.0901556
0.0901486
0.0901326
0.0901133
0.0900953
0.090078
0.0900592
0.0900385
0.0900164
0.0899926
0.0899667
0.0899382
0.0899064
0.0898702
0.0898292
0.0897822
0.0897279
0.0896644
0.0895898
0.0895016
0.0893967
0.0892712
0.0891205
0.0889387
0.0887185
0.088451
0.0881245
0.0877256
0.0872301
0.0866214
0.090148
0.0901426
0.0901295
0.0901127
0.0900957
0.090079
0.090061
0.0900413
0.09002
0.0899972
0.0899725
0.0899452
0.0899147
0.0898809
0.0898425
0.0897985
0.0897479
0.0896891
0.0896202
0.089539
0.0894428
0.089328
0.0891906
0.0890251
0.0888251
0.0885825
0.0882862
0.0879239
0.0874718
0.0869148
0.0901424
0.0901379
0.090127
0.0901122
0.0900964
0.0900803
0.0900632
0.0900445
0.0900242
0.0900025
0.089979
0.0899533
0.0899248
0.0898932
0.0898575
0.089817
0.0897706
0.0897169
0.0896543
0.0895809
0.0894942
0.0893913
0.0892684
0.089121
0.0889433
0.0887282
0.0884658
0.0881448
0.0877433
0.0872475
0.0901383
0.0901346
0.0901252
0.090112
0.0900974
0.0900821
0.0900658
0.090048
0.0900288
0.0900083
0.0899861
0.089962
0.0899356
0.0899064
0.0898737
0.0898368
0.0897949
0.0897467
0.0896909
0.0896259
0.0895496
0.0894594
0.0893523
0.0892245
0.089071
0.0888858
0.0886605
0.0883853
0.0880409
0.0876152
0.0901356
0.0901323
0.0901242
0.0901123
0.0900987
0.0900842
0.0900687
0.0900519
0.0900338
0.0900144
0.0899938
0.0899714
0.0899471
0.0899205
0.089891
0.0898581
0.0898209
0.0897787
0.0897302
0.0896741
0.0896088
0.0895322
0.0894419
0.0893348
0.089207
0.0890538
0.0888684
0.088643
0.0883614
0.0880137
0.0901341
0.0901312
0.0901238
0.0901131
0.0901004
0.0900866
0.0900719
0.090056
0.0900391
0.090021
0.0900018
0.0899813
0.0899593
0.0899354
0.0899093
0.0898804
0.0898483
0.0898122
0.0897713
0.0897246
0.0896708
0.0896084
0.0895357
0.0894503
0.0893496
0.08923
0.0890867
0.0889141
0.0887
0.0884374
0.0901337
0.0901309
0.0901242
0.0901143
0.0901024
0.0900894
0.0900754
0.0900605
0.0900446
0.0900279
0.0900103
0.0899917
0.0899719
0.0899509
0.0899282
0.0899036
0.0898767
0.089847
0.089814
0.0897769
0.0897351
0.0896874
0.0896328
0.0895699
0.089497
0.0894122
0.0893126
0.0891951
0.0890521
0.0888797
0.0901341
0.0901316
0.0901253
0.090116
0.0901048
0.0900924
0.0900792
0.0900652
0.0900504
0.090035
0.090019
0.0900023
0.0899849
0.0899668
0.0899476
0.0899274
0.0899059
0.0898827
0.0898577
0.0898306
0.0898008
0.0897681
0.089732
0.0896919
0.0896475
0.0895981
0.089543
0.0894818
0.0894118
0.0893332
0.0901354
0.090133
0.0901271
0.0901182
0.0901075
0.0900958
0.0900833
0.0900701
0.0900564
0.0900423
0.0900278
0.0900131
0.0899982
0.0899829
0.0899674
0.0899516
0.0899354
0.0899189
0.089902
0.0898848
0.0898674
0.0898497
0.0898322
0.0898151
0.0897991
0.0897851
0.0897747
0.08977
0.0897735
0.0897895
0.0901376
0.0901353
0.0901295
0.0901209
0.0901106
0.0900994
0.0900875
0.0900752
0.0900625
0.0900496
0.0900368
0.090024
0.0900115
0.0899992
0.0899872
0.0899758
0.0899651
0.0899552
0.0899464
0.0899392
0.0899339
0.0899313
0.0899321
0.0899378
0.0899499
0.0899711
0.0900046
0.0900554
0.090131
0.0902399
0.0901405
0.0901382
0.0901325
0.090124
0.0901139
0.0901031
0.0900919
0.0900803
0.0900686
0.090057
0.0900457
0.0900349
0.0900247
0.0900153
0.0900069
0.0899999
0.0899945
0.0899912
0.0899904
0.089993
0.0899997
0.0900118
0.0900308
0.0900587
0.0900983
0.0901534
0.0902294
0.0903337
0.0904782
0.0906758
0.0901443
0.0901419
0.0901361
0.0901275
0.0901176
0.0901071
0.0900963
0.0900855
0.0900747
0.0900643
0.0900545
0.0900456
0.0900377
0.0900312
0.0900263
0.0900235
0.0900234
0.0900264
0.0900335
0.0900457
0.0900641
0.0900906
0.0901271
0.0901765
0.0902425
0.0903301
0.0904465
0.090601
0.0908097
0.0910889
0.0901489
0.0901464
0.0901403
0.0901314
0.0901214
0.0901111
0.0901009
0.0900907
0.0900808
0.0900715
0.0900632
0.090056
0.0900504
0.0900466
0.0900451
0.0900465
0.0900514
0.0900607
0.0900753
0.0900967
0.0901264
0.0901666
0.0902199
0.0902897
0.0903807
0.090499
0.090653
0.0908538
0.0911204
0.0914722
0.0901543
0.0901516
0.090145
0.0901356
0.0901253
0.0901152
0.0901054
0.0900957
0.0900866
0.0900784
0.0900715
0.0900661
0.0900626
0.0900614
0.0900632
0.0900685
0.0900783
0.0900935
0.0901153
0.0901455
0.0901859
0.0902391
0.0903082
0.0903973
0.0905117
0.0906583
0.0908467
0.0910892
0.0914065
0.0918199
0.0901608
0.0901577
0.0901502
0.0901399
0.0901293
0.0901193
0.0901098
0.0901007
0.0900922
0.090085
0.0900794
0.0900756
0.0900741
0.0900755
0.0900803
0.0900894
0.0901037
0.0901245
0.0901532
0.0901916
0.0902421
0.0903074
0.0903913
0.0904982
0.090634
0.0908064
0.0910256
0.0913047
0.091665
0.0921284
0.0901683
0.0901647
0.0901559
0.0901444
0.0901333
0.0901234
0.0901141
0.0901053
0.0900975
0.0900912
0.0900868
0.0900846
0.090085
0.0900886
0.0900963
0.0901089
0.0901275
0.0901535
0.0901885
0.0902346
0.0902943
0.0903709
0.0904683
0.0905915
0.0907467
0.0909422
0.0911884
0.091499
0.0918945
0.0923962
0.0901772
0.0901727
0.090162
0.0901489
0.0901372
0.0901274
0.0901183
0.0901098
0.0901025
0.090097
0.0900936
0.0900928
0.0900949
0.0901007
0.0901109
0.0901267
0.0901492
0.0901799
0.0902207
0.0902738
0.090342
0.0904287
0.0905383
0.090676
0.0908485
0.0910642
0.0913338
0.0916707
0.0920941
0.0926234
0.0901877
0.0901818
0.0901684
0.0901532
0.0901409
0.0901312
0.0901222
0.0901138
0.090107
0.0901023
0.0901
0.0901004
0.090104
0.0901118
0.0901244
0.0901431
0.0901691
0.0902041
0.09025
0.0903094
0.0903851
0.0904809
0.0906012
0.0907517
0.0909392
0.0911722
0.0914615
0.09182
0.092265
0.0928131
0.0902003
0.0901921
0.0901747
0.0901571
0.0901445
0.0901348
0.0901256
0.0901172
0.0901107
0.0901067
0.0901052
0.0901066
0.0901116
0.090121
0.0901358
0.090157
0.0901861
0.0902248
0.0902753
0.0903401
0.0904224
0.090526
0.0906556
0.0908171
0.0910173
0.0912649
0.0915703
0.0919462
0.0924078
0.0929684
0.0902159
0.0902038
0.0901802
0.0901603
0.090148
0.0901386
0.0901292
0.0901208
0.0901147
0.0901112
0.0901105
0.0901128
0.090119
0.0901298
0.0901463
0.0901697
0.0902014
0.0902433
0.0902975
0.090367
0.0904548
0.090565
0.0907024
0.090873
0.0910836
0.0913429
0.0916611
0.0920504
0.0925253
0.0930955
0.0902359
0.0902167
0.0901842
0.0901617
0.09015
0.0901405
0.0901308
0.0901224
0.0901166
0.0901136
0.0901135
0.0901167
0.0901238
0.0901359
0.0901538
0.090179
0.0902129
0.0902574
0.0903148
0.090388
0.0904804
0.0905958
0.0907395
0.0909175
0.0911363
0.0914045
0.0917323
0.0921313
0.092618
0.0931975
0.0902623
0.0902308
0.0901885
0.0901659
0.0901548
0.0901446
0.0901341
0.0901256
0.09012
0.0901173
0.0901175
0.0901212
0.090129
0.0901419
0.0901609
0.0901873
0.0902228
0.0902693
0.0903291
0.0904052
0.090501
0.0906204
0.0907687
0.0909519
0.0911768
0.0914512
0.0917851
0.0921897
0.0926871
0.0932842
0.0902984
0.0902307
0.0901817
0.0901651
0.0901558
0.0901448
0.090134
0.0901258
0.0901205
0.0901181
0.0901187
0.0901228
0.0901312
0.0901448
0.0901646
0.090192
0.0902287
0.0902765
0.090338
0.090416
0.0905141
0.0906365
0.0907881
0.0909749
0.0912035
0.0914817
0.0918183
0.092223
0.0927194
0.093352
0.0903753
0.0902399
0.0901797
0.0901668
0.0901585
0.0901468
0.0901356
0.0901273
0.0901221
0.0901197
0.0901204
0.0901247
0.0901333
0.0901471
0.0901673
0.0901952
0.0902324
0.0902809
0.0903432
0.0904223
0.0905214
0.0906455
0.0907991
0.0909875
0.0912178
0.0914977
0.0918345
0.0922355
0.0926924
0.0931906
0.0853545
0.0845701
0.0841627
0.0840704
0.0839537
0.0837339
0.0834759
0.0832208
0.082975
0.0827359
0.0825029
0.0822766
0.0820566
0.0818415
0.0816292
0.0814178
0.0812047
0.0809868
0.0807596
0.0805169
0.0802497
0.0799405
0.0795769
0.0790538
0.0785215
0.0769209
0.0766824
0.0683089
0.0717562
0.0200668
0.0858219
0.0850982
0.0845931
0.084407
0.0842358
0.0840005
0.0837463
0.0835159
0.0833052
0.0831033
0.0829083
0.0827217
0.0825436
0.0823732
0.08221
0.0820534
0.081903
0.0817581
0.0816175
0.0814794
0.0813404
0.0811941
0.0810301
0.0808054
0.0805512
0.0797279
0.0795938
0.0739054
0.0764823
0.0344494
0.0854387
0.0850119
0.0846991
0.0845593
0.0844166
0.0842182
0.0840111
0.0838256
0.083655
0.0834903
0.0833326
0.0831853
0.0830495
0.0829255
0.0828139
0.0827158
0.0826326
0.082566
0.0825183
0.0824921
0.0824904
0.0825159
0.0825689
0.0826396
0.0827301
0.0825877
0.082812
0.0794573
0.0816754
0.0488744
0.0854532
0.0852193
0.0850214
0.0848656
0.084708
0.0845313
0.084359
0.0842059
0.0840671
0.0839375
0.0838187
0.0837137
0.083624
0.0835505
0.0834952
0.0834609
0.083451
0.0834699
0.0835234
0.0836189
0.083766
0.0839767
0.0842642
0.0846437
0.085123
0.0856238
0.0863825
0.0851014
0.087394
0.0631065
0.0855924
0.0854288
0.0852853
0.0851432
0.0850037
0.0848665
0.0847382
0.0846238
0.0845219
0.0844316
0.0843549
0.0842949
0.0842539
0.0842342
0.0842393
0.0842735
0.0843425
0.0844534
0.0846158
0.084842
0.0851482
0.0855561
0.0860925
0.0867942
0.0876925
0.0888149
0.0902399
0.090798
0.0935549
0.0770655
0.0858112
0.0856976
0.0856032
0.0854903
0.085376
0.0852717
0.0851791
0.0850994
0.0850334
0.0849825
0.084949
0.084936
0.0849466
0.0849842
0.0850538
0.0851614
0.0853148
0.0855241
0.0858027
0.0861679
0.0866429
0.0872591
0.088057
0.089094
0.0904309
0.0921679
0.0943416
0.0965429
0.100058
0.090654
0.0860929
0.0860179
0.0859616
0.085877
0.0857897
0.085718
0.0856623
0.0856204
0.0855939
0.0855853
0.0855977
0.0856345
0.0856996
0.0857981
0.085936
0.0861214
0.0863643
0.0866778
0.0870791
0.0875908
0.088243
0.0890766
0.0901461
0.0915288
0.0933162
0.0956634
0.0986308
0.102304
0.106823
0.103684
0.0864267
0.0863861
0.0863645
0.0863103
0.0862535
0.0862159
0.086197
0.0861935
0.0862072
0.0862419
0.0863015
0.08639
0.0865122
0.0866744
0.0868841
0.0871512
0.087488
0.0879106
0.0884402
0.0891043
0.0899402
0.0909981
0.0923462
0.0940808
0.0963234
0.0992739
0.103049
0.108042
0.113741
0.115985
0.0868096
0.0868005
0.0868113
0.0867879
0.0867625
0.086759
0.0867769
0.0868124
0.0868676
0.0869473
0.0870559
0.0871981
0.0873798
0.0876082
0.0878925
0.0882443
0.0886784
0.0892139
0.0898756
0.0906964
0.0917201
0.0930064
0.0946362
0.0967237
0.0994188
0.102959
0.107529
0.113702
0.120689
0.127398
0.0872362
0.0872571
0.0872986
0.0873062
0.0873131
0.0873442
0.0873992
0.0874744
0.087572
0.0876975
0.0878562
0.0880534
0.0882958
0.088592
0.0889527
0.0893913
0.0899248
0.0905753
0.0913713
0.0923506
0.0935636
0.0950785
0.0969885
0.0994241
0.102561
0.106668
0.111999
0.119218
0.12752
0.137754
0.0877024
0.0877516
0.0878219
0.0878604
0.0878999
0.0879656
0.0880576
0.0881725
0.0883128
0.0884845
0.0886937
0.0889464
0.0892503
0.0896151
0.0900529
0.0905788
0.0912122
0.0919779
0.092908
0.0940449
0.0954451
0.0971849
0.0993684
0.102141
0.1057
0.110342
0.116378
0.124511
0.134063
0.14684
0.0882013
0.0882771
0.0883745
0.0884433
0.0885153
0.0886153
0.0887439
0.0888981
0.0890808
0.0892985
0.0895578
0.0898657
0.0902306
0.0906634
0.0911774
0.0917897
0.0925215
0.0934004
0.0944617
0.0957522
0.0973338
0.0992899
0.101735
0.104825
0.10878
0.113911
0.120584
0.129493
0.140143
0.15446
0.0887254
0.0888258
0.0889481
0.0890463
0.0891503
0.0892837
0.0894479
0.0896402
0.0898642
0.0901267
0.0904349
0.0907964
0.0912206
0.0917193
0.0923073
0.0930029
0.0938296
0.0948171
0.0960038
0.0974403
0.0991934
0.101353
0.10404
0.107424
0.111736
0.117303
0.124528
0.134073
0.145608
0.160656
0.0892648
0.0893879
0.0895326
0.0896587
0.0897936
0.0899591
0.0901569
0.0903856
0.0906489
0.0909541
0.0913087
0.0917211
0.0922015
0.0927626
0.0934203
0.0941944
0.09511
0.0961989
0.0975022
0.0990735
0.100984
0.103328
0.106234
0.109878
0.114502
0.120441
0.128123
0.138156
0.150365
0.165713
0.0898089
0.0899522
0.0901168
0.0902689
0.0904328
0.0906281
0.0908573
0.0911196
0.0914193
0.0917638
0.0921613
0.0926206
0.0931526
0.0937708
0.0944922
0.0953377
0.0963339
0.0975142
0.098922
0.100613
0.102663
0.105168
0.108263
0.112127
0.117011
0.123249
0.131284
0.141654
0.154337
0.169431
0.0903458
0.0905068
0.0906884
0.0908638
0.0910543
0.0912767
0.0915338
0.0918262
0.0921585
0.0925382
0.0929737
0.0934745
0.094052
0.0947205
0.0954977
0.0964056
0.0974716
0.0987308
0.100228
0.102022
0.104187
0.106827
0.110075
0.114115
0.119199
0.125656
0.133931
0.144484
0.157395
0.171588
0.0908635
0.0910395
0.0912351
0.0914308
0.0916445
0.0918904
0.0921716
0.0924898
0.0928498
0.0932593
0.093727
0.0942627
0.0948783
0.0955888
0.0964122
0.0973713
0.0984945
0.0998176
0.101387
0.103261
0.105518
0.10826
0.111623
0.115789
0.121007
0.127598
0.135992
0.146557
0.159372
0.172305
0.0913505
0.0915387
0.0917452
0.0919578
0.0921908
0.092456
0.0927567
0.0930954
0.0934775
0.0939107
0.0944037
0.0949666
0.0956119
0.0963545
0.0972131
0.0982109
0.0993768
0.100747
0.102368
0.1043
0.10662
0.10943
0.112865
0.117104
0.12239
0.129023
0.137412
0.147802
0.160184
0.171662
0.0917968
0.0919943
0.0922087
0.0924341
0.0926821
0.0929618
0.0932768
0.0936306
0.0940286
0.0944785
0.0949892
0.0955709
0.0962361
0.0970002
0.097882
0.0989048
0.100098
0.101497
0.103149
0.105113
0.107467
0.110309
0.113773
0.11803
0.123312
0.129896
0.13815
0.14818
0.159924
0.16955
0.0921949
0.0923986
0.092618
0.0928521
0.0931102
0.0933994
0.0937233
0.094086
0.0944932
0.0949525
0.0954727
0.0960641
0.0967393
0.0975136
0.0984057
0.099439
0.100642
0.102051
0.103713
0.105684
0.10804
0.110879
0.114327
0.118548
0.123759
0.130204
0.13821
0.147706
0.15875
0.16578
0.0925395
0.0927466
0.092968
0.0932066
0.0934699
0.0937632
0.0940904
0.0944559
0.0948656
0.0953268
0.0958481
0.0964401
0.097115
0.097888
0.0987777
0.099807
0.101004
0.102405
0.104053
0.106006
0.108337
0.111137
0.114527
0.118661
0.123737
0.129959
0.137617
0.146418
0.156709
0.160674
0.0928299
0.0930377
0.0932582
0.0934972
0.0937607
0.094053
0.094378
0.0947402
0.0951455
0.095601
0.0961153
0.0966986
0.0973632
0.0981237
0.0989985
0.10001
0.101185
0.102559
0.104174
0.106085
0.108361
0.11109
0.114384
0.118382
0.123265
0.129185
0.136411
0.144372
0.153874
0.154518
0.0930669
0.0932726
0.0934895
0.0937249
0.0939841
0.0942706
0.0945883
0.0949416
0.0953362
0.0957792
0.0962789
0.096845
0.0974895
0.0982269
0.0990747
0.100055
0.101193
0.102523
0.104086
0.105933
0.108129
0.110756
0.113917
0.117736
0.122372
0.127924
0.134653
0.141642
0.150341
0.146957
0.0932572
0.093458
0.0936681
0.0938958
0.0941461
0.0944222
0.0947273
0.0950659
0.0954437
0.0958676
0.0963455
0.0968867
0.0975027
0.0982074
0.0990176
0.0999541
0.101042
0.102313
0.103806
0.105569
0.107662
0.110161
0.113159
0.116762
0.12111
0.126236
0.13242
0.1383
0.146213
0.138008
0.0934073
0.0936008
0.0938002
0.0940165
0.0942553
0.0945182
0.0948075
0.0951272
0.0954831
0.0958818
0.0963309
0.0968396
0.0974188
0.0980819
0.0988448
0.0997271
0.100753
0.101952
0.10336
0.105022
0.106994
0.109343
0.112152
0.115508
0.119535
0.12419
0.129794
0.134417
0.141603
0.127959
0.0935332
0.093715
0.0938952
0.0940934
0.0943163
0.0945618
0.0948308
0.095128
0.095459
0.0958293
0.0962456
0.0967166
0.0972529
0.0978672
0.0985746
0.0993937
0.100347
0.101462
0.102773
0.104321
0.106155
0.108337
0.110938
0.114025
0.117705
0.121851
0.126861
0.130107
0.136614
0.117012
0.0936534
0.0938194
0.0939692
0.094149
0.094361
0.0945887
0.0948316
0.0950994
0.095399
0.0957347
0.0961124
0.0965404
0.0970286
0.0975883
0.0982339
0.098983
0.0998564
0.10088
0.102084
0.103507
0.105193
0.107194
0.109573
0.112374
0.115693
0.119299
0.12372
0.125424
0.13136
0.105419
0.0938097
0.0939058
0.0939827
0.0941363
0.0943416
0.0945588
0.0947835
0.0950276
0.0952974
0.0955968
0.0959324
0.0963134
0.0967485
0.097248
0.0978258
0.0984979
0.0992838
0.100207
0.101296
0.102585
0.104113
0.105925
0.108073
0.110578
0.11353
0.116569
0.120445
0.120428
0.126007
0.0933999
0.0942222
0.094163
0.0940945
0.0941941
0.0943717
0.0945598
0.0947571
0.094976
0.0952162
0.0954779
0.09577
0.0961035
0.0964846
0.0969223
0.0974306
0.0980246
0.0987219
0.0995439
0.100516
0.10167
0.103038
0.104658
0.106572
0.108777
0.111365
0.113814
0.117205
0.115285
0.120698
0.0811833
0.0941903
0.0939006
0.0938256
0.0940078
0.0942441
0.0944506
0.0946362
0.0948227
0.0950245
0.0952473
0.0954945
0.0957744
0.0960951
0.0964643
0.0968939
0.0973985
0.0979949
0.098703
0.0995465
0.100552
0.101751
0.103171
0.104849
0.106748
0.108994
0.110814
0.113881
0.109824
0.115335
0.0690127
0.0583756
0.0472379
0.0347312
0.021893
0.00948428
-0.00215553
-0.0127199
-0.0218029
-0.0288877
-0.0333884
-0.0347857
-0.0329314
-0.0284541
-0.0228214
-0.0176634
-0.0138007
-0.0115928
-0.0103577
-0.00828418
-0.00705164
-0.00786917
-0.00883025
-0.00895826
-0.00860685
-0.00821369
-0.00789975
-0.00760729
-0.00719273
-0.00688157
-0.00720401
0.109823
0.101675
0.0929066
0.0843131
0.0754118
0.0660118
0.0564572
0.047078
0.0380893
0.0297467
0.0225178
0.0170358
0.0133539
0.0109352
0.00867451
0.00561771
0.00221954
-0.00131443
-0.00473294
-0.0075565
-0.00909317
-0.00854816
-0.00610701
-0.002952
5.41876e-05
0.00259098
0.00516814
0.00800866
0.010379
0.0109477
0.105453
0.100194
0.09405
0.0872019
0.0794769
0.0709681
0.0618567
0.0525035
0.0436027
0.0357752
0.0291485
0.0237224
0.0196072
0.0164511
0.013332
0.00960096
0.00519547
0.00105123
-0.00192532
-0.00382772
-0.004574
-0.00377186
-0.0015329
0.00143606
0.00455284
0.00750051
0.00975984
0.0101099
0.00731098
0.00177332
0.11134
0.10786
0.103353
0.0981642
0.092198
0.0853432
0.077678
0.0694345
0.0609329
0.0525369
0.0445604
0.0374262
0.0314068
0.0264331
0.0221084
0.0180689
0.0144038
0.0115951
0.00972276
0.00860976
0.00799621
0.00775126
0.00776146
0.0076315
0.00700459
0.00530007
0.00163658
-0.00433911
-0.0127579
-0.0218927
0.10881
0.106646
0.103925
0.100393
0.0959968
0.0907431
0.0846235
0.0776708
0.0700515
0.0620973
0.0542219
0.0468442
0.0402821
0.0346538
0.0298444
0.025657
0.0220799
0.0192515
0.0171205
0.015597
0.0145203
0.0136589
0.0127194
0.0113449
0.00911049
0.00544541
8.56594e-05
-0.0066019
-0.0142838
-0.0217119
0.10757
0.106219
0.104331
0.101657
0.0981677
0.0938305
0.0886034
0.0824873
0.0755888
0.0681541
0.0605439
0.0531614
0.0463723
0.0404037
0.0352811
0.0309031
0.0272162
0.0242465
0.0219549
0.0202238
0.0188392
0.0175041
0.0158773
0.0136472
0.0105748
0.00655303
0.00183747
-0.00304532
-0.00754966
-0.0112994
0.105644
0.10479
0.103538
0.101648
0.0990074
0.0955601
0.0912358
0.0859908
0.0798679
0.0730326
0.0657792
0.0584964
0.0515877
0.0453615
0.039952
0.0353473
0.0315072
0.0284151
0.0260032
0.0241065
0.0224703
0.020797
0.0188149
0.0163539
0.0134195
0.0102427
0.00728567
0.00505259
0.0039873
0.00415946
0.104003
0.103505
0.102695
0.101299
0.0992385
0.0964497
0.0928346
0.0883127
0.0828777
0.0766318
0.0698069
0.0627541
0.0558804
0.049543
0.0439571
0.0391869
0.0352202
0.0320196
0.0294877
0.0274364
0.0256168
0.0237857
0.021785
0.019615
0.0174578
0.0156563
0.0146441
0.0147452
0.0161498
0.0185263
0.102511
0.102233
0.10171
0.10068
0.0990677
0.0967989
0.0937554
0.0898317
0.0849869
0.0792763
0.0728787
0.0661038
0.0593473
0.0529939
0.0473175
0.0424427
0.0383877
0.0351101
0.032499
0.0303705
0.0285112
0.0267531
0.0250429
0.0234837
0.022331
0.0219049
0.0224852
0.0241232
0.0267561
0.0296875
0.101235
0.101106
0.10078
0.100014
0.0987353
0.0968666
0.0942799
0.0908537
0.0865193
0.0812915
0.0753018
0.0688186
0.0622191
0.0559034
0.0501885
0.04525
0.0411378
0.0378162
0.0351764
0.0330536
0.0312801
0.0297523
0.0284898
0.0276517
0.027483
0.0281943
0.0298749
0.0323518
0.035441
0.0383124
0.10015
0.100117
0.0999194
0.0993392
0.0983179
0.0967637
0.0945454
0.0915326
0.0876361
0.0828379
0.0772281
0.0710359
0.0646157
0.0583727
0.0526564
0.0476855
0.0435428
0.0402078
0.0375848
0.0355359
0.0339351
0.0327315
0.0319898
0.0318733
0.0325582
0.0341195
0.0364859
0.0393583
0.042548
0.0452239
0.0992362
0.099267
0.0991576
0.0987153
0.097884
0.0965747
0.0946524
0.0919809
0.0884565
0.0840349
0.078771
0.0728576
0.0666243
0.0604749
0.054783
0.0498046
0.0456549
0.0423351
0.0397693
0.0378478
0.0364808
0.0356536
0.0354458
0.0359858
0.0373566
0.0395103
0.0422646
0.0452771
0.048399
0.0508276
0.0984688
0.0985422
0.0984919
0.0981502
0.0974649
0.0963482
0.0946648
0.0922762
0.0890683
0.0849757
0.0800233
0.0743708
0.068323
0.0622781
0.0566275
0.0516597
0.0475224
0.0442418
0.0417655
0.040009
0.0389123
0.0384791
0.0387781
0.0398813
0.0417764
0.0443194
0.0472624
0.0502727
0.0532403
0.0554191
0.0978244
0.0979273
0.097918
0.0976513
0.0970796
0.0961155
0.0946257
0.0924718
0.0895328
0.0857268
0.0810528
0.075641
0.0697716
0.0638348
0.0582355
0.0532911
0.0491808
0.0459583
0.0435949
0.0420289
0.0412207
0.0411761
0.0419347
0.0435029
0.0457828
0.0485637
0.0515664
0.0544994
0.0572775
0.0592564
0.0972823
0.0974066
0.0974268
0.0972175
0.0967359
0.0958943
0.0945628
0.0926045
0.0898944
0.0863372
0.0819105
0.0767177
0.0710161
0.0651862
0.0596431
0.0547302
0.0506577
0.0475073
0.0452731
0.0439143
0.0433995
0.0437236
0.0448856
0.0468254
0.0493755
0.0522846
0.0552679
0.0580927
0.0606857
0.0625478
0.0968246
0.0969658
0.0970085
0.0968445
0.096435
0.0956948
0.0944943
0.0927001
0.0901852
0.0868441
0.0826359
0.0776407
0.072094
0.066366
0.0608799
0.056003
0.0519753
0.0489071
0.0468135
0.0456697
0.0454435
0.0461083
0.0476156
0.0498439
0.0525731
0.0555332
0.0584535
0.0611698
0.063613
0.0654526
0.0964364
0.0965917
0.0966528
0.0965268
0.0961784
0.0955219
0.0944312
0.0927761
0.0904286
0.0872753
0.0832597
0.0784412
0.0730351
0.0674014
0.0619703
0.0571308
0.0531517
0.0501731
0.0482255
0.0472991
0.0473505
0.0483235
0.0501204
0.0525653
0.0554026
0.0583615
0.0612015
0.0638297
0.0661757
0.0680758
0.0961048
0.096273
0.0963501
0.0962573
0.095962
0.0953775
0.0943807
0.092845
0.0906421
0.0876521
0.0838057
0.079144
0.0738635
0.0683148
0.0629338
0.0581306
0.0542012
0.0513131
0.0495171
0.048806
0.0491201
0.0503678
0.0524024
0.0550033
0.0578945
0.06082
0.0635814
0.0661516
0.0684509
0.0704659
0.0958193
0.0959997
0.0960916
0.0960291
0.095782
0.0952615
0.0943468
0.0929151
0.0908382
0.0879909
0.084293
0.0797692
0.0745991
0.0691243
0.0637867
0.0590163
0.0551352
0.0523394
0.0506956
0.0501944
0.0507536
0.0522424
0.0544683
0.0571753
0.0600806
0.0629557
0.0656523
0.0681943
0.0704746
0.0726477
0.095572
0.0957635
0.0958692
0.0958356
0.0956337
0.0951724
0.0943312
0.0929918
0.091026
0.0883043
0.0847366
0.0803332
0.0752581
0.0698449
0.0645424
0.0597996
0.055963
0.0532597
0.0517665
0.0514678
0.0522535
0.0539512
0.056327
0.0591002
0.0619933
0.064812
0.0674577
0.069983
0.0723186
0.0746634
0.0953568
0.0955582
0.0956761
0.0956703
0.095512
0.0951074
0.0943348
0.0930791
0.0912126
0.088602
0.0851486
0.0808494
0.075854
0.0704891
0.0652118
0.0604899
0.0566917
0.0540795
0.0527337
0.0526296
0.053623
0.0555004
0.0579905
0.0607973
0.0636624
0.0664314
0.0690464
0.071593
0.0740012
0.0764623
0.0951684
0.0953786
0.0955067
0.0955276
0.0954122
0.0950604
0.0943559
0.0931785
0.0914028
0.0888919
0.085539
0.0813291
0.076398
0.0710675
0.0658045
0.061096
0.0573281
0.054803
0.053602
0.0536841
0.0548659
0.0568951
0.0594726
0.0622928
0.0651193
0.0678494
0.0704676
0.0730692
0.0755255
0.0780156
0.0950031
0.0952207
0.0953564
0.095403
0.0953306
0.0950332
0.0943924
0.0932898
0.0915996
0.0891799
0.085916
0.0817817
0.0768996
0.0715879
0.0663263
0.0616229
0.0579005
0.0554344
0.0543765
0.0546364
0.0559878
0.0581408
0.0607776
0.0636051
0.0664086
0.0691118
0.0717495
0.0744294
0.0768954
0.0792755
0.0948582
0.0950822
0.0952218
0.0952924
0.0952621
0.0950191
0.094443
0.0934133
0.0918047
0.08947
0.0862867
0.0822171
0.0773701
0.0720629
0.0667898
0.0620796
0.0583747
0.0559855
0.0550638
0.0554892
0.0569945
0.0592553
0.0619284
0.0647365
0.0675318
0.0702604
0.0729768
0.0757069
0.0780755
0.0801511
0.0947296
0.0949611
0.0951009
0.0951937
0.0952031
0.0950133
0.0945063
0.0935502
0.0920197
0.0897626
0.0866493
0.0826316
0.0778028
0.0724821
0.0671872
0.0624561
0.0587392
0.0564299
0.0556533
0.0562405
0.0578821
0.0602396
0.062969
0.0657759
0.0685216
0.0712649
0.0741211
0.076861
0.0790354
0.0805529
0.0946109
0.0948529
0.0949918
0.0951064
0.0951526
0.0950086
0.094573
0.0937015
0.0922565
0.0900818
0.0870383
0.0830687
0.0782478
0.0728956
0.0675628
0.0628288
0.0591081
0.0568431
0.0561869
0.0569115
0.058658
0.0610641
0.0638209
0.0667171
0.0695547
0.0723864
0.075276
0.0778486
0.0796851
0.0803172
0.0944972
0.0947469
0.0948901
0.0950306
0.0951139
0.0950161
0.0946149
0.0938301
0.0924581
0.0903564
0.0873678
0.0834289
0.0785988
0.0731997
0.0677855
0.0629582
0.0592614
0.0571015
0.0565962
0.0574799
0.0593542
0.0618282
0.0645465
0.0673492
0.070165
0.0733213
0.0762962
0.078631
0.0801133
0.0795132
0.0943992
0.0946311
0.0947837
0.0949542
0.0950766
0.0950499
0.0947645
0.0940593
0.0927707
0.0907663
0.0878596
0.0839573
0.0790976
0.0736507
0.0682378
0.0633694
0.0594839
0.0573721
0.056986
0.0580005
0.0599888
0.0626055
0.0655444
0.0685625
0.0715071
0.0744482
0.0773003
0.0791195
0.0797288
0.0775203
0.0943482
0.0945126
0.0946742
0.0948633
0.0949971
0.0949856
0.0947212
0.0940751
0.0928993
0.090969
0.0880898
0.0841652
0.0792269
0.07368
0.0682512
0.063279
0.0595159
0.0574943
0.0572273
0.058319
0.0603126
0.0628145
0.0655967
0.0686243
0.0719168
0.075223
0.0780169
0.0796268
0.079805
0.0759316
0.0943898
0.0944524
0.0946126
0.0948196
0.0949936
0.0950618
0.0949193
0.0944159
0.0933607
0.0915551
0.0888253
0.0849642
0.079978
0.074291
0.068604
0.0633918
0.0595453
0.0575795
0.0575096
0.0588616
0.0611435
0.0638831
0.0669587
0.070161
0.0734232
0.0764524
0.0787596
0.0791553
0.0763522
0.0706319
-0.0936272
-0.0944202
-0.0128827
0.0289242
0.0522864
0.0647173
0.069089
0.0700646
0.0696736
0.0689463
0.0683574
0.068036
0.0680067
0.0682457
0.0686857
0.0692576
0.0699063
0.070591
0.0712848
0.0719685
0.0726423
0.0732895
0.0739435
0.0745591
0.0752441
0.0758762
0.0766899
0.0774058
0.0786514
0.0777673
-0.0948227
-0.0935239
-0.0187083
0.0296505
0.0551
0.067437
0.0717752
0.0724425
0.0716056
0.0704193
0.0694124
0.0687123
0.0683626
0.0683526
0.0686103
0.0690549
0.0696194
0.0702511
0.0709148
0.0715831
0.072251
0.0728969
0.0735446
0.0741496
0.0747801
0.0753413
0.0759906
0.0764552
0.0771712
0.0770066
-0.0965143
-0.0962612
-0.0265021
0.0292086
0.0575987
0.0704382
0.0749516
0.0753716
0.0740253
0.0722693
0.0707405
0.0695668
0.0688128
0.068487
0.0685149
0.0688033
0.0692686
0.0698426
0.0704773
0.0711374
0.0718074
0.0724667
0.0731208
0.0737462
0.0743666
0.0749399
0.0755336
0.0760422
0.0766709
0.0771595
-0.0976411
-0.10073
-0.0337185
0.0290313
0.0611612
0.0748009
0.0791227
0.078915
0.0767674
0.0742466
0.0721027
0.0704196
0.069263
0.0686458
0.0684808
0.0686546
0.0690607
0.0696116
0.070245
0.0709177
0.071606
0.0722906
0.0729683
0.073629
0.0742814
0.0749135
0.0755529
0.0761719
0.0768302
0.0774416
-0.0976625
-0.10477
-0.0409194
0.0281038
0.0649512
0.080085
0.084185
0.0831297
0.0799723
0.0765076
0.0736453
0.0713638
0.0697377
0.068781
0.0683941
0.0684423
0.068789
0.0693215
0.0699597
0.0706502
0.0713616
0.0720728
0.0727751
0.0734624
0.0741374
0.0747974
0.0754516
0.0760935
0.0767326
0.0773675
-0.0962349
-0.1073
-0.0483593
0.0254436
0.0678956
0.0857203
0.0900512
0.0881787
0.0838162
0.0791042
0.0754106
0.0724199
0.0702126
0.0688143
0.0681358
0.0680247
0.0683032
0.0688218
0.0694756
0.0701971
0.0709456
0.0716956
0.0724334
0.0731523
0.0738516
0.0745311
0.0751947
0.0758473
0.0764832
0.0771527
-0.0930737
-0.108817
-0.0552661
0.0206229
0.0690115
0.0909731
0.0964489
0.0936992
0.0883618
0.0820508
0.0772554
0.0734555
0.0706185
0.0686767
0.0676221
0.0673233
0.0675437
0.0680751
0.0687749
0.0695563
0.0703692
0.0711824
0.071978
0.0727482
0.073491
0.0742079
0.0749008
0.0755808
0.0762317
0.0769218
-0.0879602
-0.108645
-0.0617032
0.0133306
0.0671947
0.0944811
0.102636
0.0996337
0.0926412
0.0853696
0.0791251
0.0742045
0.0707635
0.0682647
0.0667436
0.0662132
0.0663896
0.0669785
0.0677769
0.068666
0.069585
0.0704976
0.0713817
0.072229
0.0730377
0.0738101
0.0745475
0.0752637
0.0759372
0.0766466
-0.0820575
-0.106581
-0.0676356
0.00344108
0.0608444
0.0932897
0.105544
0.104526
0.0968768
0.0886561
0.0806854
0.0745086
0.0701436
0.0671944
0.0652149
0.0644583
0.0646377
0.0653538
0.0663251
0.0673889
0.0684753
0.0695416
0.0705597
0.071521
0.0724256
0.0732772
0.0740781
0.074845
0.0755542
0.0762955
-0.0753121
-0.102552
-0.0734113
-0.00941053
0.0479767
0.0844882
0.101092
0.103912
0.0987531
0.090606
0.081834
0.0735153
0.0680162