/*--------------------------------*- C++ -*----------------------------------*\
  =========                 |
  \\      /  F ield         | OpenFOAM: The Open Source CFD Toolbox
   \\    /   O peration     | Website:  https://openfoam.org
    \\  /    A nd           | Version:  11
     \\/     M anipulation  |
\*---------------------------------------------------------------------------*/
FoamFile
{
    format      ascii;
    class       volScalarField;
    location    "9.3";
    object      p;
}
// * * * * * * * * * * * * * * * * * * * * * * * * * * * * * * * * * * * * * //

dimensions      [0 2 -2 0 0 0 0];

internalField   nonuniform List<scalar> 
12600
(
0.149814
0.149724
0.149676
0.149663
0.149658
0.149652
0.149646
0.149642
0.14964
0.14964
0.14964
0.149639
0.149634
0.149625
0.149612
0.149595
0.149568
0.149526
0.149465
0.149378
0.149256
0.149086
0.148855
0.148543
0.148129
0.147582
0.146869
0.145948
0.144795
0.143289
0.149743
0.149704
0.149672
0.14966
0.149654
0.14965
0.149644
0.149642
0.149642
0.149642
0.149642
0.149641
0.149638
0.14963
0.149617
0.149602
0.149579
0.149541
0.149485
0.149404
0.149289
0.149128
0.148908
0.148609
0.148208
0.147676
0.146977
0.14607
0.144907
0.143425
0.149712
0.149699
0.149676
0.149661
0.149655
0.149651
0.149646
0.149643
0.149642
0.149642
0.149643
0.149643
0.149641
0.149637
0.149629
0.149617
0.149596
0.149564
0.149515
0.149443
0.14934
0.149194
0.148991
0.148713
0.148337
0.147833
0.147162
0.146287
0.145129
0.14368
0.14969
0.149683
0.149667
0.149655
0.149649
0.149644
0.149643
0.149641
0.149641
0.149642
0.149643
0.149645
0.149645
0.149644
0.14964
0.149632
0.149618
0.149594
0.149556
0.149498
0.149411
0.149287
0.149111
0.148865
0.148526
0.148066
0.147442
0.146617
0.145494
0.144081
0.149673
0.149669
0.14966
0.149651
0.149646
0.149642
0.149641
0.14964
0.149641
0.149642
0.149645
0.149648
0.149651
0.149654
0.149654
0.149652
0.149646
0.149632
0.149607
0.149566
0.149501
0.149404
0.149262
0.149058
0.14877
0.148368
0.147811
0.147056
0.145997
0.14465
0.149659
0.149657
0.149651
0.149645
0.14964
0.149638
0.149637
0.149637
0.149638
0.149641
0.149645
0.14965
0.149656
0.149662
0.149668
0.149673
0.149676
0.149673
0.149664
0.149642
0.149604
0.14954
0.14944
0.149288
0.149063
0.148737
0.148266
0.147608
0.146645
0.145397
0.149647
0.149646
0.149642
0.149638
0.149634
0.149633
0.149632
0.149633
0.149636
0.14964
0.149645
0.149653
0.149661
0.149672
0.149683
0.149695
0.149708
0.149718
0.149726
0.149727
0.149718
0.149693
0.149641
0.14955
0.149401
0.149166
0.148804
0.148271
0.147439
0.14633
0.149637
0.149636
0.149634
0.14963
0.149628
0.149627
0.149627
0.149629
0.149632
0.149637
0.149644
0.149654
0.149665
0.149679
0.149696
0.149716
0.149739
0.149763
0.149789
0.149815
0.149838
0.149854
0.149856
0.149834
0.149772
0.149646
0.149414
0.149037
0.148378
0.147461
0.149627
0.149627
0.149625
0.149622
0.149621
0.149621
0.149621
0.149624
0.149627
0.149633
0.149642
0.149653
0.149667
0.149686
0.149708
0.149735
0.149768
0.149806
0.149851
0.149902
0.149959
0.150019
0.150079
0.150132
0.150166
0.150163
0.150084
0.149895
0.149456
0.148791
0.149617
0.149617
0.149616
0.149615
0.149614
0.149613
0.149615
0.149617
0.149622
0.149628
0.149638
0.14965
0.149667
0.149689
0.149716
0.14975
0.149793
0.149845
0.149908
0.149983
0.150074
0.150179
0.150299
0.150431
0.150569
0.1507
0.150795
0.150824
0.150656
0.150313
0.149608
0.149609
0.149607
0.149606
0.149606
0.149606
0.149607
0.14961
0.149614
0.149621
0.149632
0.149646
0.149664
0.149689
0.14972
0.14976
0.149811
0.149875
0.149955
0.150055
0.150177
0.150326
0.150505
0.150718
0.150963
0.151237
0.15152
0.151795
0.151946
0.151997
0.1496
0.1496
0.149599
0.149598
0.149597
0.149597
0.149599
0.149601
0.149606
0.149613
0.149623
0.149638
0.149658
0.149684
0.149718
0.149763
0.149821
0.149896
0.14999
0.150111
0.150262
0.150451
0.150687
0.150976
0.151327
0.151746
0.152226
0.152766
0.153277
0.15379
0.149591
0.149591
0.14959
0.149589
0.149589
0.149588
0.149589
0.149592
0.149596
0.149602
0.149612
0.149627
0.149647
0.149674
0.149711
0.149759
0.149822
0.149904
0.15001
0.150147
0.150322
0.150546
0.150831
0.151191
0.151641
0.152198
0.152874
0.153684
0.154582
0.155608
0.149583
0.149583
0.149582
0.149581
0.14958
0.149579
0.149579
0.149581
0.149584
0.14959
0.149599
0.149613
0.149632
0.149659
0.149696
0.149745
0.14981
0.149897
0.15001
0.150159
0.150352
0.150603
0.150928
0.151345
0.15188
0.152561
0.153418
0.154488
0.155772
0.157333
0.149575
0.149575
0.149573
0.149572
0.14957
0.149569
0.149568
0.149569
0.149571
0.149576
0.149583
0.149595
0.149613
0.149638
0.149673
0.149721
0.149786
0.149873
0.149989
0.150143
0.150346
0.150614
0.150965
0.151425
0.152024
0.152804
0.153811
0.155108
0.156748
0.158818
0.149567
0.149567
0.149565
0.149563
0.149561
0.149559
0.149557
0.149556
0.149557
0.149559
0.149565
0.149574
0.149589
0.149612
0.149643
0.149688
0.149749
0.149833
0.149946
0.150098
0.150302
0.150573
0.150935
0.151416
0.152053
0.152896
0.15401
0.155476
0.157401
0.1599
0.14956
0.149559
0.149557
0.149555
0.149551
0.149548
0.149545
0.149542
0.149541
0.149541
0.149544
0.14955
0.149561
0.149579
0.149606
0.149644
0.149699
0.149774
0.149879
0.150021
0.150215
0.150478
0.150832
0.15131
0.151952
0.152815
0.153976
0.155532
0.157634
0.16042
0.149553
0.149552
0.14955
0.149546
0.149542
0.149537
0.149533
0.149528
0.149524
0.149522
0.149521
0.149523
0.14953
0.149541
0.149561
0.149591
0.149635
0.149699
0.149789
0.149914
0.150088
0.150327
0.150654
0.151102
0.151713
0.152547
0.153685
0.155234
0.157371
0.160251
0.149547
0.149546
0.149543
0.149538
0.149533
0.149527
0.14952
0.149513
0.149507
0.149501
0.149497
0.149494
0.149494
0.149499
0.14951
0.149529
0.14956
0.149607
0.149677
0.149777
0.14992
0.150121
0.150403
0.150794
0.151336
0.152087
0.153128
0.154564
0.156576
0.159321
0.149542
0.14954
0.149537
0.149531
0.149524
0.149516
0.149508
0.149499
0.149489
0.14948
0.149471
0.149463
0.149457
0.149453
0.149454
0.14946
0.149475
0.149502
0.149546
0.149615
0.149717
0.149867
0.150084
0.150392
0.15083
0.151447
0.152317
0.153532
0.155259
0.157632
0.149538
0.149535
0.149531
0.149525
0.149516
0.149506
0.149495
0.149484
0.149471
0.149458
0.149444
0.149431
0.149417
0.149405
0.149394
0.149386
0.149382
0.149386
0.149401
0.149432
0.149485
0.149573
0.149708
0.149912
0.150212
0.15065
0.151282
0.152182
0.153477
0.155268
0.149535
0.149532
0.149527
0.149519
0.149508
0.149497
0.149484
0.14947
0.149454
0.149436
0.149418
0.149398
0.149377
0.149355
0.149332
0.149308
0.149285
0.149264
0.149245
0.149234
0.149232
0.149248
0.14929
0.14937
0.149508
0.14973
0.150072
0.150581
0.151331
0.152377
0.149534
0.149531
0.149524
0.149514
0.149502
0.149488
0.149473
0.149456
0.149437
0.149416
0.149392
0.149366
0.149337
0.149305
0.14927
0.14923
0.149186
0.149138
0.149085
0.149028
0.148968
0.148906
0.148845
0.148791
0.148749
0.14873
0.148749
0.148818
0.148951
0.149161
0.149534
0.149531
0.149522
0.14951
0.149496
0.149481
0.149463
0.149444
0.149421
0.149396
0.149368
0.149336
0.149299
0.149258
0.14921
0.149154
0.149089
0.149014
0.148926
0.148823
0.148703
0.148561
0.148395
0.1482
0.147972
0.147702
0.147381
0.146993
0.146489
0.145843
0.149538
0.149533
0.149523
0.149508
0.149492
0.149474
0.149455
0.149432
0.149407
0.149378
0.149345
0.149308
0.149264
0.149213
0.149153
0.149082
0.148998
0.148896
0.148775
0.148627
0.148447
0.148228
0.147958
0.147626
0.147213
0.146696
0.146042
0.14519
0.144085
0.142617
0.149544
0.149538
0.149524
0.149506
0.149489
0.14947
0.149448
0.149423
0.149395
0.149363
0.149326
0.149283
0.149233
0.149174
0.149103
0.149018
0.148916
0.148791
0.148637
0.148449
0.148214
0.147922
0.147556
0.147095
0.146511
0.145765
0.144808
0.143543
0.141875
0.13967
0.149556
0.149547
0.149527
0.149505
0.149486
0.149465
0.149442
0.149415
0.149384
0.149349
0.149309
0.149262
0.149206
0.149139
0.149059
0.148963
0.148844
0.148699
0.148518
0.148294
0.148012
0.147656
0.147206
0.146632
0.145897
0.144949
0.14371
0.142113
0.139973
0.13715
0.149574
0.149558
0.149531
0.149508
0.149487
0.149465
0.14944
0.149411
0.149379
0.149341
0.149298
0.149247
0.149187
0.149115
0.149027
0.148921
0.14879
0.148628
0.148426
0.148172
0.147852
0.147445
0.146926
0.14626
0.145404
0.144296
0.142856
0.140976
0.138472
0.13518
0.149604
0.149563
0.149526
0.149505
0.149486
0.149462
0.149436
0.149406
0.149372
0.149333
0.149288
0.149235
0.149171
0.149095
0.149003
0.14889
0.14875
0.148577
0.148359
0.148085
0.147737
0.147294
0.146726
0.145995
0.145051
0.143829
0.142248
0.140177
0.137432
0.133834
0.149674
0.149583
0.149529
0.149506
0.149488
0.149464
0.149437
0.149406
0.149372
0.149332
0.149286
0.149232
0.149167
0.149088
0.148993
0.148877
0.148732
0.148553
0.148327
0.148042
0.14768
0.147216
0.146622
0.145856
0.144865
0.143581
0.141913
0.139728
0.136849
0.133058
0.14176
0.140934
0.140493
0.140279
0.140032
0.139701
0.139329
0.138942
0.138536
0.138104
0.137641
0.13714
0.136594
0.135991
0.135315
0.134547
0.133662
0.132628
0.131407
0.129944
0.128171
0.125991
0.12327
0.119822
0.115363
0.109534
0.101683
0.0904068
0.0784991
0.0443768
0.142306
0.141825
0.141468
0.141204
0.140907
0.140552
0.14018
0.139816
0.139449
0.139067
0.138662
0.138229
0.137759
0.137241
0.136661
0.136004
0.13525
0.134373
0.133341
0.132109
0.130621
0.128797
0.126529
0.123666
0.119979
0.115183
0.10869
0.0998338
0.0887642
0.0628914
0.142342
0.142021
0.141773
0.14153
0.141266
0.140989
0.140715
0.140444
0.140164
0.139868
0.139552
0.139212
0.138843
0.138437
0.137984
0.137472
0.136885
0.136204
0.135404
0.134449
0.133297
0.131886
0.130131
0.127917
0.125065
0.121356
0.116308
0.109556
0.100189
0.0814142
0.142698
0.142546
0.142441
0.142263
0.142051
0.141842
0.141641
0.141438
0.141228
0.141009
0.140782
0.140542
0.140285
0.140006
0.139697
0.13935
0.138954
0.138495
0.137955
0.137311
0.136531
0.13557
0.134368
0.132839
0.130849
0.128239
0.124615
0.119786
0.11247
0.0996523
0.143256
0.14322
0.143214
0.143088
0.142925
0.142785
0.142666
0.14255
0.142435
0.142319
0.142205
0.142089
0.141969
0.141842
0.141704
0.14155
0.141376
0.141173
0.14093
0.140634
0.140264
0.139793
0.13918
0.138368
0.13726
0.135743
0.133507
0.130473
0.125299
0.117359
0.144012
0.144085
0.144183
0.14413
0.144039
0.143985
0.143963
0.143948
0.143939
0.143938
0.143949
0.143972
0.144005
0.144049
0.144104
0.144169
0.144243
0.144323
0.144407
0.144488
0.144558
0.144603
0.1446
0.144514
0.144281
0.143825
0.142909
0.141521
0.138408
0.134328
0.144986
0.145169
0.145376
0.145407
0.145395
0.145435
0.145517
0.145614
0.145724
0.145854
0.146009
0.14619
0.146399
0.146637
0.146909
0.147216
0.147563
0.147952
0.148387
0.148869
0.149399
0.149974
0.150587
0.151219
0.151833
0.152378
0.152682
0.15276
0.151513
0.150402
0.146201
0.146498
0.146819
0.146944
0.147025
0.14717
0.147369
0.147592
0.147838
0.148114
0.14843
0.148787
0.149188
0.149639
0.150146
0.150716
0.151354
0.15207
0.152871
0.153765
0.154761
0.155865
0.157079
0.1584
0.159805
0.161262
0.16265
0.163974
0.164327
0.165367
0.147677
0.148091
0.148531
0.148759
0.148944
0.149205
0.149533
0.149894
0.150287
0.150724
0.151214
0.151761
0.15237
0.153049
0.153806
0.15465
0.155591
0.156642
0.157814
0.159119
0.160572
0.162185
0.163966
0.16592
0.168035
0.170287
0.172589
0.174912
0.17655
0.179019
0.149421
0.149953
0.150513
0.150853
0.151153
0.151539
0.152004
0.152514
0.153065
0.153673
0.154347
0.155094
0.15592
0.156834
0.157847
0.158969
0.160215
0.161596
0.16313
0.16483
0.166713
0.168795
0.171088
0.173597
0.176318
0.179226
0.182248
0.185318
0.187919
0.191186
0.151418
0.152066
0.152741
0.153199
0.153621
0.15414
0.154749
0.155412
0.156127
0.15691
0.157772
0.158722
0.159765
0.160914
0.162179
0.163573
0.16511
0.166806
0.168676
0.170738
0.173008
0.175501
0.178231
0.181201
0.184405
0.187816
0.191363
0.194947
0.198205
0.201756
0.15362
0.154375
0.155156
0.155732
0.156282
0.156937
0.157688
0.158504
0.159381
0.160337
0.161384
0.16253
0.163783
0.165154
0.166656
0.168302
0.170107
0.172085
0.174254
0.176628
0.179224
0.182055
0.18513
0.18845
0.192003
0.195754
0.199628
0.203508
0.20712
0.210581
0.155935
0.156782
0.157653
0.158343
0.15902
0.159805
0.160692
0.161652
0.162683
0.1638
0.165018
0.166345
0.167788
0.16936
0.171072
0.172939
0.174973
0.177189
0.179603
0.182228
0.185076
0.188159
0.191479
0.195031
0.198794
0.202719
0.206723
0.210663
0.214287
0.217379
0.158216
0.159136
0.160075
0.160868
0.161663
0.162568
0.163576
0.164664
0.16583
0.167089
0.168455
0.169936
0.171541
0.17328
0.175165
0.177209
0.179425
0.181824
0.184421
0.187226
0.190247
0.193491
0.196954
0.200622
0.204463
0.208417
0.212383
0.21619
0.219572
0.222151
0.16027
0.161238
0.16222
0.163097
0.163995
0.164999
0.166107
0.167297
0.168572
0.169945
0.171428
0.173029
0.174757
0.176622
0.178634
0.180806
0.183147
0.185669
0.188382
0.191293
0.194408
0.197725
0.201236
0.204918
0.20873
0.212601
0.216416
0.21999
0.223062
0.225183
0.161866
0.162857
0.163854
0.164792
0.165768
0.166846
0.168023
0.169285
0.170636
0.172086
0.173648
0.175329
0.177136
0.179079
0.181169
0.183413
0.185823
0.188405
0.191168
0.194116
0.197249
0.200562
0.204039
0.207651
0.211348
0.21505
0.218634
0.2219
0.224589
0.226142
0.162772
0.163759
0.164747
0.165716
0.16674
0.167859
0.169071
0.170369
0.171757
0.173246
0.174845
0.17656
0.1784
0.180373
0.182487
0.184751
0.187172
0.189755
0.192507
0.195427
0.198512
0.201753
0.205128
0.208601
0.212116
0.21558
0.218859
0.221733
0.22393
0.224865
0.162791
0.163751
0.16471
0.165679
0.166712
0.167836
0.169047
0.170342
0.171728
0.173213
0.174804
0.17651
0.178336
0.180289
0.182378
0.184609
0.186988
0.189518
0.192202
0.195038
0.19802
0.201131
0.204347
0.207625
0.210901
0.214073
0.216998
0.219444
0.221146
0.221459
0.161807
0.162718
0.163631
0.164567
0.165571
0.16666
0.167832
0.169087
0.170429
0.171868
0.173409
0.17506
0.176826
0.178714
0.18073
0.182879
0.185167
0.187594
0.190162
0.192865
0.195694
0.198631
0.201646
0.204691
0.207694
0.210546
0.213097
0.215096
0.216318
0.21573
0.159812
0.160656
0.16151
0.162382
0.163316
0.164331
0.165428
0.166603
0.167863
0.169215
0.170664
0.172218
0.173882
0.17566
0.17756
0.179584
0.181736
0.184017
0.186426
0.188955
0.191593
0.194318
0.197095
0.199872
0.202571
0.205074
0.207223
0.208733
0.209473
0.207763
0.156915
0.157671
0.158452
0.159231
0.160058
0.160963
0.161949
0.16301
0.16415
0.165377
0.166696
0.168113
0.169634
0.171263
0.173004
0.174862
0.176837
0.178931
0.181138
0.183451
0.185855
0.188324
0.190821
0.193288
0.195641
0.197752
0.199466
0.200442
0.200728
0.197867
0.153334
0.153982
0.154669
0.155323
0.156007
0.156768
0.157609
0.158521
0.159505
0.160569
0.161719
0.162961
0.164299
0.165738
0.16728
0.168928
0.170684
0.172546
0.174508
0.176561
0.178687
0.180857
0.183031
0.185145
0.18711
0.188786
0.190018
0.190386
0.190173
0.186048
0.149343
0.149854
0.15042
0.15092
0.15143
0.152015
0.15268
0.153411
0.154206
0.155073
0.15602
0.157052
0.158171
0.159381
0.160686
0.162087
0.163583
0.165173
0.166848
0.168598
0.170401
0.172226
0.174028
0.175738
0.177258
0.178431
0.179107
0.178743
0.177847
0.172338
0.145231
0.145576
0.145991
0.146311
0.146622
0.147006
0.147467
0.147987
0.148564
0.149205
0.149918
0.150707
0.151574
0.152523
0.153556
0.154672
0.155872
0.157149
0.158497
0.159898
0.161332
0.162763
0.164138
0.165381
0.166388
0.166974
0.166993
0.16577
0.164021
0.156852
0.141262
0.141413
0.141647
0.141766
0.141861
0.142022
0.142256
0.142542
0.142875
0.143265
0.143717
0.144236
0.144824
0.145481
0.146211
0.14701
0.147878
0.148807
0.149787
0.150799
0.151817
0.1528
0.153691
0.154401
0.154816
0.154723
0.153975
0.151754
0.149007
0.13978
0.137671
0.1376
0.137617
0.137514
0.137377
0.137298
0.137283
0.137312
0.137381
0.137497
0.137668
0.137894
0.138178
0.138521
0.13892
0.139376
0.139883
0.140431
0.141008
0.141591
0.14215
0.142637
0.142987
0.143099
0.142843
0.141974
0.140344
0.136966
0.133075
0.121308
0.134631
0.134308
0.13408
0.133746
0.133376
0.133047
0.132766
0.132521
0.132309
0.132136
0.132004
0.131919
0.131879
0.131885
0.131935
0.132025
0.132147
0.13229
0.132436
0.132558
0.132621
0.132568
0.132324
0.131774
0.13077
0.129026
0.126391
0.121676
0.11649
0.101618
0.132291
0.131639
0.131096
0.130518
0.129919
0.129331
0.128762
0.128226
0.127724
0.127251
0.126808
0.126396
0.126019
0.125673
0.125356
0.125061
0.124779
0.124495
0.124187
0.123825
0.123362
0.122736
0.121858
0.120595
0.118779
0.116075
0.112327
0.106098
0.0995358
0.0809056
0.130909
0.129843
0.128899
0.128069
0.127299
0.126468
0.125576
0.124717
0.123901
0.123107
0.122332
0.121581
0.120854
0.120148
0.119456
0.118771
0.118078
0.117359
0.116588
0.115725
0.114717
0.11349
0.111939
0.10991
0.107211
0.103449
0.0984613
0.0904692
0.0825926
0.0592588
0.129778
0.128288
0.127112
0.126129
0.125069
0.123896
0.122732
0.121596
0.12047
0.119344
0.118224
0.117114
0.116014
0.114921
0.113829
0.112727
0.1116
0.110427
0.109175
0.107801
0.106241
0.104408
0.10218
0.0993769
0.0957831
0.0909337
0.0847032
0.0745934
0.0660236
0.0368271
0.0145899
-0.00834004
-0.0326945
-0.0573915
-0.0816551
-0.105242
-0.127837
-0.149246
-0.168769
-0.186223
-0.201312
-0.213584
-0.222588
-0.228139
-0.230081
-0.228099
-0.221888
-0.211585
-0.197035
-0.181977
-0.169235
-0.16278
-0.163497
-0.166606
-0.1684
-0.168605
-0.167208
-0.163989
-0.159231
-0.154082
0.0502929
0.0304222
0.00867398
-0.012938
-0.0344381
-0.0557981
-0.0765948
-0.0966015
-0.115592
-0.133431
-0.149523
-0.163459
-0.17435
-0.181559
-0.186144
-0.1881
-0.186132
-0.180383
-0.171737
-0.162116
-0.15526
-0.154798
-0.159894
-0.165482
-0.168415
-0.167654
-0.163527
-0.15815
-0.154626
-0.151569
0.0590007
0.0403107
0.0202313
-0.000400448
-0.0213757
-0.0421154
-0.0625847
-0.0825959
-0.102017
-0.1202
-0.136518
-0.15048
-0.161583
-0.169484
-0.17449
-0.176447
-0.174789
-0.169787
-0.163213
-0.155032
-0.149369
-0.148766
-0.151886
-0.154757
-0.155331
-0.154003
-0.152451
-0.15165
-0.151252
-0.145829
0.0722243
0.0558762
0.0373285
0.0183519
-0.000717255
-0.0200409
-0.0397971
-0.0595345
-0.0786947
-0.0967038
-0.113039
-0.127206
-0.138745
-0.147308
-0.152843
-0.155336
-0.15479
-0.151664
-0.146976
-0.141735
-0.138306
-0.137528
-0.138191
-0.13835
-0.13714
-0.135393
-0.134065
-0.132744
-0.131194
-0.127293
0.0798093
0.0647961
0.0477888
0.0303867
0.0126125
-0.00583704
-0.0248471
-0.0439338
-0.0625774
-0.0803211
-0.0966765
-0.111116
-0.123142
-0.132361
-0.138606
-0.1419
-0.142364
-0.140397
-0.136875
-0.132922
-0.129836
-0.128085
-0.127068
-0.125802
-0.123841
-0.1215
-0.119049
-0.116423
-0.113782
-0.113051
0.0859982
0.072496
0.0568925
0.0407817
0.0241218
0.00660056
-0.0116292
-0.030112
-0.0483621
-0.0659141
-0.0822516
-0.0968165
-0.109086
-0.118653
-0.125311
-0.12907
-0.130114
-0.12889
-0.126215
-0.123047
-0.120232
-0.118099
-0.116277
-0.114121
-0.111315
-0.108036
-0.104581
-0.101271
-0.0983518
-0.0970154
0.0906358
0.078295
0.063968
0.0490253
0.0334461
0.016903
-0.00049346
-0.0183161
-0.0360883
-0.0533358
-0.0695369
-0.0841273
-0.0965716
-0.106446
-0.113513
-0.117761
-0.11939
-0.118851
-0.116852
-0.114181
-0.111475
-0.108968
-0.106409
-0.103397
-0.099795
-0.0958131
-0.0917219
-0.0877502
-0.0838936
-0.0806482
0.0943201
0.0830365
0.0697874
0.0558878
0.0412722
0.0255986
0.00895489
-0.00825128
-0.0255538
-0.0424846
-0.0585253
-0.0731078
-0.0856819
-0.0958022
-0.103203
-0.107844
-0.109921
-0.109862
-0.10829
-0.105876
-0.103133
-0.100244
-0.0970585
-0.0933616
-0.0891302
-0.0845441
-0.0797837
-0.0749681
-0.0700703
-0.065478
0.0972916
0.086901
0.0745974
0.0616204
0.0478706
0.0329961
0.0170638
0.000456103
-0.0163801
-0.0329869
-0.0488476
-0.0633875
-0.0760419
-0.0863448
-0.0940056
-0.098961
-0.101387
-0.101684
-0.100406
-0.0981319
-0.0952957
-0.0920598
-0.0883598
-0.0840975
-0.0793042
-0.074133
-0.0687219
-0.0631776
-0.0574972
-0.0521917
0.0997635
0.0901323
0.0786486
0.0664828
0.053508
0.0393602
0.0240865
0.00804373
-0.00834254
-0.0246267
-0.0402951
-0.0547686
-0.0674704
-0.0779159
-0.0857912
-0.0910074
-0.0937152
-0.0942828
-0.0932001
-0.0909801
-0.0880061
-0.0844414
-0.0802845
-0.0755164
-0.0702078
-0.0645067
-0.058536
-0.0524182
-0.0461595
-0.0404063
0.10188
0.0928944
0.0821161
0.0706631
0.0583813
0.0448906
0.0302191
0.0147006
-0.00126053
-0.0172326
-0.0327075
-0.0471028
-0.059831
-0.0703892
-0.0784402
-0.0838684
-0.0867975
-0.0875598
-0.0865927
-0.0843633
-0.0812224
-0.0773422
-0.0727719
-0.0675525
-0.0617869
-0.0556257
-0.0491899
-0.0426268
-0.0359385
-0.0298692
0.103747
0.0953099
0.0851361
0.0743073
0.0626427
0.0497436
0.0356194
0.0205833
0.00501918
-0.0106567
-0.0259432
-0.0402558
-0.0529966
-0.063645
-0.0718404
-0.0774406
-0.0805425
-0.081443
-0.0805353
-0.0782529
-0.0749279
-0.0707457
-0.0657986
-0.0601754
-0.0540064
-0.0474509
-0.0406371
-0.0337354
-0.0267391
-0.0204539
0.105439
0.0974693
0.0878125
0.0775292
0.0664135
0.054045
0.0404153
0.0258194
0.0106216
-0.00477816
-0.0198865
-0.0341178
-0.0468641
-0.0575874
-0.065904
-0.0716454
-0.0748822
-0.075875
-0.0749841
-0.0726167
-0.0690953
-0.0646221
-0.059328
-0.0533418
-0.0468191
-0.0399326
-0.0328212
-0.0256737
-0.018477
-0.0120706
0.107012
0.0994408
0.0902257
0.0804187
0.06979
0.057896
0.044711
0.0305136
0.0156496
0.000503021
-0.0144416
-0.0285979
-0.0413481
-0.052137
-0.060558
-0.0664164
-0.069757
-0.0708054
-0.0698978
-0.0674213
-0.0636954
-0.0589417
-0.0533265
-0.0470144
-0.0401855
-0.0330273
-0.0256918
-0.0183807
-0.0110796
-0.00464058
0.108505
0.101276
0.0924381
0.0830458
0.0728485
0.0613781
0.0485915
0.0347522
0.0201892
0.00527078
-0.00952757
-0.023619
-0.0363762
-0.0472264
-0.0557402
-0.0616969
-0.0651162
-0.0661917
-0.0652409
-0.0626367
-0.0587003
-0.0536755
-0.0477624
-0.0411582
-0.0340672
-0.0266922
-0.0191991
-0.011798
-0.0044767
0.00191983
0.109949
0.103013
0.0944986
0.0854668
0.0756515
0.0645584
0.0521271
0.0386074
0.0243127
0.0095961
-0.00507583
-0.0191158
-0.0318868
-0.0427985
-0.0513979
-0.057439
-0.0609168
-0.0619969
-0.0609816
-0.0582343
-0.054083
-0.0487956
-0.0426052
-0.0357401
-0.0284279
-0.0208871
-0.0132966
-0.00587058
0.00139936
0.00769269
0.111363
0.104682
0.0964455
0.0877282
0.0782505
0.0674921
0.0553764
0.0421399
0.0280813
0.0135392
-0.001028
-0.0150326
-0.0278278
-0.0388045
-0.0474863
-0.0536019
-0.0571222
-0.0581886
-0.0570909
-0.0541875
-0.0498177
-0.0442753
-0.0378266
-0.0307292
-0.0232339
-0.015574
-0.00794051
-0.000546263
0.00661276
0.0127564
0.112766
0.106306
0.0982965
0.0898641
0.0806857
0.0702245
0.0583881
0.0454008
0.0315469
0.0171518
0.00266594
-0.0113218
-0.0241543
-0.0352031
-0.0439672
-0.0501509
-0.0537007
-0.0547389
-0.0535436
-0.0504726
-0.0458806
-0.0400901
-0.0334
-0.026097
-0.018454
-0.0107181
-0.00308955
0.00422455
0.0112245
0.0171854
0.114167
0.107906
0.100099
0.0919047
0.082991
0.0727933
0.0612038
0.048434
0.0347544
0.0204781
0.00604921
-0.00794225
-0.020828
-0.0319587
-0.040808
-0.0470563
-0.0506251
-0.0516232
-0.050317
-0.0470676
-0.0422498
-0.036217
-0.0293009
-0.021817
-0.0140592
-0.00628659
0.00129449
0.00848831
0.0152927
0.0210506
0.115573
0.10949
0.10186
0.0938757
0.0851952
0.0752303
0.0638582
0.0512767
0.0377421
0.0235569
0.00915931
-0.00485823
-0.0178158
-0.0290409
-0.0379805
-0.0442926
-0.047874
-0.0488207
-0.0473909
-0.0439526
-0.038905
-0.0326347
-0.0255067
-0.0178643
-0.010022
-0.00224805
0.00524814
0.0122875
0.0188701
0.0244177
0.116987
0.111069
0.103595
0.0957972
0.0873214
0.077562
0.0663814
0.0539614
0.0405439
0.0264216
0.012029
-0.00203864
-0.0150891
-0.0264237
-0.0354607
-0.0418278
-0.045429
-0.0463143
-0.0447478
-0.0411097
-0.0358277
-0.0293237
-0.0219965
-0.0142167
-0.00631763
0.00142669
0.00880828
0.0156667
0.0220064
0.0273436
0.118405
0.112647
0.105317
0.0976857
0.0893891
0.0798107
0.0687989
0.0565162
0.0431891
0.029102
0.014687
0.00054375
-0.0126229
-0.0240842
-0.0332279
-0.0396606
-0.0432686
-0.0440866
-0.0423719
-0.038523
-0.0330013
-0.026266
-0.0187505
-0.0108531
-0.00292428
0.00476038
0.0120027
0.0186689
0.0247634
0.02989
0.119824
0.114225
0.107036
0.0995553
0.0914146
0.0819952
0.0711324
0.0589655
0.0457041
0.0316249
0.0171591
0.00291217
-0.0103986
-0.0220077
-0.0312716
-0.0377748
-0.0413843
-0.042128
-0.040251
-0.0361777
-0.0304089
-0.0234429
-0.0157479
-0.00774958
0.000185387
0.00778145
0.0148531
0.0213086
0.0271766
0.0321307
0.121236
0.115799
0.108758
0.101417
0.0934119
0.0841324
0.073401
0.0613295
0.0481107
0.0340144
0.0194726
0.00509791
-0.00838321
-0.0201591
-0.0295537
-0.036127
-0.0397408
-0.040404
-0.038355
-0.034051
-0.0280335
-0.02084
-0.0129739
-0.00488809
0.00303794
0.0105337
0.017423
0.0236359
0.0292356
0.0340488
0.122633
0.117368
0.110487
0.103277
0.09539
0.0862365
0.0756247
0.0636292
0.0504238
0.0362742
0.0216162
0.00707813
-0.0066091
-0.0185841
-0.0281269
-0.0348038
-0.0384337
-0.038997
-0.0367396
-0.0321703
-0.0258801
-0.018449
-0.0104175
-0.0022636
0.0056277
0.0130064
0.0197367
0.0257768
0.0311375
0.0357043
0.124003
0.118927
0.112233
0.105141
0.0973522
0.0883113
0.0778208
0.0659097
0.0527237
0.0385179
0.0237315
0.00898987
-0.00490385
-0.0171002
-0.0267546
-0.0334497
-0.0371677
-0.0376634
-0.0352237
-0.0304121
-0.0238685
-0.0162181
-0.00804191
0.000148493
0.00795875
0.0151526
0.0216506
0.0275509
0.0329358
0.0375914
0.125314
0.120462
0.114009
0.10703
0.0993047
0.0903189
0.079882
0.0679915
0.0547612
0.0404542
0.0254948
0.0105031
-0.00365407
-0.0161605
-0.0261285
-0.0328918
-0.0364948
-0.036821
-0.0341133
-0.0289856
-0.0221227
-0.0141965
-0.00582608
0.00244322
0.0102019
0.017223
0.0234179
0.0289018
0.0338319
0.0385538
0.126544
0.121936
0.115779
0.109051
0.101467
0.0926572
0.0823541
0.0705242
0.0572692
0.0428597
0.0277244
0.0125126
-0.00189905
-0.0145926
-0.024641
-0.0317731
-0.0355886
-0.0358398
-0.0329185
-0.0275275
-0.0203951
-0.0122361
-0.00370907
0.00462414
0.0123547
0.0193292
0.025587
0.0312713
0.0361702
0.0401412
0.12767
0.123345
0.117288
0.110456
0.102804
0.0940358
0.0837974
0.0719419
0.058583
0.0439889
0.0286094
0.0131164
-0.00160448
-0.014589
-0.024716
-0.0316845
-0.0353946
-0.0354414
-0.0321963
-0.0264632
-0.019043
-0.0106995
-0.00214617
0.00603211
0.0134329
0.0199341
0.0256683
0.0309876
0.0361396
0.0410018
0.128801
0.125294
0.119948
0.113462
0.106029
0.0974322
0.0873434
0.075587
0.0622006
0.0474166
0.0316941
0.0157287
0.000449353
-0.0131127
-0.0238365
-0.0312589
-0.0350409
-0.0349265
-0.0313389
-0.0250922
-0.0171316
-0.00829547
0.00064603
0.00904927
0.0165095
0.0229415
0.0286437
0.0337752
0.0385087
0.042335
0.06846
0.0452155
0.0367391
0.04521
0.0707307
0.0875741
0.0946667
0.0990381
0.101873
0.103798
0.10558
0.107535
0.109671
0.111957
0.114383
0.116925
0.119533
0.122152
0.124733
0.127236
0.129635
0.131896
0.134053
0.136023
0.138028
0.13978
0.141786
0.143414
0.145878
0.144962
0.0735162
0.0468494
0.0344144
0.0412436
0.0688526
0.088634
0.0965309
0.100644
0.103167
0.104504
0.105537
0.106871
0.108541
0.110454
0.112584
0.114917
0.117405
0.119987
0.122605
0.125205
0.127746
0.130168
0.132478
0.134577
0.136566
0.138273
0.139969
0.141197
0.142836
0.143489
0.0739083
0.0529525
0.0369151
0.0450624
0.0678134
0.0892944
0.0991851
0.103299
0.105302
0.105995
0.106152
0.106637
0.107607
0.10895
0.110634
0.11265
0.11494
0.117431
0.120052
0.12274
0.12544
0.128086
0.130643
0.133047
0.135296
0.13732
0.139213
0.140844
0.142515
0.144042
0.0648027
0.0515398
0.0425961
0.0518445
0.0692201
0.0904449
0.1032
0.108055
0.109497
0.109178
0.108073
0.10753
0.107708
0.108365
0.109478
0.111066
0.113076
0.115416
0.117995
0.120736
0.123567
0.126423
0.129251
0.131996
0.134626
0.137095
0.139402
0.141505
0.143426
0.145111
0.0436753
0.035389
0.0395414
0.0561096
0.0752407
0.0937484
0.107458
0.113672
0.115365
0.114389
0.111719
0.10943
0.108409
0.10815
0.108557
0.109536
0.111061
0.113064
0.115449
0.118124
0.120999
0.123991
0.127032
0.130059
0.133021
0.13587
0.138569
0.141084
0.143397
0.145449
0.0174582
0.0137476
0.0253691
0.0504464
0.0765969
0.0968485
0.1115
0.119434
0.121684
0.120868
0.117685
0.113374
0.110349
0.10824
0.10756
0.10767
0.108553
0.110055
0.112077
0.114544
0.117352
0.120404
0.123608
0.126888
0.130178
0.133421
0.136569
0.139578
0.142426
0.145027
0.00111334
0.00105708
0.0123289
0.0368082
0.067611
0.0926104
0.111128
0.122806
0.127275
0.126603
0.123453
0.119212
0.114522
0.11041
0.10775
0.105972
0.105785
0.106485
0.107946
0.110036
0.112642
0.115654
0.118957
0.122454
0.12606
0.129705
0.133329
0.136876
0.140311
0.143522
-0.00581297
-0.00315486
0.00496417
0.0245832
0.0512277
0.0779212
0.101271
0.118138
0.127388
0.130169
0.127841
0.123239
0.118138
0.113391
0.108657
0.105349
0.103487
0.102562
0.103086
0.104477
0.106639
0.109406
0.112656
0.116273
0.120137
0.124157
0.128253
0.132348
0.136401
0.140265
-0.0116349
-0.00456397
0.000919699
0.0157092
0.0367919
0.0599516
0.0829206
0.103112
0.118692
0.127682
0.129365
0.125975
0.120126
0.113999
0.108379
0.104018
0.10043
0.0982684
0.0973469
0.0974677
0.0990123
0.101275
0.104259
0.107769
0.111691
0.115968
0.120476
0.125114
0.129819
0.134395
-0.0203519
-0.00709
-0.00239611
0.00797309
0.0235723
0.0423609
0.0627906
0.0825908
0.0997271
0.112925
0.121304
0.123816
0.120711
0.114247
0.10678
0.099972
0.0948494
0.0913652
0.0888747
0.0880859
0.0884878
0.0899361
0.0929181
0.0963274
0.100171
0.10454
0.109245
0.114265
0.119548
0.124843
-0.0325378
-0.0143867
-0.00934717
-0.000960814
0.010313
0.0249047
0.0418761
0.0596221
0.0763485
0.0906081
0.101322
0.108131
0.110951
0.109309
0.103691
0.0958873
0.0880804
0.0815106
0.0769482
0.0746226
0.0732166
0.073474
0.0755086
0.0783471
0.0826972
0.0877682
0.0928503
0.0983057
0.104079
0.109873
-0.0473882
-0.0276144
-0.0218902
-0.0138575
-0.0049908
0.00645848
0.0201931
0.0352254
0.050274
0.0639956
0.0753288
0.0835726
0.0883703
0.089939
0.0886438
0.0844918
0.0779314
0.0702082
0.0629033
0.0570579
0.0531434
0.0517773
0.0520372
0.0537397
0.0570745
0.0611471
0.0666641
0.0735912
0.0804488
0.0869239
-0.0650897
-0.045919
-0.0396935
-0.0317711
-0.0240888
-0.0147174
-0.00359656
0.00890732
0.0219225
0.0342883
0.0450139
0.0534011
0.0589728
0.0615797
0.0613425
0.0587156
0.0543131
0.0485516
0.0418541
0.0349579
0.0288397
0.024341
0.0218684
0.0218794
0.0241894
0.0277971
0.0321086
0.0371733
0.043908
0.0521604
-0.0860871
-0.0671953
-0.0616693
-0.0542324
-0.04745
-0.0396563
-0.030271
-0.0196481
-0.00861172
0.0021751
0.011823
0.0195888
0.0249553
0.0276931
0.0277835
0.0253632
0.0208459
0.0148149
0.00796698
0.000958716
-0.00569412
-0.011559
-0.0160636
-0.0187401
-0.0192092
-0.0171381
-0.0128101
-0.00697068
-0.000562043