/*--------------------------------*- C++ -*----------------------------------*\
  =========                 |
  \\      /  F ield         | OpenFOAM: The Open Source CFD Toolbox
   \\    /   O peration     | Website:  https://openfoam.org
    \\  /    A nd           | Version:  11
     \\/     M anipulation  |
\*---------------------------------------------------------------------------*/
FoamFile
{
    format      ascii;
    class       surfaceScalarField;
    location    "9.3";
    object      phi;
}
// * * * * * * * * * * * * * * * * * * * * * * * * * * * * * * * * * * * * * //

dimensions      [0 3 -1 0 0 0 0];

internalField   nonuniform List<scalar> 
24840
(
1.57973e-05
1.36585e-08
1.57786e-05
1.86857e-08
1.57612e-05
1.74616e-08
1.57438e-05
1.73967e-08
1.5726e-05
1.7738e-08
1.57082e-05
1.7837e-08
1.56904e-05
1.77869e-08
1.56727e-05
1.76918e-08
1.56551e-05
1.75604e-08
1.56378e-05
1.73867e-08
1.56206e-05
1.71693e-08
1.56037e-05
1.69032e-08
1.55871e-05
1.65791e-08
1.55709e-05
1.61792e-08
1.55553e-05
1.56796e-08
1.55402e-05
1.50517e-08
1.55259e-05
1.42626e-08
1.55127e-05
1.32685e-08
1.55006e-05
1.20789e-08
1.549e-05
1.061e-08
1.54812e-05
8.74412e-09
1.54749e-05
6.37173e-09
1.54714e-05
3.45636e-09
1.54715e-05
-1.14936e-10
1.54763e-05
-4.76432e-09
1.5487e-05
-1.06825e-08
1.55056e-05
-1.86719e-08
1.55356e-05
-2.99514e-08
1.55845e-05
-4.8953e-08
-1.24108e-07
1.57087e-05
1.5817e-05
7.64035e-09
1.58206e-05
1.50225e-08
1.58231e-05
1.49961e-08
1.58251e-05
1.53814e-08
1.5827e-05
1.58966e-08
1.58287e-05
1.60597e-08
1.58306e-05
1.597e-08
1.58325e-05
1.57947e-08
1.58345e-05
1.55406e-08
1.58367e-05
1.52048e-08
1.5839e-05
1.47873e-08
1.58417e-05
1.42767e-08
1.58446e-05
1.36568e-08
1.58479e-05
1.28926e-08
1.58516e-05
1.19391e-08
1.58559e-05
1.07431e-08
1.5861e-05
9.2395e-09
1.58669e-05
7.35944e-09
1.58738e-05
5.10118e-09
1.58821e-05
2.31684e-09
1.5892e-05
-1.15983e-09
1.5904e-05
-5.58268e-09
1.59184e-05
-1.09836e-08
1.5936e-05
-1.77216e-08
1.59575e-05
-2.62e-08
1.59839e-05
-3.70682e-08
1.60159e-05
-5.06837e-08
1.60562e-05
-7.02928e-08
1.6098e-05
-9.07739e-08
-1.26767e-07
1.61007e-05
1.58136e-05
4.99654e-09
1.5817e-05
1.16652e-08
1.5819e-05
1.29653e-08
1.5821e-05
1.33623e-08
1.5823e-05
1.39559e-08
1.58247e-05
1.42745e-08
1.58266e-05
1.41635e-08
1.58285e-05
1.38903e-08
1.58305e-05
1.34895e-08
1.58327e-05
1.29777e-08
1.58352e-05
1.23565e-08
1.58378e-05
1.16121e-08
1.58408e-05
1.07292e-08
1.5844e-05
9.65801e-09
1.58476e-05
8.33128e-09
1.58517e-05
6.6585e-09
1.58564e-05
4.55049e-09
1.58619e-05
1.87734e-09
1.58683e-05
-1.38569e-09
1.5876e-05
-5.39211e-09
1.58853e-05
-1.04047e-08
1.58964e-05
-1.66503e-08
1.59097e-05
-2.43527e-08
1.5926e-05
-3.39447e-08
1.59457e-05
-4.59609e-08
1.59698e-05
-6.11874e-08
1.59996e-05
-8.04014e-08
1.60343e-05
-1.04995e-07
1.60786e-05
-1.35071e-07
-1.64005e-07
1.61158e-05
1.58125e-05
3.44944e-09
1.58153e-05
8.92525e-09
1.58172e-05
1.09795e-08
1.5819e-05
1.16066e-08
1.58208e-05
1.21662e-08
1.58225e-05
1.25217e-08
1.58243e-05
1.2412e-08
1.58261e-05
1.20443e-08
1.58281e-05
1.14948e-08
1.58303e-05
1.08068e-08
1.58327e-05
9.98594e-09
1.58353e-05
9.01275e-09
1.58381e-05
7.87791e-09
1.58413e-05
6.51453e-09
1.58448e-05
4.81197e-09
1.58488e-05
2.66206e-09
1.58533e-05
8.3428e-12
1.58586e-05
-3.44829e-09
1.58649e-05
-7.65489e-09
1.58724e-05
-1.286e-08
1.58813e-05
-1.93161e-08
1.5892e-05
-2.73108e-08
1.59048e-05
-3.71984e-08
1.59204e-05
-4.94918e-08
1.59393e-05
-6.48676e-08
1.59623e-05
-8.4214e-08
1.59904e-05
-1.08557e-07
1.60242e-05
-1.38747e-07
1.60664e-05
-1.77234e-07
-2.12847e-07
1.61152e-05
1.58119e-05
2.49257e-09
1.5814e-05
6.88348e-09
1.58158e-05
9.16023e-09
1.58174e-05
1.00079e-08
1.5819e-05
1.05207e-08
1.58207e-05
1.08172e-08
1.58224e-05
1.06982e-08
1.58243e-05
1.02375e-08
1.58262e-05
9.54485e-09
1.58283e-05
8.68451e-09
1.58306e-05
7.67151e-09
1.58332e-05
6.48744e-09
1.58359e-05
5.113e-09
1.5839e-05
3.47245e-09
1.58424e-05
1.40749e-09
1.58462e-05
-1.205e-09
1.58507e-05
-4.43618e-09
1.58558e-05
-8.57675e-09
1.58618e-05
-1.36804e-08
1.5869e-05
-1.99915e-08
1.58775e-05
-2.77975e-08
1.58876e-05
-3.74481e-08
1.58998e-05
-4.93855e-08
1.59145e-05
-6.42115e-08
1.59324e-05
-8.27281e-08
1.59541e-05
-1.05929e-07
1.59806e-05
-1.35081e-07
1.60129e-05
-1.71045e-07
1.60528e-05
-2.17164e-07
-2.63612e-07
1.61036e-05
1.58116e-05
1.85685e-09
1.58131e-05
5.33776e-09
1.58148e-05
7.51708e-09
1.58163e-05
8.49153e-09
1.58179e-05
8.97457e-09
1.58195e-05
9.19264e-09
1.58212e-05
9.02277e-09
1.58229e-05
8.47126e-09
1.58248e-05
7.64372e-09
1.58269e-05
6.61918e-09
1.58291e-05
5.42423e-09
1.58316e-05
4.04469e-09
1.58343e-05
2.43028e-09
1.58372e-05
5.22756e-10
1.58405e-05
-1.87176e-09
1.58442e-05
-4.88768e-09
1.58484e-05
-8.66242e-09
1.58533e-05
-1.34433e-08
1.5859e-05
-1.93847e-08
1.58657e-05
-2.67273e-08
1.58737e-05
-3.57896e-08
1.58832e-05
-4.69731e-08
1.58946e-05
-6.07949e-08
1.59084e-05
-7.79452e-08
1.5925e-05
-9.93386e-08
1.59451e-05
-1.26097e-07
1.59698e-05
-1.59707e-07
1.6e-05
-2.01279e-07
1.60374e-05
-2.54578e-07
-3.12538e-07
1.60863e-05
1.58114e-05
1.39855e-09
1.58126e-05
4.1341e-09
1.58141e-05
6.07272e-09
1.58155e-05
7.07352e-09
1.58169e-05
7.5287e-09
1.58185e-05
7.65822e-09
1.58201e-05
7.40772e-09
1.58218e-05
6.76133e-09
1.58236e-05
5.80489e-09
1.58256e-05
4.62483e-09
1.58278e-05
3.25968e-09
1.58301e-05
1.69969e-09
1.58327e-05
-1.42587e-10
1.58355e-05
-2.2949e-09
1.58387e-05
-4.99457e-09
1.58422e-05
-8.38959e-09
1.58462e-05
-1.26599e-08
1.58507e-05
-1.8036e-08
1.58561e-05
-2.47327e-08
1.58624e-05
-3.30087e-08
1.58698e-05
-4.32084e-08
1.58786e-05
-5.57775e-08
1.58891e-05
-7.12974e-08
1.59017e-05
-9.05382e-08
1.59169e-05
-1.14517e-07
1.59353e-05
-1.4449e-07
1.59577e-05
-1.82141e-07
1.59854e-05
-2.28945e-07
1.60196e-05
-2.88833e-07
-3.57741e-07
1.60648e-05
1.58113e-05
1.04648e-09
1.58123e-05
3.16934e-09
1.58135e-05
4.81299e-09
1.58149e-05
5.75487e-09
1.58162e-05
6.16336e-09
1.58177e-05
6.19959e-09
1.58192e-05
5.85175e-09
1.58209e-05
5.10448e-09
1.58227e-05
4.0253e-09
1.58246e-05
2.7003e-09
1.58267e-05
1.17449e-09
1.58289e-05
-5.55089e-10
1.58314e-05
-2.58296e-09
1.58341e-05
-4.97559e-09
1.5837e-05
-7.94604e-09
1.58403e-05
-1.1682e-08
1.5844e-05
-1.63896e-08
1.58483e-05
-2.23046e-08
1.58532e-05
-2.96741e-08
1.5859e-05
-3.87799e-08
1.58658e-05
-4.99886e-08
1.58738e-05
-6.37818e-08
1.58833e-05
-8.0794e-08
1.58946e-05
-1.01864e-07
1.59082e-05
-1.28099e-07
1.59246e-05
-1.60883e-07
1.59445e-05
-2.02078e-07
1.59691e-05
-2.53546e-07
1.59996e-05
-3.19267e-07
-3.98091e-07
1.60399e-05
1.58112e-05
7.63449e-10
1.5812e-05
2.37135e-09
1.58132e-05
3.70795e-09
1.58144e-05
4.53146e-09
1.58157e-05
4.86893e-09
1.58171e-05
4.81008e-09
1.58186e-05
4.35885e-09
1.58201e-05
3.50813e-09
1.58219e-05
2.31343e-09
1.58237e-05
8.57039e-10
1.58257e-05
-8.11544e-10
1.58278e-05
-2.7003e-09
1.58301e-05
-4.89159e-09
1.58327e-05
-7.49408e-09
1.58354e-05
-1.07058e-08
1.58385e-05
-1.47425e-08
1.58419e-05
-1.98313e-08
1.58458e-05
-2.62189e-08
1.58503e-05
-3.4172e-08
1.58556e-05
-4.39937e-08
1.58616e-05
-5.60698e-08
1.58688e-05
-7.09097e-08
1.58772e-05
-8.91893e-08
1.58871e-05
-1.11803e-07
1.58989e-05
-1.39934e-07
1.59131e-05
-1.75079e-07
1.59303e-05
-2.19245e-07
1.59514e-05
-2.7466e-07
1.59774e-05
-3.45273e-07
-4.32685e-07
1.6012e-05
1.58112e-05
5.27006e-10
1.58119e-05
1.69179e-09
1.58129e-05
2.72732e-09
1.5814e-05
3.39574e-09
1.58152e-05
3.63954e-09
1.58166e-05
3.48331e-09
1.5818e-05
2.92794e-09
1.58195e-05
1.97414e-09
1.58212e-05
6.71447e-10
1.58229e-05
-9.03082e-10
1.58248e-05
-2.69922e-09
1.58268e-05
-4.72556e-09
1.5829e-05
-7.06209e-09
1.58314e-05
-9.84146e-09
1.58339e-05
-1.32615e-08
1.58367e-05
-1.75542e-08
1.58399e-05
-2.29645e-08
1.58434e-05
-2.9751e-08
1.58474e-05
-3.81935e-08
1.5852e-05
-4.86112e-08
1.58574e-05
-6.14044e-08
1.58636e-05
-7.71023e-08
1.58708e-05
-9.64104e-08
1.58792e-05
-1.20264e-07
1.58892e-05
-1.49902e-07
1.5901e-05
-1.86908e-07
1.59152e-05
-2.33402e-07
1.59324e-05
-2.91917e-07
1.59535e-05
-3.66332e-07
-4.60736e-07
1.59816e-05
1.58112e-05
3.21754e-10
1.58118e-05
1.09868e-09
1.58126e-05
1.84467e-09
1.58137e-05
2.33709e-09
1.58149e-05
2.46912e-09
1.58161e-05
2.21269e-09
1.58175e-05
1.55552e-09
1.5819e-05
5.0256e-10
1.58206e-05
-8.98973e-10
1.58222e-05
-2.57682e-09
1.5824e-05
-4.48179e-09
1.58259e-05
-6.62334e-09
1.58279e-05
-9.08332e-09
1.58301e-05
-1.20071e-08
1.58324e-05
-1.55987e-08
1.5835e-05
-2.01006e-08
1.58378e-05
-2.5771e-08
1.58409e-05
-3.28785e-08
1.58444e-05
-4.17117e-08
1.58484e-05
-5.25999e-08
1.5853e-05
-6.59529e-08
1.58582e-05
-8.23114e-08
1.58642e-05
-1.02398e-07
1.58711e-05
-1.27173e-07
1.58791e-05
-1.57907e-07
1.58884e-05
-1.9624e-07
1.58994e-05
-2.44362e-07
1.59125e-05
-3.05035e-07
1.59282e-05
-3.82019e-07
-4.81542e-07
1.5949e-05
1.58112e-05
1.36777e-10
1.58117e-05
5.69762e-10
1.58125e-05
1.03778e-09
1.58135e-05
1.34307e-09
1.58146e-05
1.35055e-09
1.58158e-05
9.92062e-10
1.58171e-05
2.37906e-10
1.58185e-05
-9.06975e-10
1.582e-05
-2.39628e-09
1.58216e-05
-4.16147e-09
1.58233e-05
-6.15557e-09
1.58251e-05
-8.38964e-09
1.58269e-05
-1.09481e-08
1.58289e-05
-1.39842e-08
1.5831e-05
-1.77084e-08
1.58333e-05
-2.23706e-08
1.58358e-05
-2.82376e-08
1.58385e-05
-3.55853e-08
1.58415e-05
-4.47072e-08
1.58448e-05
-5.59371e-08
1.58485e-05
-6.96887e-08
1.58527e-05
-8.65052e-08
1.58574e-05
-1.07114e-07
1.58628e-05
-1.32482e-07
1.58687e-05
-1.63888e-07
1.58755e-05
-2.02993e-07
1.58831e-05
-2.52002e-07
1.58919e-05
-3.13819e-07
1.59019e-05
-3.92032e-07
-4.94555e-07
1.59149e-05
1.58111e-05
-3.35559e-11
1.58116e-05
8.59057e-11
1.58124e-05
2.87887e-10
1.58133e-05
4.00956e-10
1.58144e-05
2.75824e-10
1.58156e-05
-1.84806e-10
1.58168e-05
-1.02897e-09
1.58182e-05
-2.25553e-09
1.58196e-05
-3.81952e-09
1.58211e-05
-5.65525e-09
1.58227e-05
-7.71829e-09
1.58243e-05
-1.00216e-08
1.5826e-05
-1.2652e-08
1.58278e-05
-1.57675e-08
1.58297e-05
-1.95839e-08
1.58316e-05
-2.43555e-08
1.58338e-05
-3.03541e-08
1.5836e-05
-3.78593e-08
1.58385e-05
-4.71659e-08
1.58412e-05
-5.86074e-08
1.58441e-05
-7.25946e-08
1.58472e-05
-8.96653e-08
1.58506e-05
-1.10539e-07
1.58543e-05
-1.3617e-07
1.58583e-05
-1.67821e-07
1.58624e-05
-2.07131e-07
1.58667e-05
-2.56269e-07
1.5871e-05
-3.18175e-07
1.58752e-05
-3.96206e-07
-4.99409e-07
1.58801e-05
1.58111e-05
-1.91947e-10
1.58116e-05
-3.68229e-10
1.58123e-05
-4.22073e-10
1.58132e-05
-5.02272e-10
1.58142e-05
-7.62904e-10
1.58154e-05
-1.32329e-09
1.58166e-05
-2.24904e-09
1.58179e-05
-3.54582e-09
1.58192e-05
-5.16998e-09
1.58206e-05
-7.05815e-09
1.58221e-05
-9.16882e-09
1.58236e-05
-1.15172e-08
1.58251e-05
-1.41919e-08
1.58267e-05
-1.73536e-08
1.58283e-05
-2.1221e-08
1.583e-05
-2.60503e-08
1.58318e-05
-3.21148e-08
1.58336e-05
-3.96944e-08
1.58355e-05
-4.90817e-08
1.58375e-05
-6.06049e-08
1.58396e-05
-7.46659e-08
1.58417e-05
-9.17889e-08
1.58439e-05
-1.12672e-07
1.58459e-05
-1.38242e-07
1.58478e-05
-1.69716e-07
1.58494e-05
-2.08675e-07
1.58503e-05
-2.5719e-07
1.58503e-05
-3.18126e-07
1.58486e-05
-3.94545e-07
-4.95992e-07
1.58452e-05
1.58111e-05
-3.4166e-10
1.58116e-05
-8.04105e-10
1.58122e-05
-1.10757e-09
1.58131e-05
-1.37927e-09
1.58141e-05
-1.77367e-09
1.58152e-05
-2.42871e-09
1.58164e-05
-3.42733e-09
1.58176e-05
-4.78209e-09
1.58189e-05
-6.45041e-09
1.58202e-05
-8.37137e-09
1.58216e-05
-1.05072e-08
1.58229e-05
-1.28756e-08
1.58243e-05
-1.55665e-08
1.58257e-05
-1.8741e-08
1.58271e-05
-2.26179e-08
1.58285e-05
-2.74531e-08
1.58299e-05
-3.35181e-08
1.58313e-05
-4.10899e-08
1.58327e-05
-5.0455e-08
1.5834e-05
-6.19321e-08
1.58352e-05
-7.59087e-08
1.58363e-05
-9.2887e-08
1.58372e-05
-1.13534e-07
1.58377e-05
-1.38728e-07
1.58376e-05
-1.69621e-07
1.58366e-05
-2.07693e-07
1.58343e-05
-2.54864e-07
1.583e-05
-3.13812e-07
1.58227e-05
-3.87231e-07
-4.84484e-07
1.58111e-05
1.58111e-05
-4.86957e-10
1.58115e-05
-1.23203e-09
1.58122e-05
-1.78155e-09
1.58131e-05
-2.24125e-09
1.58141e-05
-2.76524e-09
1.58151e-05
-3.50875e-09
1.58163e-05
-4.57062e-09
1.58175e-05
-5.96924e-09
1.58187e-05
-7.66362e-09
1.58199e-05
-9.59639e-09
1.58211e-05
-1.17343e-08
1.58224e-05
-1.40976e-08
1.58236e-05
-1.67761e-08
1.58248e-05
-1.99297e-08
1.58259e-05
-2.37754e-08
1.5827e-05
-2.85654e-08
1.58281e-05
-3.4567e-08
1.5829e-05
-4.20503e-08
1.58299e-05
-5.12929e-08
1.58305e-05
-6.25997e-08
1.5831e-05
-7.63389e-08
1.58311e-05
-9.29841e-08
1.58307e-05
-1.1316e-07
1.58297e-05
-1.37685e-07
1.58277e-05
-1.67618e-07
1.58243e-05
-2.04309e-07
1.58189e-05
-2.49473e-07
1.58106e-05
-3.05493e-07
1.5798e-05
-3.74632e-07
-4.65391e-07
1.57789e-05
1.58111e-05
-6.32148e-10
1.58115e-05
-1.6621e-09
1.58122e-05
-2.45723e-09
1.58131e-05
-3.10056e-09
1.58141e-05
-3.74755e-09
1.58151e-05
-4.57132e-09
1.58162e-05
-5.6851e-09
1.58174e-05
-7.11182e-09
1.58185e-05
-8.81284e-09
1.58197e-05
-1.07358e-08
1.58208e-05
-1.28524e-08
1.58219e-05
-1.51851e-08
1.58229e-05
-1.78228e-08
1.58239e-05
-2.09227e-08
1.58248e-05
-2.46971e-08
1.58257e-05
-2.93924e-08
1.58264e-05
-3.52681e-08
1.58269e-05
-4.2585e-08
1.58272e-05
-5.16082e-08
1.58272e-05
-6.26259e-08
1.58269e-05
-7.59825e-08
1.5826e-05
-9.21172e-08
1.58245e-05
-1.11605e-07
1.5822e-05
-1.3519e-07
1.58182e-05
-1.63823e-07
1.58126e-05
-1.98691e-07
1.58043e-05
-2.41265e-07
1.57924e-05
-2.93543e-07
1.57751e-05
-3.57298e-07
-4.39551e-07
1.57492e-05
1.58111e-05
-7.81606e-10
1.58116e-05
-2.10595e-09
1.58123e-05
-3.14981e-09
1.58131e-05
-3.9708e-09
1.58141e-05
-4.73033e-09
1.58152e-05
-5.62347e-09
1.58162e-05
-6.77653e-09
1.58174e-05
-8.21466e-09
1.58184e-05
-9.90205e-09
1.58195e-05
-1.1793e-08
1.58205e-05
-1.38649e-08
1.58215e-05
-1.6142e-08
1.58224e-05
-1.8711e-08
1.58232e-05
-2.17248e-08
1.58239e-05
-2.53892e-08
1.58244e-05
-2.99417e-08
1.58248e-05
-3.56316e-08
1.58249e-05
-4.27074e-08
1.58247e-05
-5.14191e-08
1.58241e-05
-6.20354e-08
1.5823e-05
-7.48737e-08
1.58212e-05
-9.03344e-08
1.58185e-05
-1.08936e-07
1.58147e-05
-1.3134e-07
1.58092e-05
-1.58374e-07
1.58016e-05
-1.91046e-07
1.57909e-05
-2.30547e-07
1.57758e-05
-2.78428e-07
1.57544e-05
-3.35934e-07
-4.08108e-07
1.5723e-05
1.58111e-05
-9.40571e-10
1.58116e-05
-2.5779e-09
1.58123e-05
-3.87647e-09
1.58132e-05
-4.86555e-09
1.58142e-05
-5.72277e-09
1.58153e-05
-6.67251e-09
1.58163e-05
-7.85142e-09
1.58174e-05
-9.28317e-09
1.58184e-05
-1.09357e-08
1.58194e-05
-1.27723e-08
1.58203e-05
-1.47764e-08
1.58212e-05
-1.69731e-08
1.58219e-05
-1.94464e-08
1.58225e-05
-2.2343e-08
1.5823e-05
-2.58601e-08
1.58233e-05
-3.0224e-08
1.58233e-05
-3.56709e-08
1.5823e-05
-4.24349e-08
1.58224e-05
-5.07488e-08
1.58212e-05
-6.08595e-08
1.58194e-05
-7.30549e-08
1.58167e-05
-8.76936e-08
1.5813e-05
-1.05233e-07
1.58079e-05
-1.26247e-07
1.5801e-05
-1.51435e-07
1.57916e-05
-1.81609e-07
1.57787e-05
-2.17673e-07
1.57609e-05
-2.60688e-07
1.57364e-05
-3.11366e-07
-3.72452e-07
1.57007e-05
1.58111e-05
-1.11588e-09
1.58117e-05
-3.09606e-09
1.58124e-05
-4.65705e-09
1.58134e-05
-5.7988e-09
1.58144e-05
-6.73399e-09
1.58154e-05
-7.7262e-09
1.58165e-05
-8.91664e-09
1.58175e-05
-1.03229e-08
1.58185e-05
-1.19187e-08
1.58194e-05
-1.36786e-08
1.58202e-05
-1.55923e-08
1.5821e-05
-1.76847e-08
1.58216e-05
-2.0036e-08
1.5822e-05
-2.27858e-08
1.58223e-05
-2.61203e-08
1.58223e-05
-3.02523e-08
1.5822e-05
-3.54027e-08
1.58214e-05
-4.17889e-08
1.58202e-05
-4.96248e-08
1.58185e-05
-5.91342e-08
1.5816e-05
-7.05741e-08
1.58126e-05
-8.42597e-08
1.5808e-05
-1.00586e-07
1.58017e-05
-1.20037e-07
1.57935e-05
-1.43179e-07
1.57825e-05
-1.70633e-07
1.57679e-05
-2.03016e-07
1.57481e-05
-2.40899e-07
1.57212e-05
-2.84489e-07
-3.3412e-07
1.56829e-05
1.58112e-05
-1.31702e-09
1.58118e-05
-3.68486e-09
1.58126e-05
-5.51535e-09
1.58136e-05
-6.78436e-09
1.58146e-05
-7.77262e-09
1.58157e-05
-8.79287e-09
1.58168e-05
-9.97936e-09
1.58178e-05
-1.13391e-08
1.58187e-05
-1.28558e-08
1.58196e-05
-1.45174e-08
1.58203e-05
-1.63188e-08
1.58209e-05
-1.8284e-08
1.58213e-05
-2.04887e-08
1.58216e-05
-2.30638e-08
1.58217e-05
-2.61829e-08
1.58215e-05
-3.00427e-08
1.58209e-05
-3.48468e-08
1.58199e-05
-4.07945e-08
1.58184e-05
-4.80793e-08
1.58161e-05
-5.6901e-08
1.58131e-05
-6.74855e-08
1.58089e-05
-8.0104e-08
1.58034e-05
-9.50889e-08
1.57962e-05
-1.12837e-07
1.57868e-05
-1.33789e-07
1.57746e-05
-1.58378e-07
1.57585e-05
-1.86956e-07
1.57372e-05
-2.19639e-07
1.57089e-05
-2.56201e-07
-2.94702e-07
1.56695e-05
1.58112e-05
-1.55809e-09
1.58119e-05
-4.37875e-09
1.58129e-05
-6.47963e-09
1.58139e-05
-7.83479e-09
1.5815e-05
-8.84701e-09
1.58161e-05
-9.88168e-09
1.58171e-05
-1.10468e-08
1.58181e-05
-1.23371e-08
1.5819e-05
-1.37522e-08
1.58198e-05
-1.52944e-08
1.58205e-05
-1.69624e-08
1.5821e-05
-1.87784e-08
1.58213e-05
-2.08133e-08
1.58214e-05
-2.31881e-08
1.58213e-05
-2.60612e-08
1.58209e-05
-2.96116e-08
1.582e-05
-3.40242e-08
1.58187e-05
-3.94784e-08
1.58168e-05
-4.61461e-08
1.58141e-05
-5.42033e-08
1.58104e-05
-6.38455e-08
1.58056e-05
-7.53005e-08
1.57994e-05
-8.88409e-08
1.57913e-05
-1.04781e-07
1.5781e-05
-1.23445e-07
1.57677e-05
-1.45094e-07
1.57506e-05
-1.69855e-07
1.57284e-05
-1.97453e-07
1.56996e-05
-2.2734e-07
-2.55626e-07
1.56605e-05
1.58113e-05
-1.86145e-09
1.58121e-05
-5.22771e-09
1.58132e-05
-7.58187e-09
1.58143e-05
-8.95981e-09
1.58155e-05
-9.96562e-09
1.58166e-05
-1.1002e-08
1.58177e-05
-1.21247e-08
1.58186e-05
-1.33214e-08
1.58195e-05
-1.4614e-08
1.58202e-05
-1.60177e-08
1.58208e-05
-1.75324e-08
1.58212e-05
-1.91789e-08
1.58214e-05
-2.10228e-08
1.58214e-05
-2.31732e-08
1.58211e-05
-2.57722e-08
1.58205e-05
-2.89803e-08
1.58194e-05
-3.29615e-08
1.58178e-05
-3.78727e-08
1.58155e-05
-4.38641e-08
1.58124e-05
-5.10892e-08
1.58083e-05
-5.97147e-08
1.58029e-05
-6.99262e-08
1.5796e-05
-8.19405e-08
1.57872e-05
-9.59987e-08
1.57761e-05
-1.12319e-07
1.5762e-05
-1.31018e-07
1.57442e-05
-1.5204e-07
1.57216e-05
-1.74807e-07
1.56928e-05
-1.98617e-07
-2.1819e-07
1.56554e-05
1.58114e-05
-2.2654e-09
1.58124e-05
-6.3046e-09
1.58137e-05
-8.85337e-09
1.58149e-05
-1.01657e-08
1.58161e-05
-1.11406e-08
1.58173e-05
-1.21641e-08
1.58184e-05
-1.32158e-08
1.58193e-05
-1.42925e-08
1.58202e-05
-1.54431e-08
1.58208e-05
-1.669e-08
1.58213e-05
-1.80327e-08
1.58216e-05
-1.94912e-08
1.58217e-05
-2.11257e-08
1.58216e-05
-2.30319e-08
1.58212e-05
-2.53333e-08
1.58203e-05
-2.81691e-08
1.58191e-05
-3.16816e-08
1.58172e-05
-3.60064e-08
1.58146e-05
-4.1271e-08
1.58111e-05
-4.76071e-08
1.58066e-05
-5.51548e-08
1.58007e-05
-6.40587e-08
1.57932e-05
-7.44859e-08
1.57839e-05
-8.66157e-08
1.57721e-05
-1.00577e-07
1.57575e-05
-1.1636e-07
1.57392e-05
-1.3379e-07
1.57165e-05
-1.52065e-07
1.56884e-05
-1.70557e-07
-1.83214e-07
1.56534e-05
1.58115e-05
-2.84195e-09
1.5813e-05
-7.71427e-09
1.58144e-05
-1.03099e-08
1.58157e-05
-1.14536e-08
1.58169e-05
-1.23919e-08
1.58182e-05
-1.33844e-08
1.58193e-05
-1.433e-08
1.58203e-05
-1.52621e-08
1.58211e-05
-1.62525e-08
1.58217e-05
-1.73242e-08
1.58221e-05
-1.84762e-08
1.58224e-05
-1.9729e-08
1.58224e-05
-2.11365e-08
1.58221e-05
-2.27799e-08
1.58216e-05
-2.47626e-08
1.58206e-05
-2.72005e-08
1.58191e-05
-3.02138e-08
1.5817e-05
-3.39152e-08
1.58142e-05
-3.84089e-08
1.58104e-05
-4.38075e-08
1.58054e-05
-5.02279e-08
1.57992e-05
-5.77731e-08
1.57912e-05
-6.6568e-08
1.57814e-05
-7.67457e-08
1.57692e-05
-8.8362e-08
1.57541e-05
-1.01302e-07
1.57356e-05
-1.15328e-07
1.5713e-05
-1.29458e-07
1.56859e-05
-1.4346e-07
-1.51093e-07
1.56538e-05
1.58119e-05
-3.7349e-09
1.58138e-05
-9.61197e-09
1.58154e-05
-1.19315e-08
1.58167e-05
-1.28151e-08
1.58181e-05
-1.37249e-08
1.58193e-05
-1.46504e-08
1.58205e-05
-1.54549e-08
1.58214e-05
-1.6225e-08
1.58222e-05
-1.70422e-08
1.58228e-05
-1.79223e-08
1.58232e-05
-1.88679e-08
1.58234e-05
-1.99024e-08
1.58233e-05
-2.10702e-08
1.5823e-05
-2.24361e-08
1.58223e-05
-2.40825e-08
1.58212e-05
-2.61005e-08
1.58196e-05
-2.85883e-08
1.58173e-05
-3.16349e-08
1.58142e-05
-3.53206e-08
1.58101e-05
-3.97421e-08
1.58049e-05
-4.49973e-08
1.57983e-05
-5.11463e-08
1.579e-05
-5.82822e-08
1.57797e-05
-6.65048e-08
1.57672e-05
-7.58104e-08
1.57519e-05
-8.6e-08
1.57334e-05
-9.68239e-08
1.5711e-05
-1.07104e-07
1.5685e-05
-1.17431e-07
-1.21077e-07
1.5655e-05
1.58124e-05
-5.2144e-09
1.5815e-05
-1.22001e-08
1.58168e-05
-1.3706e-08
1.58183e-05
-1.43178e-08
1.58198e-05
-1.51821e-08
1.58211e-05
-1.59649e-08
1.58222e-05
-1.65917e-08
1.58232e-05
-1.7187e-08
1.5824e-05
-1.78179e-08
1.58245e-05
-1.84898e-08
1.58249e-05
-1.92129e-08
1.5825e-05
-2.00157e-08
1.58248e-05
-2.09318e-08
1.58244e-05
-2.20094e-08
1.58236e-05
-2.33076e-08
1.58224e-05
-2.48906e-08
1.58207e-05
-2.68365e-08
1.58183e-05
-2.92035e-08
1.5815e-05
-3.20503e-08
1.58107e-05
-3.54667e-08
1.58052e-05
-3.95308e-08
1.57983e-05
-4.42436e-08
1.57898e-05
-4.9699e-08
1.57792e-05
-5.59904e-08
1.57665e-05
-6.30475e-08
1.57511e-05
-7.06152e-08
1.57327e-05
-7.84417e-08
1.57106e-05
-8.50043e-08
1.56858e-05
-9.26246e-08
-9.069e-08
1.56554e-05
1.58135e-05
-7.78534e-09
1.58167e-05
-1.54024e-08
1.58186e-05
-1.55161e-08
1.58203e-05
-1.60692e-08
1.58219e-05
-1.67823e-08
1.58233e-05
-1.73268e-08
1.58244e-05
-1.7756e-08
1.58254e-05
-1.81678e-08
1.58262e-05
-1.85947e-08
1.58267e-05
-1.90431e-08
1.58271e-05
-1.95339e-08
1.58271e-05
-2.00957e-08
1.5827e-05
-2.0751e-08
1.58265e-05
-2.15296e-08
1.58256e-05
-2.2467e-08
1.58243e-05
-2.3595e-08
1.58225e-05
-2.49835e-08
1.58199e-05
-2.6654e-08
1.58165e-05
-2.86312e-08
1.58121e-05
-3.10122e-08
1.58064e-05
-3.38908e-08
1.57993e-05
-3.71573e-08
1.57905e-05
-4.09029e-08
1.57798e-05
-4.52674e-08
1.57669e-05
-5.01247e-08
1.57515e-05
-5.52361e-08
1.57334e-05
-6.02915e-08
1.57116e-05
-6.32552e-08
1.56876e-05
-6.85571e-08
-5.37928e-08
1.56507e-05
1.58169e-05
-1.37509e-08
1.58204e-05
-1.88848e-08
1.58226e-05
-1.77192e-08
1.58243e-05
-1.77599e-08
1.58257e-05
-1.81934e-08
1.58269e-05
-1.84865e-08
1.58278e-05
-1.86883e-08
1.58285e-05
-1.88889e-08
1.5829e-05
-1.9106e-08
1.58293e-05
-1.9337e-08
1.58294e-05
-1.95909e-08
1.58292e-05
-1.98815e-08
1.58287e-05
-2.02206e-08
1.58277e-05
-2.06231e-08
1.58264e-05
-2.11081e-08
1.58245e-05
-2.16898e-08
1.58219e-05
-2.24152e-08
1.58185e-05
-2.32871e-08
1.58142e-05
-2.43146e-08
1.58088e-05
-2.55641e-08
1.5802e-05
-2.70961e-08
1.57936e-05
-2.87999e-08
1.57835e-05
-3.07519e-08
1.57713e-05
-3.30627e-08
1.57568e-05
-3.56296e-08
1.57398e-05
-3.82601e-08
1.57203e-05
-4.07873e-08
1.56975e-05
-4.04378e-08
1.56687e-05
-3.97618e-08
8.20106e-09
1.56067e-05
1.57972e-05
1.57783e-05
1.57606e-05
1.57429e-05
1.57247e-05
1.57062e-05
1.56875e-05
1.56686e-05
1.56495e-05
1.56302e-05
1.56106e-05
1.55907e-05
1.55705e-05
1.55498e-05
1.55287e-05
1.5507e-05
1.54846e-05
1.54613e-05
1.5437e-05
1.54115e-05
1.53844e-05
1.53556e-05
1.53248e-05
1.52917e-05
1.52561e-05
1.52179e-05
1.51771e-05
1.51366e-05
1.50969e-05
1.51051e-05
1.542e-05
-9.00244e-06
9.29105e-06
1.50825e-05
-9.08082e-06
9.4184e-06
1.46891e-05
-9.13223e-06
9.52558e-06
1.42519e-05
-9.15937e-06
9.59656e-06
1.37918e-05
-9.18333e-06
9.64344e-06
1.33206e-05
-9.20961e-06
9.68087e-06
1.28435e-05
-9.23835e-06
9.71543e-06
1.23631e-05
-9.26928e-06
9.74967e-06
1.18806e-05
-9.3025e-06
9.78502e-06
1.13962e-05
-9.33797e-06
9.82232e-06
1.09099e-05
-9.37561e-06
9.8619e-06
1.04215e-05
-9.41544e-06
9.90389e-06
9.93071e-06
-9.4577e-06
9.94847e-06
9.43753e-06
-9.50281e-06
9.99599e-06
8.94186e-06
-9.55133e-06
1.0047e-05
8.44359e-06
-9.604e-06
1.01023e-05
7.94256e-06
-9.66172e-06
1.01628e-05
7.4385e-06
-9.72574e-06
1.02298e-05
6.93107e-06
-9.79772e-06
1.03051e-05
6.41976e-06
-9.87996e-06
1.03913e-05
5.90389e-06
-9.9757e-06
1.04916e-05
5.38214e-06
-1.00898e-05
1.06115e-05
4.85382e-06
-1.02285e-05
1.07568e-05
4.31317e-06
-1.04055e-05
1.09461e-05
3.76521e-06
-1.06269e-05
1.11749e-05
3.17875e-06
-1.09609e-05
1.15474e-05
2.59389e-06
-1.1335e-05
1.19199e-05
1.87466e-06
-1.22118e-05
1.2931e-05
1.14187e-06
-1.28323e-05
1.35651e-05
-1.61755e-05
1.73173e-05
1.56937e-05
-8.59547e-06
1.52387e-05
-8.62581e-06
1.47619e-05
-8.65543e-06
1.42812e-05
-8.67866e-06
1.3801e-05
-8.70311e-06
1.33212e-05
-8.7298e-06
1.28419e-05
-8.75904e-06
1.23623e-05
-8.78972e-06
1.18816e-05
-8.82179e-06
1.13991e-05
-8.85547e-06
1.09145e-05
-8.89096e-06
1.04275e-05
-8.9285e-06
9.93825e-06
-8.96843e-06
9.44661e-06
-9.01117e-06
8.95254e-06
-9.05726e-06
8.45587e-06
-9.10733e-06
7.95642e-06
-9.16226e-06
7.45388e-06
-9.2232e-06
6.94786e-06
-9.29171e-06
6.43783e-06
-9.36993e-06
5.92299e-06
-9.46086e-06
5.40211e-06
-9.56888e-06
4.87378e-06
-9.70018e-06
4.33389e-06
-9.86559e-06
3.78268e-06
-1.00757e-05
3.19865e-06
-1.03769e-05
2.60338e-06
-1.07397e-05
1.88972e-06
-1.14981e-05
1.14981e-06
-1.20924e-05
-1.50257e-05
1.56594e-05
-8.13903e-06
1.51931e-05
-8.15958e-06
1.47225e-05
-8.18478e-06
1.42526e-05
-8.20879e-06
1.37817e-05
-8.23225e-06
1.33096e-05
-8.2577e-06
1.28354e-05
-8.28484e-06
1.23589e-05
-8.31315e-06
1.18799e-05
-8.34282e-06
1.13986e-05
-8.37421e-06
1.09152e-05
-8.4075e-06
1.04296e-05
-8.4429e-06
9.94179e-06
-8.48066e-06
9.45176e-06
-8.52114e-06
8.95932e-06
-8.56482e-06
8.46429e-06
-8.6123e-06
7.96643e-06
-8.6644e-06
7.46543e-06
-8.7222e-06
6.96085e-06
-8.78714e-06
6.45211e-06
-8.86119e-06
5.93836e-06
-8.94711e-06
5.41833e-06
-9.04886e-06
4.89029e-06
-9.17214e-06
4.35087e-06
-9.32616e-06
3.79759e-06
-9.52243e-06
3.21499e-06
-9.79428e-06
2.61174e-06
-1.01365e-05
1.90219e-06
-1.07886e-05
1.1531e-06
-1.13433e-05
-1.38726e-05
1.56535e-05
-7.67738e-06
1.51895e-05
-7.69554e-06
1.47215e-05
-7.71672e-06
1.42512e-05
-7.73848e-06
1.37795e-05
-7.76062e-06
1.3306e-05
-7.78422e-06
1.28307e-05
-7.80945e-06
1.23536e-05
-7.83607e-06
1.18749e-05
-7.86411e-06
1.13944e-05
-7.89376e-06
1.09121e-05
-7.92521e-06
1.04278e-05
-7.95862e-06
9.94143e-06
-7.99425e-06
9.45276e-06
-8.03247e-06
8.96167e-06
-8.07372e-06
8.46796e-06
-8.11859e-06
7.97138e-06
-8.16782e-06
7.47158e-06
-8.2224e-06
6.9681e-06
-8.28365e-06
6.4603e-06
-8.35338e-06
5.94725e-06
-8.43406e-06
5.42767e-06
-8.52927e-06
4.89962e-06
-8.6441e-06
4.35996e-06
-8.7865e-06
3.80488e-06
-8.96734e-06
3.22232e-06
-9.21173e-06
2.61235e-06
-9.5265e-06
1.90596e-06
-1.00822e-05
1.14987e-06
-1.05872e-05
-1.27227e-05
1.56393e-05
-7.21313e-06
1.51734e-05
-7.22964e-06
1.4705e-05
-7.24824e-06
1.42349e-05
-7.26838e-06
1.37638e-05
-7.28953e-06
1.32914e-05
-7.31187e-06
1.28175e-05
-7.33556e-06
1.2342e-05
-7.36054e-06
1.18647e-05
-7.38684e-06
1.13856e-05
-7.41464e-06
1.09045e-05
-7.44412e-06
1.04214e-05
-7.47549e-06
9.93613e-06
-7.50899e-06
9.44862e-06
-7.54496e-06
8.95868e-06
-7.58379e-06
8.46611e-06
-7.62602e-06
7.97062e-06
-7.67233e-06
7.47182e-06
-7.72361e-06
6.96922e-06
-7.78105e-06
6.46212e-06
-7.84628e-06
5.94957e-06
-7.92151e-06
5.43018e-06
-8.00988e-06
4.90195e-06
-8.11587e-06
4.36174e-06
-8.24628e-06
3.80509e-06
-8.4107e-06
3.22181e-06
-8.62844e-06
2.60657e-06
-8.91127e-06
1.90249e-06
-9.37812e-06
1.14035e-06
-9.82508e-06
-1.15823e-05
1.56214e-05
-6.7482e-06
1.51553e-05
-6.76353e-06
1.46876e-05
-6.7805e-06
1.42185e-05
-6.79928e-06
1.37482e-05
-6.81924e-06
1.32765e-05
-6.84018e-06
1.28032e-05
-6.86226e-06
1.23282e-05
-6.88556e-06
1.18515e-05
-6.91016e-06
1.13731e-05
-6.9362e-06
1.08928e-05
-6.96384e-06
1.04106e-05
-6.99327e-06
9.92628e-06
-7.02469e-06
9.43974e-06
-7.05842e-06
8.95077e-06
-7.09482e-06
8.45912e-06
-7.13437e-06
7.96448e-06
-7.17769e-06
7.46644e-06
-7.22557e-06
6.96446e-06
-7.27907e-06
6.45781e-06
-7.33963e-06
5.94548e-06
-7.40918e-06
5.42604e-06
-7.49044e-06
4.8974e-06
-7.58723e-06
4.35637e-06
-7.70525e-06
3.79823e-06
-7.85256e-06
3.21373e-06
-8.04395e-06
2.59437e-06
-8.29191e-06
1.89268e-06
-8.67644e-06
1.12585e-06
-9.05825e-06
-1.04565e-05
1.55998e-05
-6.2832e-06
1.51338e-05
-6.29749e-06
1.46664e-05
-6.31315e-06
1.41978e-05
-6.33063e-06
1.37279e-05
-6.34933e-06
1.32566e-05
-6.36891e-06
1.27838e-05
-6.3895e-06
1.23095e-05
-6.41125e-06
1.18336e-05
-6.43425e-06
1.1356e-05
-6.45858e-06
1.08766e-05
-6.4844e-06
1.03952e-05
-6.51188e-06
9.91169e-06
-6.54121e-06
9.42595e-06
-6.57268e-06
8.93774e-06
-6.60661e-06
8.4468e-06
-6.64343e-06
7.9528e-06
-6.68368e-06
7.45529e-06
-6.72806e-06
6.95372e-06
-6.7775e-06
6.4473e-06
-6.83321e-06
5.93498e-06
-6.89687e-06
5.41528e-06
-6.97074e-06
4.88605e-06
-7.058e-06
4.34406e-06
-7.16325e-06
3.78448e-06
-7.29298e-06
3.19859e-06
-7.45806e-06
2.57614e-06
-7.66945e-06
1.87697e-06
-7.97726e-06
1.10707e-06
-8.28836e-06
-9.3494e-06
1.55749e-05
-5.81822e-06
1.5109e-05
-5.83159e-06
1.4642e-05
-5.84611e-06
1.41738e-05
-5.86238e-06
1.37043e-05
-5.87984e-06
1.32335e-05
-5.8981e-06
1.27612e-05
-5.91726e-06
1.22875e-05
-5.9375e-06
1.18121e-05
-5.9589e-06
1.13351e-05
-5.98155e-06
1.08562e-05
-6.00556e-06
1.03755e-05
-6.0311e-06
9.8926e-06
-6.05835e-06
9.40746e-06
-6.08754e-06
8.91982e-06
-6.11897e-06
8.42939e-06
-6.15301e-06
7.93583e-06
-6.19011e-06
7.43865e-06
-6.23089e-06
6.93727e-06
-6.27612e-06
6.43088e-06
-6.32682e-06
5.91838e-06
-6.38437e-06
5.39824e-06
-6.4506e-06
4.86829e-06
-6.52804e-06
4.32525e-06
-6.62022e-06
3.76429e-06
-6.73201e-06
3.17704e-06
-6.87081e-06
2.55242e-06
-7.04483e-06
1.85602e-06
-7.28087e-06
1.08492e-06
-7.51726e-06
-8.26448e-06
1.55471e-05
-5.35332e-06
1.50813e-05
-5.36583e-06
1.46145e-05
-5.37931e-06
1.41466e-05
-5.39442e-06
1.36774e-05
-5.41065e-06
1.32069e-05
-5.42762e-06
1.2735e-05
-5.4454e-06
1.22617e-05
-5.46416e-06
1.17868e-05
-5.484e-06
1.13102e-05
-5.50497e-06
1.08319e-05
-5.5272e-06
1.03516e-05
-5.5508e-06
9.86917e-06
-5.57595e-06
9.38448e-06
-5.60285e-06
8.89724e-06
-5.63174e-06
8.40715e-06
-5.66292e-06
7.91384e-06
-5.6968e-06
7.41681e-06
-5.73387e-06
6.91545e-06
-5.77475e-06
6.40891e-06
-5.82028e-06
5.89607e-06
-5.87153e-06
5.37537e-06
-5.9299e-06
4.8446e-06
-5.99727e-06
4.30051e-06
-6.07613e-06
3.73827e-06
-6.16978e-06
3.14985e-06
-6.28239e-06
2.52392e-06
-6.41889e-06
1.83068e-06
-6.58764e-06
1.0604e-06
-6.74698e-06
-7.20408e-06
1.55167e-05
-4.88844e-06
1.5051e-05
-4.90014e-06
1.45843e-05
-4.91266e-06
1.41166e-05
-4.92666e-06
1.36476e-05
-4.94168e-06
1.31774e-05
-4.95738e-06
1.27058e-05
-4.97381e-06
1.22327e-05
-4.99113e-06
1.17582e-05
-5.00942e-06
1.12819e-05
-5.02874e-06
1.08039e-05
-5.04918e-06
1.0324e-05
-5.07084e-06
9.84187e-06
-5.09387e-06
9.35746e-06
-5.11843e-06
8.87045e-06
-5.14473e-06
8.38054e-06
-5.17301e-06
7.88732e-06
-5.20358e-06
7.39028e-06
-5.23683e-06
6.88878e-06
-5.27325e-06
6.38196e-06
-5.31346e-06
5.86866e-06
-5.35823e-06
5.34732e-06
-5.40855e-06
4.81571e-06
-5.46566e-06
4.2706e-06
-5.53102e-06
3.70726e-06
-5.60643e-06
3.11796e-06
-5.69309e-06