/*--------------------------------*- C++ -*----------------------------------*\
  =========                 |
  \\      /  F ield         | OpenFOAM: The Open Source CFD Toolbox
   \\    /   O peration     | Website:  https://openfoam.org
    \\  /    A nd           | Version:  11
     \\/     M anipulation  |
\*---------------------------------------------------------------------------*/
FoamFile
{
    format      ascii;
    class       surfaceScalarField;
    location    "9.3";
    object      phi;
}
// * * * * * * * * * * * * * * * * * * * * * * * * * * * * * * * * * * * * * //

dimensions      [0 3 -1 0 0 0 0];

internalField   nonuniform List<scalar> 
24840
(
1.92406e-05
7.53875e-09
1.92292e-05
1.14415e-08
1.92181e-05
1.10119e-08
1.92078e-05
1.0374e-08
1.91983e-05
9.4409e-09
1.91903e-05
8.03961e-09
1.91841e-05
6.21608e-09
1.91801e-05
3.95089e-09
1.91789e-05
1.17629e-09
1.91811e-05
-2.20272e-09
1.91872e-05
-6.07419e-09
1.91975e-05
-1.02478e-08
1.92123e-05
-1.48345e-08
1.92323e-05
-1.99709e-08
1.92582e-05
-2.59062e-08
1.9291e-05
-3.281e-08
1.93317e-05
-4.06761e-08
1.93813e-05
-4.96785e-08
1.94415e-05
-6.01081e-08
1.95137e-05
-7.22837e-08
1.96003e-05
-8.65713e-08
1.97037e-05
-1.03385e-07
1.98269e-05
-1.23176e-07
1.99732e-05
-1.46377e-07
2.01467e-05
-1.73444e-07
2.03513e-05
-2.04655e-07
2.05926e-05
-2.41245e-07
2.08712e-05
-2.78611e-07
2.12063e-05
-3.3514e-07
-3.23299e-07
2.15296e-05
1.9252e-05
3.62972e-09
1.92549e-05
8.53881e-09
1.92573e-05
8.69981e-09
1.92595e-05
8.15883e-09
1.92621e-05
6.76671e-09
1.92657e-05
4.46426e-09
1.92706e-05
1.37107e-09
1.92773e-05
-2.77296e-09
1.92863e-05
-7.83169e-09
1.9298e-05
-1.39241e-08
1.9313e-05
-2.10757e-08
1.93321e-05
-2.93716e-08
1.93563e-05
-3.89602e-08
1.93861e-05
-4.98512e-08
1.94221e-05
-6.184e-08
1.94643e-05
-7.50252e-08
1.95135e-05
-8.9918e-08
1.95708e-05
-1.06954e-07
1.96372e-05
-1.26539e-07
1.97142e-05
-1.49229e-07
1.98034e-05
-1.7574e-07
1.99069e-05
-2.0692e-07
2.00274e-05
-2.43718e-07
2.01682e-05
-2.87131e-07
2.03329e-05
-3.38187e-07
2.05259e-05
-3.97656e-07
2.0752e-05
-4.6731e-07
2.10159e-05
-5.42552e-07
2.13251e-05
-6.44315e-07
-6.74018e-07
2.16758e-05
1.92494e-05
2.37199e-09
1.92517e-05
6.21186e-09
1.92534e-05
6.99659e-09
1.92554e-05
6.20742e-09
1.92579e-05
4.27275e-09
1.92613e-05
1.00258e-09
1.92662e-05
-3.47352e-09
1.92729e-05
-9.531e-09
1.92821e-05
-1.70243e-08
1.92942e-05
-2.6032e-08
1.93098e-05
-3.65975e-08
1.93292e-05
-4.87822e-08
1.93529e-05
-6.26713e-08
1.93813e-05
-7.83152e-08
1.94152e-05
-9.57249e-08
1.94553e-05
-1.151e-07
1.95023e-05
-1.36909e-07
1.9557e-05
-1.61716e-07
1.96207e-05
-1.90164e-07
1.96945e-05
-2.23091e-07
1.97803e-05
-2.61547e-07
1.98802e-05
-3.06783e-07
1.99967e-05
-3.60221e-07
2.0133e-05
-4.23397e-07
2.02928e-05
-4.97978e-07
2.04804e-05
-5.85295e-07
2.07011e-05
-6.87958e-07
2.096e-05
-8.01453e-07
2.1264e-05
-9.48372e-07
-1.0321e-06
2.16221e-05
1.92488e-05
1.739e-09
1.92504e-05
4.60855e-09
1.92519e-05
5.50858e-09
1.92535e-05
4.5548e-09
1.92557e-05
2.0524e-09
1.92589e-05
-2.16332e-09
1.92635e-05
-8.11136e-09
1.927e-05
-1.60114e-08
1.92788e-05
-2.58489e-08
1.92905e-05
-3.76587e-08
1.93053e-05
-5.14777e-08
1.93239e-05
-6.73577e-08
1.93466e-05
-8.53749e-08
1.93739e-05
-1.05613e-07
1.94064e-05
-1.2819e-07
1.94447e-05
-1.53384e-07
1.94895e-05
-1.81703e-07
1.95416e-05
-2.13833e-07
1.96021e-05
-2.50645e-07
1.96722e-05
-2.93254e-07
1.97537e-05
-3.4304e-07
1.98486e-05
-4.01648e-07
1.99593e-05
-4.70979e-07
2.00891e-05
-5.53138e-07
2.02416e-05
-6.50466e-07
2.04213e-05
-7.65034e-07
2.06336e-05
-9.00273e-07
2.08849e-05
-1.05275e-06
2.11813e-05
-1.24473e-06
-1.38806e-06
2.15372e-05
1.92485e-05
1.40566e-09
1.92494e-05
3.63421e-09
1.92506e-05
4.32977e-09
1.9252e-05
3.12679e-09
1.92541e-05
1.62594e-11
1.92571e-05
-5.13099e-09
1.92614e-05
-1.24541e-08
1.92675e-05
-2.21213e-08
1.92758e-05
-3.41719e-08
1.92868e-05
-4.86223e-08
1.93008e-05
-6.55018e-08
1.93183e-05
-8.48566e-08
1.93397e-05
-1.0676e-07
1.93654e-05
-1.31321e-07
1.93959e-05
-1.58727e-07
1.94319e-05
-1.89324e-07
1.94739e-05
-2.23685e-07
1.95226e-05
-2.62614e-07
1.95792e-05
-3.07175e-07
1.96447e-05
-3.58735e-07
1.97206e-05
-4.18996e-07
1.9809e-05
-4.90004e-07
1.99121e-05
-5.74153e-07
2.00332e-05
-6.74152e-07
2.01758e-05
-7.93069e-07
2.03446e-05
-9.33859e-07
2.05452e-05
-1.10086e-06
2.07847e-05
-1.2923e-06
2.10695e-05
-1.52949e-06
-1.73476e-06
2.14162e-05
1.92483e-05
1.2204e-09
1.9249e-05
2.98467e-09
1.92499e-05
3.36906e-09
1.92512e-05
1.88778e-09
1.9253e-05
-1.78781e-09
1.92557e-05
-7.85124e-09
1.92597e-05
-1.64756e-08
1.92654e-05
-2.78103e-08
1.92731e-05
-4.19142e-08
1.92833e-05
-5.88082e-08
1.92963e-05
-7.85167e-08
1.93126e-05
-1.0108e-07
1.93324e-05
-1.2657e-07
1.93562e-05
-1.55113e-07
1.93844e-05
-1.86936e-07
1.94175e-05
-2.22437e-07
1.94561e-05
-2.62256e-07
1.95008e-05
-3.0731e-07
1.95524e-05
-3.58836e-07
1.96121e-05
-4.18439e-07
1.96813e-05
-4.88125e-07
1.97616e-05
-5.70327e-07
1.98554e-05
-6.67927e-07
1.99655e-05
-7.84255e-07
2.00955e-05
-9.23151e-07
2.02503e-05
-1.08858e-06
2.04353e-05
-1.28593e-06
2.06586e-05
-1.51553e-06
2.09268e-05
-1.79772e-06
-2.06747e-06
2.12595e-05
1.92482e-05
1.10897e-09
1.92487e-05
2.52794e-09
1.92495e-05
2.61988e-09
1.92505e-05
8.54644e-10
1.92521e-05
-3.37999e-09
1.92545e-05
-1.0314e-08
1.92582e-05
-2.01358e-08
1.92634e-05
-3.29981e-08
1.92704e-05
-4.89745e-08
1.92797e-05
-6.80916e-08
1.92916e-05
-9.03667e-08
1.93063e-05
-1.15831e-07
1.93243e-05
-1.44553e-07
1.93459e-05
-1.76666e-07
1.93714e-05
-2.12423e-07
1.94012e-05
-2.52264e-07
1.94358e-05
-2.96885e-07
1.94758e-05
-3.47299e-07
1.95219e-05
-4.04893e-07
1.95749e-05
-4.71475e-07
1.96361e-05
-5.49329e-07
1.9707e-05
-6.4125e-07
1.97897e-05
-7.50595e-07
1.98867e-05
-8.81315e-07
2.00016e-05
-1.03805e-06
2.01389e-05
-1.22587e-06
2.03044e-05
-1.4514e-06
2.05063e-05
-1.71741e-06
2.07521e-05
-2.04356e-06
-2.37983e-06
2.10645e-05
1.92482e-05
1.04493e-09
1.92485e-05
2.19016e-09
1.92491e-05
2.03538e-09
1.925e-05
1.81129e-12
1.92514e-05
-4.7775e-09
1.92536e-05
-1.25039e-08
1.92568e-05
-2.34033e-08
1.92615e-05
-3.76379e-08
1.92678e-05
-5.5288e-08
1.92761e-05
-7.63813e-08
1.92866e-05
-1.00928e-07
1.92997e-05
-1.28951e-07
1.93157e-05
-1.60507e-07
1.93348e-05
-1.95732e-07
1.93572e-05
-2.34888e-07
1.93834e-05
-2.78438e-07
1.94136e-05
-3.27122e-07
1.94484e-05
-3.82029e-07
1.94881e-05
-4.44663e-07
1.95337e-05
-5.17008e-07
1.95859e-05
-6.01581e-07
1.96462e-05
-7.01502e-07
1.97162e-05
-8.20562e-07
1.97981e-05
-9.63303e-07
1.98953e-05
-1.13517e-06
2.00118e-05
-1.34238e-06
2.01533e-05
-1.5929e-06
2.03282e-05
-1.89237e-06
2.05446e-05
-2.25997e-06
-2.66332e-06
2.08281e-05
1.92482e-05
1.00921e-09
1.92484e-05
1.92334e-09
1.92489e-05
1.59696e-09
1.92496e-05
-7.08066e-10
1.92508e-05
-5.98537e-09
1.92527e-05
-1.44108e-08
1.92555e-05
-2.62541e-08
1.92596e-05
-4.16866e-08
1.92651e-05
-6.07909e-08
1.92723e-05
-8.35926e-08
1.92815e-05
-1.10093e-07
1.92928e-05
-1.403e-07
1.93066e-05
-1.74258e-07
1.93229e-05
-2.12092e-07
1.93421e-05
-2.54061e-07
1.93643e-05
-3.00639e-07
1.93898e-05
-3.52588e-07
1.94188e-05
-4.11048e-07
1.94517e-05
-4.77606e-07
1.94891e-05
-5.54372e-07
1.95316e-05
-6.4405e-07
1.95801e-05
-7.50021e-07
1.9636e-05
-8.76446e-07
1.97011e-05
-1.02839e-06
1.97779e-05
-1.21206e-06
1.98703e-05
-1.43478e-06
1.99834e-05
-1.70596e-06
2.01254e-05
-2.03432e-06
2.03043e-05
-2.43887e-06
-2.90717e-06
2.05481e-05
1.92482e-05
9.83999e-10
1.92484e-05
1.71036e-09
1.92487e-05
1.27699e-09
1.92493e-05
-1.30508e-09
1.92503e-05
-7.00821e-09
1.92519e-05
-1.603e-08
1.92543e-05
-2.86731e-08
1.92578e-05
-4.51165e-08
1.92624e-05
-6.54413e-08
1.92685e-05
-8.96662e-08
1.92762e-05
-1.1778e-07
1.92857e-05
-1.49774e-07
1.92971e-05
-1.85674e-07
1.93106e-05
-2.25585e-07
1.93263e-05
-2.69752e-07
1.93443e-05
-3.18638e-07
1.93647e-05
-3.7301e-07
1.93877e-05
-4.34025e-07
1.94134e-05
-5.03313e-07
1.94421e-05
-5.8306e-07
1.94741e-05
-6.76091e-07
1.951e-05
-7.85966e-07
1.95507e-05
-9.17122e-07
1.95974e-05
-1.07504e-06
1.96519e-05
-1.26656e-06
1.97171e-05
-1.50002e-06
1.97974e-05
-1.78621e-06
1.99e-05
-2.13696e-06
2.00325e-05
-2.57135e-06
-3.09839e-06
2.02237e-05
1.92482e-05
9.58145e-10
1.92483e-05
1.54491e-09
1.92486e-05
1.03447e-09
1.92491e-05
-1.79971e-09
1.92499e-05
-7.85465e-09
1.92512e-05
-1.7364e-08
1.92532e-05
-3.06555e-08
1.9256e-05
-4.79124e-08
1.92598e-05
-6.92111e-08
1.92647e-05
-9.45603e-08
1.92708e-05
-1.23934e-07
1.92784e-05
-1.57302e-07
1.92874e-05
-1.94664e-07
1.92979e-05
-2.361e-07
1.93099e-05
-2.81827e-07
1.93236e-05
-3.32281e-07
1.93388e-05
-3.88207e-07
1.93555e-05
-4.50747e-07
1.93737e-05
-5.21531e-07
1.93934e-05
-6.0276e-07
1.94146e-05
-6.97299e-07
1.94375e-05
-8.08791e-07
1.94622e-05
-9.4182e-07
1.94892e-05
-1.10213e-06
1.95197e-05
-1.29699e-06
1.95552e-05
-1.53554e-06
1.95987e-05
-1.82973e-06
1.9656e-05
-2.19424e-06
1.97329e-05
-2.64831e-06
-3.22243e-06
1.9857e-05
1.92482e-05
9.31668e-10
1.92483e-05
1.41203e-09
1.92485e-05
8.41298e-10
1.92489e-05
-2.20679e-09
1.92496e-05
-8.53587e-09
1.92506e-05
-1.84202e-08
1.92522e-05
-3.22033e-08
1.92543e-05
-5.00694e-08
1.92572e-05
-7.20873e-08
1.92609e-05
-9.82532e-08
1.92655e-05
-1.28523e-07
1.9271e-05
-1.62842e-07
1.92775e-05
-2.01181e-07
1.9285e-05
-2.43582e-07
1.92934e-05
-2.90224e-07
1.93026e-05
-3.41501e-07
1.93125e-05
-3.98109e-07
1.93229e-05
-4.61141e-07
1.93336e-05
-5.32178e-07
1.93442e-05
-6.1337e-07
1.93544e-05
-7.07535e-07
1.93639e-05
-8.18282e-07
1.93723e-05
-9.50188e-07
1.93792e-05
-1.10905e-06
1.93845e-05
-1.30231e-06
1.93885e-05
-1.53956e-06
1.93923e-05
-1.83345e-06
1.9399e-05
-2.20095e-06
1.9412e-05
-2.66129e-06
-3.26437e-06
1.94539e-05
1.92482e-05
9.01668e-10
1.92483e-05
1.30078e-09
1.92484e-05
6.77678e-10
1.92488e-05
-2.54272e-09
1.92493e-05
-9.06648e-09
1.92501e-05
-1.92109e-08
1.92512e-05
-3.33259e-08
1.92527e-05
-5.15932e-08
1.92547e-05
-7.40718e-08
1.92572e-05
-1.00743e-07
1.92602e-05
-1.31542e-07
1.92638e-05
-1.66388e-07
1.92678e-05
-2.05216e-07
1.92723e-05
-2.48027e-07
1.9277e-05
-2.94949e-07
1.92818e-05
-3.46314e-07
1.92864e-05
-4.0275e-07
1.92906e-05
-4.65267e-07
1.92937e-05
-5.35342e-07
1.92954e-05
-6.15011e-07
1.92948e-05
-7.0695e-07
1.92911e-05
-8.14605e-07
1.92833e-05
-9.42368e-07
1.92701e-05
-1.09584e-06
1.92501e-05
-1.28233e-06
1.92219e-05
-1.51136e-06
1.91842e-05
-1.79573e-06
1.91368e-05
-2.15362e-06
1.90793e-05
-2.60378e-06
-3.21097e-06
1.90259e-05
1.92482e-05
8.63027e-10
1.92483e-05
1.20224e-09
1.92484e-05
5.28287e-10
1.92487e-05
-2.82377e-09
1.92491e-05
-9.46359e-09
1.92496e-05
-1.97525e-08
1.92504e-05
-3.40394e-08
1.92513e-05
-5.24994e-08
1.92524e-05
-7.518e-08
1.92537e-05
-1.02046e-07
1.92551e-05
-1.33011e-07
1.92567e-05
-1.67965e-07
1.92583e-05
-2.06805e-07
1.92598e-05
-2.49485e-07
1.92609e-05
-2.96071e-07
1.92614e-05
-3.46823e-07
1.92609e-05
-4.02275e-07
1.9259e-05
-4.63319e-07
1.92549e-05
-5.31289e-07
1.92479e-05
-6.08032e-07
1.9237e-05
-6.95994e-07
1.92207e-05
-7.98321e-07
1.91974e-05
-9.19037e-07
1.91648e-05
-1.06329e-06
1.91203e-05
-1.23784e-06
1.90606e-05
-1.45162e-06
1.89816e-05
-1.71676e-06
1.88793e-05
-2.05128e-06
1.87481e-05
-2.47262e-06
-3.05334e-06
1.85905e-05
1.92482e-05
8.13336e-10
1.92483e-05
1.10567e-09
1.92484e-05
3.78639e-10
1.92487e-05
-3.06563e-09
1.9249e-05
-9.74607e-09
1.92493e-05
-2.00654e-08
1.92496e-05
-3.4366e-08
1.92499e-05
-5.28131e-08
1.92502e-05
-7.54403e-08
1.92503e-05
-1.02196e-07
1.92503e-05
-1.32973e-07
1.92499e-05
-1.67628e-07
1.92492e-05
-2.06021e-07
1.92477e-05
-2.48052e-07
1.92454e-05
-2.93723e-07
1.92418e-05
-3.43207e-07
1.92364e-05
-3.96923e-07
1.92287e-05
-4.55622e-07
1.92179e-05
-5.20448e-07
1.92028e-05
-5.93003e-07
1.91823e-05
-6.75409e-07
1.91543e-05
-7.70392e-07
1.91167e-05
-8.8142e-07
1.90663e-05
-1.01292e-06
1.89992e-05
-1.17072e-06
1.89102e-05
-1.36256e-06
1.87924e-05
-1.59901e-06
1.86375e-05
-1.89635e-06
1.84343e-05
-2.26947e-06
-2.78982e-06
1.81708e-05
1.92482e-05
7.50559e-10
1.92483e-05
1.00109e-09
1.92485e-05
2.13841e-10
1.92487e-05
-3.28412e-09
1.92489e-05
-9.93501e-09
1.9249e-05
-2.01734e-08
1.92489e-05
-3.43336e-08
1.92487e-05
-5.25673e-08
1.92482e-05
-7.48927e-08
1.92472e-05
-1.01243e-07
1.92457e-05
-1.31488e-07
1.92435e-05
-1.65457e-07
1.92405e-05
-2.02968e-07
1.92363e-05
-2.4387e-07
1.92307e-05
-2.88092e-07
1.92232e-05
-3.35713e-07
1.92133e-05
-3.87027e-07
1.92003e-05
-4.42617e-07
1.91832e-05
-5.03403e-07
1.91609e-05
-5.70692e-07
1.91317e-05
-6.46209e-07
1.90935e-05
-7.32148e-07
1.90433e-05
-8.31264e-07
1.89774e-05
-9.47032e-07
1.88907e-05
-1.08396e-06
1.87762e-05
-1.24805e-06
1.86246e-05
-1.44744e-06
1.84232e-05
-1.695e-06
1.81556e-05
-2.00183e-06
-2.42849e-06
1.77943e-05
1.92482e-05
6.74574e-10
1.92483e-05
8.76911e-10
1.92485e-05
1.69459e-11
1.92487e-05
-3.49514e-09
1.92489e-05
-1.00507e-08
1.92488e-05
-2.01005e-08
1.92484e-05
-3.39735e-08
1.92477e-05
-5.18024e-08
1.92464e-05
-7.35873e-08
1.92444e-05
-9.92499e-08
1.92415e-05
-1.2864e-07
1.92376e-05
-1.61558e-07
1.92324e-05
-1.97786e-07
1.92257e-05
-2.37118e-07
1.9217e-05
-2.79412e-07
1.92059e-05
-3.24649e-07
1.91919e-05
-3.7299e-07
1.91741e-05
-4.24835e-07
1.91516e-05
-4.80859e-07
1.91229e-05
-5.42033e-07
1.90863e-05
-6.09632e-07
1.90394e-05
-6.85238e-07
1.89789e-05
-7.70771e-07
1.89005e-05
-8.68561e-07
1.8798e-05
-9.81527e-07
1.86634e-05
-1.11345e-06
1.84853e-05
-1.26931e-06
1.82475e-05
-1.45721e-06
1.79289e-05
-1.68321e-06
-1.98826e-06
1.74886e-05
1.92482e-05
5.84261e-10
1.92484e-05
7.22928e-10
1.92486e-05
-2.2566e-10
1.92488e-05
-3.71516e-09
1.92489e-05
-1.01139e-08
1.92487e-05
-1.98815e-08
1.9248e-05
-3.3326e-08
1.92468e-05
-5.05613e-08
1.92448e-05
-7.15801e-08
1.92418e-05
-9.62898e-08
1.92377e-05
-1.24522e-07
1.92322e-05
-1.56054e-07
1.92251e-05
-1.90631e-07
1.92159e-05
-2.28002e-07
1.92045e-05
-2.67953e-07
1.91902e-05
-3.10369e-07
1.91725e-05
-3.55275e-07
1.91505e-05
-4.02883e-07
1.91233e-05
-4.53612e-07
1.90893e-05
-5.08082e-07
1.90468e-05
-5.67084e-07
1.89931e-05
-6.31545e-07
1.89248e-05
-7.02478e-07
1.88372e-05
-7.80961e-07
1.87238e-05
-8.68146e-07
1.85757e-05
-9.65309e-07
1.83802e-05
-1.07385e-06
1.81191e-05
-1.1961e-06
1.77683e-05
-1.33242e-06
-1.49785e-06
1.72779e-05
1.92482e-05
4.76799e-10
1.92484e-05
5.33081e-10
1.92487e-05
-5.23336e-10
1.9249e-05
-3.96521e-09
1.9249e-05
-1.01585e-08
1.92487e-05
-1.95502e-08
1.92478e-05
-3.24256e-08
1.92461e-05
-4.88917e-08
1.92435e-05
-6.89339e-08
1.92396e-05
-9.24448e-08
1.92343e-05
-1.19242e-07
1.92274e-05
-1.49082e-07
1.92184e-05
-1.81684e-07
1.92072e-05
-2.16751e-07
1.91932e-05
-2.54011e-07
1.91761e-05
-2.93254e-07
1.91552e-05
-3.34377e-07
1.91297e-05
-3.77411e-07
1.90987e-05
-4.22517e-07
1.90605e-05
-4.69965e-07
1.90135e-05
-5.20065e-07
1.89551e-05
-5.73081e-07
1.88817e-05
-6.29113e-07
1.87887e-05
-6.87967e-07
1.86695e-05
-7.48999e-07
1.85152e-05
-8.10911e-07
1.83127e-05
-8.71423e-07
1.80434e-05
-9.26803e-07
1.76827e-05
-9.71644e-07
-9.92685e-07
1.71775e-05
1.92483e-05
3.50232e-10
1.92485e-05
2.94346e-10
1.92489e-05
-8.95327e-10
1.92492e-05
-4.2673e-09
1.92492e-05
-1.02048e-08
1.92488e-05
-1.91319e-08
1.92477e-05
-3.13114e-08
1.92456e-05
-4.68476e-08
1.92424e-05
-6.57181e-08
1.92378e-05
-8.78039e-08
1.92315e-05
-1.12913e-07
1.92232e-05
-1.4079e-07
1.92126e-05
-1.71131e-07
1.91995e-05
-2.03608e-07
1.91834e-05
-2.37894e-07
1.91638e-05
-2.73702e-07
1.91402e-05
-3.1081e-07
1.91119e-05
-3.4908e-07
1.90778e-05
-3.88437e-07
1.90367e-05
-4.2882e-07
1.89867e-05
-4.70086e-07
1.89255e-05
-5.11874e-07
1.88498e-05
-5.53425e-07
1.87552e-05
-5.93352e-07
1.86355e-05
-6.29327e-07
1.84822e-05
-6.57646e-07
1.82834e-05
-6.72625e-07
1.80215e-05
-6.64885e-07
1.76738e-05
-6.23932e-07
-5.10052e-07
1.71912e-05
1.92483e-05
2.01458e-10
1.92486e-05
-1.16605e-11
1.92491e-05
-1.35948e-09
1.92494e-05
-4.64248e-09
1.92495e-05
-1.02727e-08
1.9249e-05
-1.86534e-08
1.92477e-05
-3.00255e-08
1.92454e-05
-4.44844e-08
1.92417e-05
-6.20041e-08
1.92363e-05
-8.24592e-08
1.9229e-05
-1.05654e-07
1.92196e-05
-1.31328e-07
1.92076e-05
-1.59167e-07
1.91928e-05
-1.88818e-07
1.91749e-05
-2.19916e-07
1.91533e-05
-2.52109e-07
1.91275e-05
-2.85078e-07
1.9097e-05
-3.18539e-07
1.90608e-05
-3.52209e-07
1.90177e-05
-3.85738e-07
1.89662e-05
-4.18585e-07
1.89041e-05
-4.49844e-07
1.88287e-05
-4.78008e-07
1.8736e-05
-5.00663e-07
1.86208e-05
-5.14043e-07
1.84755e-05
-5.12413e-07
1.82902e-05
-4.87289e-07
1.805e-05
-4.24679e-07
1.77364e-05
-3.10355e-07
-8.43878e-08
1.73107e-05
1.92483e-05
2.59842e-11
1.92487e-05
-4.07656e-10
1.92493e-05
-1.93184e-09
1.92497e-05
-5.11158e-09
1.92499e-05
-1.03904e-08
1.92494e-05
-1.81472e-08
1.92479e-05
-2.86075e-08
1.92453e-05
-4.18567e-08
1.92412e-05
-5.78627e-08
1.92352e-05
-7.65029e-08
1.92271e-05
-9.75849e-08
1.92167e-05
-1.20851e-07
1.92035e-05
-1.45983e-07
1.91873e-05
-1.72621e-07
1.91677e-05
-2.00376e-07
1.91445e-05
-2.28853e-07
1.91171e-05
-2.57658e-07
1.90849e-05
-2.86391e-07
1.90473e-05
-3.14604e-07
1.90033e-05
-3.41712e-07
1.89516e-05
-3.66854e-07
1.88904e-05
-3.88695e-07
1.88175e-05
-4.05141e-07
1.87299e-05
-4.12983e-07
1.86232e-05
-4.07374e-07
1.84919e-05
-3.81076e-07
1.83282e-05
-3.2363e-07
1.81214e-05
-2.17921e-07
1.78587e-05
-4.76658e-08
2.5955e-07
1.75148e-05
1.92483e-05
-1.7809e-10
1.92489e-05
-9.29888e-10
1.92496e-05
-2.63638e-09
1.92502e-05
-5.69987e-09
1.92503e-05
-1.05792e-08
1.92498e-05
-1.76434e-08
1.92483e-05
-2.70989e-08
1.92455e-05
-3.90164e-08
1.9241e-05
-5.33636e-08
1.92345e-05
-7.00266e-08
1.92257e-05
-8.88232e-08
1.92144e-05
-1.09506e-07
1.92002e-05
-1.31767e-07
1.91828e-05
-1.5525e-07
1.9162e-05
-1.79562e-07
1.91374e-05
-2.04286e-07
1.91088e-05
-2.28982e-07
1.90755e-05
-2.53171e-07
1.90372e-05
-2.76288e-07
1.89931e-05
-2.97582e-07
1.89422e-05
-3.15971e-07
1.88833e-05
-3.29821e-07
1.88148e-05
-3.36653e-07
1.87346e-05
-3.32741e-07
1.86398e-05
-3.12577e-07
1.85268e-05
-2.68046e-07
1.83908e-05
-1.87619e-07
1.82255e-05
-5.26858e-08
1.80256e-05
1.52244e-07
5.07297e-07
1.77779e-05
1.92484e-05
-4.24017e-10
1.92491e-05
-1.61694e-09
1.92499e-05
-3.51115e-09
1.92507e-05
-6.43089e-09
1.9251e-05
-1.08643e-08
1.92505e-05
-1.71756e-08
1.92489e-05
-2.55397e-08
1.92459e-05
-3.60134e-08
1.92411e-05
-4.85716e-08
1.92342e-05
-6.31154e-08
1.92249e-05
-7.94783e-08
1.92128e-05
-9.74315e-08
1.91977e-05
-1.16689e-07
1.91794e-05
-1.36914e-07
1.91576e-05
-1.57729e-07
1.9132e-05
-1.78717e-07
1.91024e-05
-1.99423e-07
1.90686e-05
-2.1933e-07
1.90301e-05
-2.37807e-07
1.89865e-05
-2.54014e-07
1.89373e-05
-2.66751e-07
1.88817e-05
-2.74242e-07
1.88189e-05
-2.73831e-07
1.87478e-05
-2.61581e-07
1.86669e-05
-2.31757e-07
1.85749e-05
-1.76032e-07
1.84701e-05
-8.28077e-08
1.83519e-05
6.55293e-08
1.82165e-05
2.87607e-07
6.52944e-07
1.80709e-05
1.92485e-05
-7.46357e-10
1.92494e-05
-2.525e-09
1.92505e-05
-4.60217e-09
1.92514e-05
-7.32767e-09
1.92518e-05
-1.12728e-08
1.92514e-05
-1.67759e-08
1.92498e-05
-2.39693e-08
1.92467e-05
-3.29013e-08
1.92417e-05
-4.35592e-08
1.92344e-05
-5.5862e-08
1.92246e-05
-6.96648e-08
1.92119e-05
-8.47667e-08
1.91962e-05
-1.00915e-07
1.91771e-05
-1.17809e-07
1.91544e-05
-1.35103e-07
1.91281e-05
-1.52408e-07
1.9098e-05
-1.69283e-07
1.90639e-05
-1.85212e-07
1.90256e-05
-1.99556e-07
1.89831e-05
-2.11458e-07
1.8936e-05
-2.19711e-07
1.88843e-05
-2.22551e-07
1.88278e-05
-2.17358e-07
1.87666e-05
-2.00282e-07
1.87006e-05
-1.65783e-07
1.86305e-05
-1.05948e-07
1.8558e-05
-1.02873e-08
1.8485e-05
1.38483e-07
1.8416e-05
3.56637e-07
7.01496e-07
1.83674e-05
1.92486e-05
-1.21748e-09
1.92499e-05
-3.7735e-09
1.92512e-05
-5.94836e-09
1.92523e-05
-8.39875e-09
1.92528e-05
-1.18244e-08
1.92525e-05
-1.64664e-08
1.9251e-05
-2.241e-08
1.92478e-05
-2.97107e-08
1.92426e-05
-3.83725e-08
1.9235e-05
-4.83326e-08
1.92249e-05
-5.94721e-08
1.92117e-05
-7.16259e-08
1.91954e-05
-8.45856e-08
1.91757e-05
-9.81011e-08
1.91524e-05
-1.11878e-07
1.91256e-05
-1.25577e-07
1.90951e-05
-1.38801e-07
1.9061e-05
-1.51073e-07
1.90232e-05
-1.61792e-07
1.89819e-05
-1.7016e-07
1.89373e-05
-1.75073e-07
1.88897e-05
-1.74928e-07
1.88397e-05
-1.67341e-07
1.87882e-05
-1.48805e-07
1.87367e-05
-1.1433e-07
1.86876e-05
-5.6822e-08
1.86457e-05
3.16515e-08
1.86158e-05
1.68395e-07
1.86069e-05
3.65518e-07
6.64247e-07
1.86441e-05
1.92489e-05
-1.99221e-09
1.92507e-05
-5.55495e-09
1.92524e-05
-7.61213e-09
1.92537e-05
-9.70908e-09
1.92544e-05
-1.25805e-08
1.92542e-05
-1.62934e-08
1.92527e-05
-2.09082e-08
1.92495e-05
-2.65005e-08
1.92442e-05
-3.30858e-08
1.92365e-05
-4.0616e-08
1.92261e-05
-4.90033e-08
1.92126e-05
-5.81262e-08
1.91958e-05
-6.78324e-08
1.91756e-05
-7.79361e-08
1.9152e-05
-8.82134e-08
1.91248e-05
-9.83952e-08
1.90941e-05
-1.08156e-07
1.90602e-05
-1.17091e-07
1.9023e-05
-1.24674e-07
1.89831e-05
-1.30221e-07
1.89409e-05
-1.32827e-07
1.88971e-05
-1.31204e-07
1.88532e-05
-1.23396e-07
1.88108e-05
-1.06458e-07
1.87727e-05
-7.62337e-08
1.8743e-05
-2.70266e-08
1.87269e-05
4.77285e-08
1.87344e-05
1.60882e-07
1.87774e-05
3.22519e-07
5.56418e-07
1.88852e-05
1.92496e-05
-3.50211e-09
1.92519e-05
-7.85116e-09
1.92538e-05
-9.50917e-09
1.92555e-05
-1.13451e-08
1.92565e-05
-1.35861e-08
1.92565e-05
-1.62704e-08
1.9255e-05
-1.94811e-08
1.92518e-05
-2.33036e-08
1.92465e-05
-2.77556e-08
1.92387e-05
-3.28016e-08
1.92281e-05
-3.83917e-08
1.92144e-05
-4.44533e-08
1.91975e-05
-5.08962e-08
1.91771e-05
-5.76084e-08
1.91534e-05
-6.44472e-08
1.91262e-05
-7.12287e-08
1.90958e-05
-7.7717e-08
1.90623e-05
-8.36053e-08
1.90261e-05
-8.84943e-08
1.89878e-05
-9.1882e-08
1.89481e-05
-9.31395e-08
1.89082e-05
-9.13754e-08
1.887e-05
-8.51675e-08
1.88358e-05
-7.22793e-08
1.88092e-05
-4.95702e-08
1.8795e-05
-1.28676e-08
1.88008e-05
4.19435e-08
1.88377e-05
1.24021e-07
1.89208e-05
2.39354e-07
3.97147e-07
1.90801e-05
1.92522e-05
-7.54035e-09
1.92556e-05
-1.12494e-08
1.92578e-05
-1.1714e-08
1.92588e-05
-1.23224e-08
1.92588e-05
-1.35987e-08
1.92577e-05
-1.51813e-08
1.92552e-05
-1.70151e-08
1.92511e-05
-1.91555e-08
1.92449e-05
-2.16019e-08
1.92364e-05
-2.43212e-08
1.92253e-05
-2.72791e-08
1.92113e-05
-3.0429e-08
1.91941e-05
-3.37189e-08
1.91736e-05
-3.70903e-08
1.91496e-05
-4.04768e-08
1.91222e-05
-4.3803e-08
1.90915e-05
-4.69764e-08
1.90577e-05
-4.98735e-08
1.90215e-05
-5.23149e-08
1.89837e-05
-5.40284e-08
1.89451e-05
-5.45983e-08
1.89072e-05
-5.34163e-08
1.88717e-05
-4.96467e-08
1.88415e-05
-4.21595e-08
1.88214e-05
-2.94292e-08
1.88178e-05
-9.2108e-09
1.88382e-05
2.14663e-08
1.88938e-05
6.84842e-08
1.89975e-05
1.35649e-07
2.19162e-07
1.91755e-05
1.92406e-05
1.92293e-05
1.92176e-05
1.92053e-05
1.91917e-05
1.91765e-05
1.91595e-05
1.91404e-05
1.91188e-05
1.90944e-05
1.90672e-05
1.90367e-05
1.9003e-05
1.89659e-05
1.89254e-05
1.88816e-05
1.88347e-05
1.87848e-05
1.87325e-05
1.86784e-05
1.86238e-05
1.85704e-05
1.85208e-05
1.84786e-05
1.84492e-05
1.844e-05
1.84614e-05
1.85299e-05
1.86656e-05
1.88847e-05
2.1073e-05
-9.96081e-06
1.04175e-05
2.06176e-05
-1.00593e-05
1.05147e-05
2.0141e-05
-1.01539e-05
1.06306e-05
1.96394e-05
-1.024e-05
1.07416e-05
1.91173e-05
-1.0324e-05
1.08461e-05
1.85789e-05
-1.04085e-05
1.09469e-05
1.80273e-05
-1.04943e-05
1.1046e-05
1.74647e-05
-1.05822e-05
1.11448e-05
1.68926e-05
-1.0673e-05
1.1245e-05
1.6312e-05
-1.07674e-05
1.1348e-05
1.57228e-05
-1.08658e-05
1.14549e-05
1.51248e-05
-1.09684e-05
1.15664e-05
1.45172e-05
-1.10755e-05
1.16831e-05
1.38996e-05
-1.1188e-05
1.18056e-05
1.32711e-05
-1.13065e-05
1.1935e-05
1.26311e-05
-1.14324e-05
1.20724e-05
1.19785e-05
-1.15668e-05
1.22194e-05
1.1312e-05
-1.17115e-05
1.2378e-05
1.06296e-05
-1.18683e-05
1.25506e-05
9.92907e-06
-1.20395e-05
1.274e-05
9.20705e-06
-1.2228e-05
1.295e-05
8.45927e-06
-1.24375e-05
1.31853e-05
7.67989e-06
-1.26724e-05
1.34517e-05
6.86081e-06
-1.29385e-05
1.37575e-05
5.99051e-06
-1.32419e-05
1.41122e-05
5.05243e-06
-1.35929e-05
1.4531e-05
4.02849e-06
-1.39954e-05
1.50193e-05
2.85508e-06
-1.44781e-05
1.56515e-05
1.59117e-06
-1.49486e-05
1.62125e-05
-1.58352e-05
1.74264e-05
2.12025e-05
-9.48742e-06
2.07016e-05
-9.5585e-06
2.01794e-05
-9.63174e-06
1.96436e-05
-9.70424e-06
1.90977e-05
-9.77807e-06
1.85437e-05
-9.8544e-06
1.79828e-05
-9.93342e-06
1.74155e-05
-1.00149e-05
1.68415e-05
-1.0099e-05
1.62602e-05
-1.01861e-05
1.56707e-05
-1.02762e-05
1.50722e-05
-1.03699e-05
1.44642e-05
-1.04675e-05
1.38461e-05
-1.05699e-05
1.32172e-05
-1.06777e-05
1.25768e-05
-1.0792e-05
1.19238e-05
-1.09137e-05
1.12565e-05
-1.10442e-05
1.0573e-05
-1.11847e-05
9.87068e-06
-1.13372e-05
9.14633e-06
-1.15037e-05
8.39551e-06
-1.16867e-05
7.6124e-06
-1.18892e-05
6.78901e-06
-1.21151e-05
5.9145e-06
-1.23674e-05
4.9741e-06
-1.26525e-05
3.94688e-06
-1.29682e-05
2.8006e-06
-1.33318e-05
1.5325e-06
-1.36805e-05
-1.43027e-05
2.1114e-05
-8.97935e-06
2.05944e-05
-9.03885e-06
2.00644e-05
-9.10177e-06
1.95279e-05
-9.16772e-06
1.89858e-05
-9.23596e-06
1.84375e-05
-9.30616e-06
1.78823e-05
-9.37821e-06
1.73196e-05
-9.45215e-06
1.67488e-05
-9.52822e-06
1.61695e-05
-9.60673e-06
1.55813e-05
-9.68803e-06
1.4984e-05
-9.77255e-06
1.43772e-05
-9.86076e-06
1.37605e-05
-9.95318e-06
1.31332e-05
-1.00504e-05
1.24942e-05
-1.0153e-05
1.18423e-05
-1.02618e-05
1.11758e-05
-1.03777e-05
1.04926e-05
-1.05016e-05
9.79018e-06
-1.06348e-05
9.06518e-06
-1.07786e-05
8.31319e-06
-1.09347e-05
7.52849e-06
-1.11045e-05
6.70339e-06
-1.129e-05
5.82777e-06
-1.14918e-05
4.88787e-06
-1.17126e-05
3.86501e-06
-1.19453e-05
2.73574e-06
-1.22026e-05
1.47471e-06
-1.24195e-05
-1.2828e-05
2.10221e-05
-8.46426e-06
2.04997e-05
-8.51642e-06
1.99696e-05
-8.57165e-06
1.94329e-05
-8.63098e-06
1.88896e-05
-8.69268e-06
1.83391e-05
-8.75571e-06
1.77811e-05
-8.82016e-06
1.72153e-05
-8.88639e-06
1.66418e-05
-8.95471e-06
1.60604e-05
-9.02534e-06
1.54709e-05
-9.09852e-06
1.48729e-05
-9.17453e-06
1.42658e-05
-9.25367e-06
1.36489e-05
-9.33629e-06
1.30213e-05
-9.42277e-06
1.23818e-05
-9.51355e-06
1.17292e-05
-9.60916e-06
1.10617e-05
-9.71016e-06
1.03773e-05
-9.81717e-06
9.67331e-06
-9.93084e-06
8.9465e-06
-1.00518e-05
8.19257e-06
-1.01808e-05
7.406e-06
-1.0318e-05
6.57965e-06
-1.04636e-05
5.70429e-06
-1.06165e-05
4.76756e-06
-1.07759e-05
3.75394e-06
-1.09317e-05
2.64359e-06
-1.10922e-05
1.40803e-06
-1.11839e-05
-1.142e-05
2.08953e-05
-7.94342e-06
2.03682e-05
-7.98926e-06
1.98342e-05
-8.03766e-06
1.92939e-05
-8.09063e-06
1.87472e-05
-8.14606e-06
1.81941e-05
-8.20253e-06
1.76341e-05
-8.26016e-06
1.70671e-05
-8.31944e-06
1.6493e-05
-8.3806e-06
1.59114e-05
-8.4437e-06
1.53217e-05
-8.50889e-06
1.47236e-05
-8.57634e-06
1.41162e-05
-8.64627e-06
1.34988e-05
-8.71891e-06
1.28705e-05
-8.7945e-06
1.22303e-05
-8.8733e-06
1.15767e-05
-8.95558e-06
1.09081e-05
-9.04159e-06
1.02225e-05
-9.13155e-06
9.51727e-06
-9.2256e-06
8.78919e-06
-9.32376e-06
8.03422e-06
-9.42579e-06
7.24726e-06
-9.53102e-06
6.42179e-06
-9.63816e-06
5.54968e-06
-9.74435e-06
4.62018e-06
-9.84639e-06
3.6207e-06
-9.93223e-06
2.53377e-06
-1.00053e-05
1.33643e-06
-9.98657e-06
-1.00835e-05
2.07341e-05
-7.41807e-06
2.02032e-05
-7.4583e-06
1.96661e-05
-7.50058e-06
1.91231e-05
-7.54764e-06
1.85742e-05
-7.59714e-06
1.8019e-05
-7.64739e-06
1.74574e-05
-7.69849e-06
1.68889e-05
-7.75096e-06
1.63133e-05
-7.80498e-06
1.57301e-05
-7.86056e-06
1.5139e-05
-7.91775e-06
1.45393e-05
-7.97667e-06
1.39304e-05
-8.03743e-06
1.33117e-05
-8.10014e-06
1.2682e-05
-8.16488e-06
1.20405e-05
-8.23171e-06
1.13855e-05
-8.30066e-06
1.07156e-05
-8.37169e-06
1.00287e-05
-8.44467e-06
9.32243e-06
-8.51928e-06
8.59365e-06
-8.59499e-06
7.83871e-06
-8.67084e-06
7.05299e-06
-8.7453e-06
6.23078e-06
-8.81594e-06
5.36509e-06
-8.87866e-06
4.44697e-06
-8.92826e-06
3.46645e-06
-8.95172e-06
2.40878e-06
-8.94762e-06
1.25845e-06
-8.83623e-06
-8.8251e-06
2.05349e-05
-6.88848e-06
2.00002e-05
-6.92361e-06
1.94599e-05
-6.96024e-06
1.89139e-05
-7.00168e-06
1.83622e-05
-7.04546e-06
1.78045e-05
-7.0897e-06
1.72405e-05
-7.13446e-06
1.66699e-05
-7.1803e-06
1.60922e-05
-7.22735e-06
1.55072e-05
-7.27557e-06
1.49144e-05
-7.32492e-06
1.43132e-05
-7.37542e-06
1.37028e-05
-7.42711e-06
1.30827e-05
-7.47996e-06
1.24517e-05
-7.53391e-06
1.18088e-05
-7.58884e-06
1.11527e-05
-7.64458e-06
1.04819e-05
-7.70083e-06
9.79436e-06
-7.75715e-06
9.08792e-06
-7.81284e-06
8.35982e-06
-7.86688e-06
7.60674e-06
-7.91777e-06
6.8247e-06
-7.96326e-06
6.00884e-06
-8.00009e-06
5.15343e-06
-8.02325e-06
4.25131e-06
-8.02614e-06
3.29504e-06
-7.99544e-06
2.27298e-06
-7.92556e-06
1.17755e-06
-7.7408e-06
-7.64755e-06
2.02945e-05
-6.35484e-06
1.97561e-05
-6.38526e-06
1.92125e-05
-6.41665e-06
1.86636e-05
-6.45272e-06
1.81091e-05
-6.49097e-06
1.75488e-05
-6.52939e-06
1.69824e-05
-6.56803e-06
1.64095e-05
-6.60742e-06
1.58298e-05
-6.64766e-06
1.52429e-05
-6.68865e-06
1.46482e-05
-6.73028e-06
1.40453e-05
-6.77249e-06
1.34334e-05
-6.81523e-06
1.28118e-05
-6.85837e-06
1.21796e-05
-6.90171e-06
1.15358e-05
-6.945e-06
1.08791e-05
-6.98786e-06
1.0208e-05
-7.0298e-06
9.52097e-06
-7.07008e-06
8.81586e-06
-7.10772e-06
8.09029e-06
-7.14132e-06
7.34145e-06
-7.16893e-06
6.56601e-06
-7.18781e-06
5.76005e-06
-7.19412e-06
4.91909e-06
-7.1823e-06
4.0378e-06
-7.14485e-06
3.11106e-06
-7.0687e-06
2.13056e-06
-6.94507e-06
1.09556e-06
-6.70579e-06
-6.552e-06
2.00105e-05
-5.81726e-06
1.94686e-05
-5.84336e-06
1.89219e-05
-5.8699e-06
1.837e-05
-5.90081e-06
1.78127e-05
-5.93369e-06
1.72498e-05
-5.96649e-06
1.6681e-05
-5.9992e-06
1.61059e-05
-6.03231e-06
1.55241e-05
-6.06593e-06
1.49353e-05
-6.09988e-06
1.4339e-05
-6.13398e-06
1.37347e-05
-6.16812e-06
1.31216e-05
-6.20217e-06
1.24991e-05
-6.23589e-06
1.18664e-05
-6.26899e-06
1.12225e-05
-6.30108e-06
1.05663e-05
-6.33163e-06
9.89645e-06
-6.35997e-06
9.21152e-06
-6.38516e-06
8.50976e-06
-6.40597e-06
7.78918e-06
-6.42074e-06
7.04746e-06
-6.42722e-06
6.282e-06
-6.42235e-06
5.48981e-06
-6.40194e-06
4.66769e-06
-6.36017e-06
3.812e-06
-6.28917e-06
2.91977e-06
-6.17647e-06
1.98589e-06
-6.01118e-06
1.01477e-06
-5.73468e-06
-5.53723e-06
1.96825e-05
-5.27602e-06
1.91372e-05
-5.29813e-06
1.85876e-05
-5.3202e-06
1.8033e-05
-5.34621e-06
1.74731e-05
-5.37389e-06
1.69079e-05
-5.40126e-06
1.6337e-05
-5.42826e-06
1.576e-05
-5.45535e-06
1.51767e-05
-5.48258e-06
1.45865e-05
-5.50974e-06
1.39892e-05
-5.53661e-06
1.33841e-05
-5.56302e-06
1.27706e-05
-5.58875e-06
1.21483e-05
-5.6135e-06
1.15162e-05
-5.63689e-06
1.08735e-05
-5.65842e-06
1.02193e-05
-5.67745e-06
9.55251e-06
-5.69316e-06
8.87184e-06
-5.70449e-06
8.1759e-06
-5.71003e-06
7.46311e-06
-5.70794e-06
6.73171e-06
-5.69582e-06
5.97979e-06