/*--------------------------------*- C++ -*----------------------------------*\
  =========                 |
  \\      /  F ield         | OpenFOAM: The Open Source CFD Toolbox
   \\    /   O peration     | Website:  https://openfoam.org
    \\  /    A nd           | Version:  11
     \\/     M anipulation  |
\*---------------------------------------------------------------------------*/
FoamFile
{
    format      ascii;
    class       volVectorField;
    location    "9.3";
    object      U;
}
// * * * * * * * * * * * * * * * * * * * * * * * * * * * * * * * * * * * * * //

dimensions      [0 1 -1 0 0 0 0];

internalField   nonuniform List<vector> 
12600
(
(0.412113 0.00010813 0)
(0.411841 0.000183099 0)
(0.411425 0.000192984 0)
(0.410949 0.000195948 0)
(0.410475 0.000200328 0)
(0.410009 0.000203509 0)
(0.409546 0.000205271 0)
(0.409084 0.000206358 0)
(0.408624 0.000206977 0)
(0.408167 0.000207105 0)
(0.407716 0.000206751 0)
(0.407272 0.000205922 0)
(0.406835 0.000204585 0)
(0.406407 0.000202624 0)
(0.405991 0.000199848 0)
(0.405589 0.000196042 0)
(0.405206 0.000191182 0)
(0.404846 0.000185028 0)
(0.404514 0.000176976 0)
(0.404216 0.000166539 0)
(0.403962 0.00015364 0)
(0.403761 0.00013775 0)
(0.40363 0.000119388 0)
(0.403582 9.69847e-05 0)
(0.40364 6.72267e-05 0)
(0.403834 2.10833e-05 0)
(0.404207 -4.39176e-05 0)
(0.404818 -0.000125623 0)
(0.405844 -0.00024881 0)
(0.406155 -0.000822892 0)
(0.412491 0.000154929 0)
(0.412639 0.000283567 0)
(0.412769 0.000265854 0)
(0.412815 0.000259409 0)
(0.412854 0.000263267 0)
(0.412899 0.000263903 0)
(0.412947 0.000261902 0)
(0.412996 0.000258939 0)
(0.413047 0.000255346 0)
(0.413101 0.000251071 0)
(0.41316 0.00024603 0)
(0.413225 0.000240091 0)
(0.413297 0.00023304 0)
(0.413378 0.000224527 0)
(0.413469 0.000214101 0)
(0.413573 0.000201193 0)
(0.413694 0.000185033 0)
(0.413836 0.000164406 0)
(0.414003 0.000140753 0)
(0.414201 0.000112583 0)
(0.414436 7.61725e-05 0)
(0.414719 3.10889e-05 0)
(0.415061 -2.57856e-05 0)
(0.415475 -9.86859e-05 0)
(0.415982 -0.000189172 0)
(0.416594 -0.000302012 0)
(0.417369 -0.000443139 0)
(0.418223 -0.000652027 0)
(0.419468 -0.000898769 0)
(0.419558 -0.00186003 0)
(0.41248 8.3923e-05 0)
(0.412553 0.000152853 0)
(0.412643 0.000161172 0)
(0.412706 0.000165216 0)
(0.412752 0.000172369 0)
(0.412795 0.000175732 0)
(0.412842 0.000174819 0)
(0.412891 0.00017206 0)
(0.412942 0.000167971 0)
(0.412998 0.000162607 0)
(0.413058 0.000155938 0)
(0.413125 0.000147753 0)
(0.413197 0.000137874 0)
(0.413278 0.000125738 0)
(0.413366 0.000110538 0)
(0.413466 9.16407e-05 0)
(0.41358 6.80422e-05 0)
(0.413711 3.87785e-05 0)
(0.413866 2.57258e-06 0)
(0.41405 -4.45139e-05 0)
(0.41427 -0.000103152 0)
(0.414533 -0.000174348 0)
(0.414849 -0.000261809 0)
(0.415232 -0.000370325 0)
(0.415698 -0.000505785 0)
(0.416264 -0.000679182 0)
(0.416959 -0.000899198 0)
(0.417795 -0.00119513 0)
(0.418803 -0.00157064 0)
(0.419935 -0.00192792 0)
(0.412472 5.5691e-05 0)
(0.412522 0.000133923 0)
(0.412594 0.000164376 0)
(0.412653 0.00017649 0)
(0.412697 0.000186551 0)
(0.412739 0.00019317 0)
(0.412783 0.000191856 0)
(0.412831 0.000188204 0)
(0.412881 0.000182505 0)
(0.412935 0.000174965 0)
(0.412994 0.000165669 0)
(0.413059 0.000154525 0)
(0.41313 0.000141182 0)
(0.413208 0.000125018 0)
(0.413294 0.000105184 0)
(0.413392 7.95767e-05 0)
(0.413502 4.68397e-05 0)
(0.41363 6.67207e-06 0)
(0.41378 -4.29861e-05 0)
(0.413958 -0.000104606 0)
(0.41417 -0.00018063 0)
(0.414424 -0.000275168 0)
(0.414728 -0.000392668 0)
(0.415096 -0.000539044 0)
(0.415541 -0.000722526 0)
(0.416084 -0.000954243 0)
(0.416744 -0.00124645 0)
(0.417553 -0.00161359 0)
(0.418516 -0.00207711 0)
(0.419757 -0.00246205 0)
(0.412468 3.99406e-05 0)
(0.412502 0.000103592 0)
(0.412557 0.000132808 0)
(0.412609 0.000142096 0)
(0.412652 0.000147061 0)
(0.412692 0.00014942 0)
(0.412736 0.000147337 0)
(0.412782 0.00014089 0)
(0.412831 0.000131594 0)
(0.412884 0.000120448 0)
(0.412942 0.000107556 0)
(0.413005 9.2498e-05 0)
(0.413074 7.552e-05 0)
(0.413149 5.53935e-05 0)
(0.413233 2.97476e-05 0)
(0.413327 -2.53944e-06 0)
(0.413435 -4.37549e-05 0)
(0.413559 -9.42761e-05 0)
(0.413704 -0.000156466 0)
(0.413874 -0.000233318 0)
(0.414076 -0.000328612 0)
(0.414317 -0.000446781 0)
(0.414606 -0.000592895 0)
(0.414955 -0.000774307 0)
(0.415376 -0.00100096 0)
(0.415889 -0.00128537 0)
(0.41651 -0.00164312 0)
(0.417281 -0.00208543 0)
(0.41819 -0.00264808 0)
(0.419447 -0.00319275 0)
(0.412466 2.9292e-05 0)
(0.412489 8.01101e-05 0)
(0.412533 0.000109461 0)
(0.41258 0.000122473 0)
(0.412622 0.000129871 0)
(0.412661 0.000134167 0)
(0.412703 0.000133236 0)
(0.412748 0.000127342 0)
(0.412796 0.000117973 0)
(0.412848 0.000106108 0)
(0.412904 9.20324e-05 0)
(0.412965 7.55689e-05 0)
(0.413031 5.59328e-05 0)
(0.413105 3.23044e-05 0)
(0.413186 3.38011e-06 0)
(0.413276 -3.27919e-05 0)
(0.413378 -7.91192e-05 0)
(0.413496 -0.000138277 0)
(0.413633 -0.000212052 0)
(0.413794 -0.000303376 0)
(0.413985 -0.000416163 0)
(0.414212 -0.000555339 0)
(0.414483 -0.000727321 0)
(0.414809 -0.000940863 0)
(0.415201 -0.0012075 0)
(0.415678 -0.00154137 0)
(0.416254 -0.00196105 0)
(0.416975 -0.00247896 0)
(0.417821 -0.00314305 0)
(0.419032 -0.00383831 0)
(0.412464 2.19145e-05 0)
(0.412482 6.2341e-05 0)
(0.412518 8.95197e-05 0)
(0.412559 0.000103311 0)
(0.412598 0.000109947 0)
(0.412636 0.000112161 0)
(0.412676 0.0001091 0)
(0.412719 0.000100808 0)
(0.412766 8.85029e-05 0)
(0.412816 7.33195e-05 0)
(0.41287 5.57405e-05 0)
(0.412929 3.56466e-05 0)
(0.412993 1.24529e-05 0)
(0.413063 -1.56205e-05 0)
(0.41314 -5.02628e-05 0)
(0.413226 -9.36818e-05 0)
(0.413323 -0.000148015 0)
(0.413434 -0.00021616 0)
(0.413563 -0.000300777 0)
(0.413714 -0.000405251 0)
(0.413891 -0.000534046 0)
(0.414102 -0.000692879 0)
(0.414352 -0.000889138 0)
(0.414651 -0.00113259 0)
(0.41501 -0.00143612 0)
(0.415446 -0.00181557 0)
(0.415971 -0.00229208 0)
(0.41663 -0.00288279 0)
(0.4174 -0.00363875 0)
(0.418525 -0.00448725 0)
(0.412463 1.6456e-05 0)
(0.412478 4.82279e-05 0)
(0.412507 7.18139e-05 0)
(0.412543 8.50112e-05 0)
(0.41258 9.09852e-05 0)
(0.412616 9.20658e-05 0)
(0.412655 8.80582e-05 0)
(0.412697 7.88608e-05 0)
(0.412742 6.54271e-05 0)
(0.41279 4.8886e-05 0)
(0.412842 2.98061e-05 0)
(0.412899 7.99652e-06 0)
(0.41296 -1.70839e-05 0)
(0.413026 -4.73648e-05 0)
(0.413099 -8.48729e-05 0)
(0.413181 -0.000132133 0)
(0.413272 -0.000191789 0)
(0.413375 -0.000266975 0)
(0.413495 -0.000360772 0)
(0.413634 -0.000476782 0)
(0.413796 -0.000619721 0)
(0.413988 -0.000795773 0)
(0.414215 -0.00101305 0)
(0.414485 -0.00128232 0)
(0.414807 -0.00161779 0)
(0.415196 -0.00203712 0)
(0.415663 -0.00256406 0)
(0.41625 -0.00322085 0)
(0.416932 -0.00406041 0)
(0.417944 -0.00504777 0)
(0.412463 1.21613e-05 0)
(0.412474 3.66632e-05 0)
(0.412499 5.62629e-05 0)
(0.412531 6.81155e-05 0)
(0.412566 7.32686e-05 0)
(0.412601 7.31816e-05 0)
(0.412638 6.78732e-05 0)
(0.412678 5.7255e-05 0)
(0.412721 4.21013e-05 0)
(0.412768 2.35031e-05 0)
(0.412817 2.10137e-06 0)
(0.412871 -2.2294e-05 0)
(0.412929 -5.05361e-05 0)
(0.412992 -8.4098e-05 0)
(0.413061 -0.000125573 0)
(0.413136 -0.000177694 0)
(0.413221 -0.000243346 0)
(0.413316 -0.000325732 0)
(0.413425 -0.000428267 0)
(0.413551 -0.00055489 0)
(0.413697 -0.000710634 0)
(0.413869 -0.000902124 0)
(0.41407 -0.00113813 0)
(0.414308 -0.00143026 0)
(0.41459 -0.00179383 0)
(0.414928 -0.00224809 0)
(0.415331 -0.00281888 0)
(0.415836 -0.00353358 0)
(0.416418 -0.00444497 0)
(0.417294 -0.00555739 0)
(0.412462 8.68813e-06 0)
(0.412472 2.68962e-05 0)
(0.412494 4.25104e-05 0)
(0.412523 5.24768e-05 0)
(0.412555 5.64764e-05 0)
(0.412588 5.51026e-05 0)
(0.412624 4.83862e-05 0)
(0.412662 3.63411e-05 0)
(0.412704 1.96708e-05 0)
(0.412748 -5.73582e-07 0)
(0.412796 -2.37224e-05 0)
(0.412847 -4.98489e-05 0)
(0.412901 -8.00217e-05 0)
(0.41296 -0.000115929 0)
(0.413024 -0.000160164 0)
(0.413094 -0.000215718 0)
(0.413171 -0.000285765 0)
(0.413257 -0.00037369 0)
(0.413355 -0.000483145 0)
(0.413467 -0.000618296 0)
(0.413597 -0.000784394 0)
(0.413746 -0.000988375 0)
(0.41392 -0.00123948 0)
(0.414124 -0.00154995 0)
(0.414362 -0.00193597 0)
(0.414646 -0.00241815 0)
(0.41498 -0.00302412 0)
(0.415396 -0.00378577 0)
(0.415866 -0.00475542 0)
(0.416588 -0.00597185 0)
(0.412462 5.7227e-06 0)
(0.412471 1.84703e-05 0)
(0.41249 3.02032e-05 0)
(0.412516 3.79296e-05 0)
(0.412546 4.05105e-05 0)
(0.412578 3.78067e-05 0)
(0.412612 2.97158e-05 0)
(0.412649 1.63168e-05 0)
(0.412689 -1.73065e-06 0)
(0.412732 -2.34423e-05 0)
(0.412777 -4.81566e-05 0)
(0.412825 -7.59925e-05 0)
(0.412876 -0.000108038 0)
(0.41293 -0.000146148 0)
(0.412989 -0.00019301 0)
(0.413052 -0.000251793 0)
(0.413122 -0.000325862 0)
(0.413199 -0.000418741 0)
(0.413285 -0.000534222 0)
(0.413383 -0.00067664 0)
(0.413493 -0.000851415 0)
(0.41362 -0.0010657 0)
(0.413765 -0.00132903 0)
(0.413933 -0.00165411 0)
(0.414126 -0.00205771 0)
(0.414352 -0.0025614 0)
(0.414613 -0.003194 0)
(0.414934 -0.00399105 0)
(0.415285 -0.00500344 0)
(0.415834 -0.00630144 0)
(0.412462 3.14362e-06 0)
(0.41247 1.09959e-05 0)
(0.412487 1.90085e-05 0)
(0.412511 2.43174e-05 0)
(0.412539 2.52862e-05 0)
(0.41257 2.12153e-05 0)
(0.412603 1.17983e-05 0)
(0.412639 -2.87824e-06 0)
(0.412677 -2.21772e-05 0)
(0.412717 -4.51677e-05 0)
(0.41276 -7.12131e-05 0)
(0.412804 -0.000100448 0)
(0.412852 -0.000133977 0)
(0.412902 -0.00017379 0)
(0.412955 -0.000222663 0)
(0.413012 -0.000283881 0)
(0.413073 -0.000360952 0)
(0.413141 -0.000457518 0)
(0.413215 -0.000577469 0)
(0.413297 -0.000725236 0)
(0.413389 -0.000906327 0)
(0.413492 -0.00112798 0)
(0.413608 -0.00139991 0)
(0.413738 -0.00173497 0)
(0.413885 -0.00215026 0)
(0.414052 -0.00266783 0)
(0.414237 -0.00331711 0)
(0.414458 -0.0041361 0)
(0.414683 -0.00517383 0)
(0.415047 -0.00652615 0)
(0.412462 6.9321e-07 0)
(0.412469 4.33929e-06 0)
(0.412484 8.69876e-06 0)
(0.412507 1.14646e-05 0)
(0.412534 1.07064e-05 0)
(0.412564 5.2597e-06 0)
(0.412596 -5.40953e-06 0)
(0.41263 -2.12534e-05 0)
(0.412666 -4.16476e-05 0)
(0.412704 -6.56976e-05 0)
(0.412744 -9.27972e-05 0)
(0.412786 -0.000123106 0)
(0.412829 -0.000157768 0)
(0.412875 -0.000198859 0)
(0.412923 -0.000249234 0)
(0.412973 -0.000312259 0)
(0.413026 -0.000391534 0)
(0.413083 -0.000490772 0)
(0.413145 -0.000613906 0)
(0.413212 -0.000765394 0)
(0.413284 -0.000950747 0)
(0.413363 -0.00117719 0)
(0.413449 -0.0014544 0)
(0.413542 -0.00179523 0)
(0.413641 -0.00221668 0)
(0.413747 -0.00274082 0)
(0.413856 -0.00339693 0)
(0.413975 -0.00422421 0)
(0.414073 -0.00526895 0)
(0.414242 -0.0066461 0)
(0.412462 -1.52207e-06 0)
(0.412468 -1.92482e-06 0)
(0.412483 -9.67197e-07 0)
(0.412505 -7.69368e-07 0)
(0.412531 -3.34322e-06 0)
(0.412559 -1.01559e-05 0)
(0.41259 -2.19726e-05 0)
(0.412623 -3.88266e-05 0)
(0.412658 -6.01211e-05 0)
(0.412694 -8.49966e-05 0)
(0.412731 -0.00011288 0)
(0.412769 -0.000143957 0)
(0.412809 -0.000179398 0)
(0.41285 -0.000221333 0)
(0.412892 -0.000272665 0)
(0.412935 -0.000336806 0)
(0.41298 -0.000417399 0)
(0.413027 -0.00051818 0)
(0.413076 -0.000643077 0)
(0.413127 -0.000796509 0)
(0.41318 -0.000983911 0)
(0.413235 -0.00121238 0)
(0.41329 -0.00149139 0)
(0.413346 -0.00183351 0)
(0.413398 -0.00225536 0)
(0.413444 -0.00277845 0)
(0.413477 -0.00343116 0)
(0.413495 -0.00425245 0)
(0.413466 -0.00528505 0)
(0.413437 -0.00665492 0)
(0.412461 -3.55096e-06 0)
(0.412468 -7.82711e-06 0)
(0.412482 -1.02331e-05 0)
(0.412503 -1.2596e-05 0)
(0.412528 -1.6973e-05 0)
(0.412556 -2.50879e-05 0)
(0.412586 -3.79386e-05 0)
(0.412618 -5.56516e-05 0)
(0.412651 -7.765e-05 0)
(0.412685 -0.000103101 0)
(0.412719 -0.000131472 0)
(0.412754 -0.000162984 0)
(0.41279 -0.000198828 0)
(0.412826 -0.000241157 0)
(0.412862 -0.000292893 0)
(0.412899 -0.000357457 0)
(0.412936 -0.000438491 0)
(0.412972 -0.000539714 0)
(0.413008 -0.000664996 0)
(0.413044 -0.000818661 0)
(0.413077 -0.00100598 0)
(0.413108 -0.00123382 0)
(0.413134 -0.00151131 0)
(0.413153 -0.00185049 0)
(0.413159 -0.00226724 0)
(0.413147 -0.00278201 0)
(0.413105 -0.00342151 0)
(0.413025 -0.00422294 0)
(0.412873 -0.00522456 0)
(0.412652 -0.00655448 0)
(0.412461 -5.52421e-06 0)
(0.412468 -1.35775e-05 0)
(0.412482 -1.92636e-05 0)
(0.412502 -2.4142e-05 0)
(0.412527 -3.02735e-05 0)
(0.412554 -3.96164e-05 0)
(0.412584 -5.3385e-05 0)
(0.412614 -7.17854e-05 0)
(0.412645 -9.42584e-05 0)
(0.412677 -0.000120011 0)
(0.412709 -0.000148568 0)
(0.412741 -0.000180183 0)
(0.412773 -0.000216054 0)
(0.412805 -0.000258329 0)
(0.412835 -0.000309918 0)
(0.412865 -0.000374216 0)
(0.412893 -0.000454825 0)
(0.412919 -0.000555402 0)
(0.412943 -0.000679714 0)
(0.412963 -0.000831929 0)
(0.412978 -0.00101709 0)
(0.412985 -0.00124173 0)
(0.412982 -0.00151446 0)
(0.412965 -0.00184664 0)
(0.412927 -0.00225303 0)
(0.412859 -0.00275258 0)
(0.412747 -0.00336957 0)
(0.412574 -0.00413798 0)
(0.412308 -0.00509071 0)
(0.411905 -0.00634877 0)
(0.412461 -7.47345e-06 0)
(0.412468 -1.928e-05 0)
(0.412482 -2.82107e-05 0)
(0.412502 -3.55572e-05 0)
(0.412527 -4.33899e-05 0)
(0.412554 -5.38769e-05 0)
(0.412583 -6.842e-05 0)
(0.412612 -8.73008e-05 0)
(0.412642 -0.000109994 0)
(0.412672 -0.000135763 0)
(0.412702 -0.000164194 0)
(0.41273 -0.00019557 0)
(0.412758 -0.000231086 0)
(0.412785 -0.000272861 0)
(0.41281 -0.000323765 0)
(0.412833 -0.000387128 0)
(0.412853 -0.000466472 0)
(0.41287 -0.000565344 0)
(0.412881 -0.000687367 0)
(0.412886 -0.000836505 0)
(0.412882 -0.00101752 0)
(0.412867 -0.0012365 0)
(0.412836 -0.00150147 0)
(0.412784 -0.00182286 0)
(0.412704 -0.00221411 0)
(0.412584 -0.00269218 0)
(0.412408 -0.00327834 0)
(0.41215 -0.00400199 0)
(0.41178 -0.00488988 0)
(0.411216 -0.0060471 0)
(0.412461 -9.44942e-06 0)
(0.412468 -2.50806e-05 0)
(0.412482 -3.72837e-05 0)
(0.412503 -4.70375e-05 0)
(0.412528 -5.64503e-05 0)
(0.412555 -6.79434e-05 0)
(0.412583 -8.30992e-05 0)
(0.412612 -0.000102248 0)
(0.412641 -0.000124899 0)
(0.412669 -0.000150392 0)
(0.412696 -0.000178384 0)
(0.412722 -0.000209185 0)
(0.412746 -0.000243972 0)
(0.412768 -0.000284814 0)
(0.412788 -0.000334507 0)
(0.412804 -0.000396284 0)
(0.412816 -0.000473543 0)
(0.412823 -0.000569689 0)
(0.412822 -0.000688159 0)
(0.412813 -0.000832675 0)
(0.412791 -0.00100765 0)
(0.412754 -0.0012187 0)
(0.412697 -0.00147311 0)
(0.412614 -0.00178028 0)
(0.412495 -0.0021521 0)
(0.412327 -0.00260322 0)
(0.412092 -0.00315141 0)
(0.41176 -0.00382044 0)
(0.411301 -0.00463029 0)
(0.410601 -0.00566253 0)
(0.412462 -1.15206e-05 0)
(0.412468 -3.11584e-05 0)
(0.412484 -4.66827e-05 0)
(0.412505 -5.8737e-05 0)
(0.412531 -6.95724e-05 0)
(0.412558 -8.19231e-05 0)
(0.412586 -9.75177e-05 0)
(0.412614 -0.000116702 0)
(0.412642 -0.000139036 0)
(0.412668 -0.000163956 0)
(0.412693 -0.000191197 0)
(0.412715 -0.000221087 0)
(0.412736 -0.000254772 0)
(0.412754 -0.000294255 0)
(0.412768 -0.000342227 0)
(0.412778 -0.000401792 0)
(0.412783 -0.000476189 0)
(0.41278 -0.000568646 0)
(0.412768 -0.000682385 0)
(0.412745 -0.00082085 0)
(0.412706 -0.000988079 0)
(0.412649 -0.00118914 0)
(0.412568 -0.00143054 0)
(0.412455 -0.00172054 0)
(0.4123 -0.00206932 0)
(0.41209 -0.00248902 0)
(0.411804 -0.00299361 0)
(0.411409 -0.00360056 0)
(0.410877 -0.00432275 0)
(0.410073 -0.00521269 0)
(0.412462 -1.37687e-05 0)
(0.412469 -3.77176e-05 0)
(0.412486 -5.6645e-05 0)
(0.412509 -7.08493e-05 0)
(0.412535 -8.28915e-05 0)
(0.412563 -9.59162e-05 0)
(0.412591 -0.000111757 0)
(0.412618 -0.000130729 0)
(0.412645 -0.000152458 0)
(0.412669 -0.000176512 0)
(0.412692 -0.000202704 0)
(0.412712 -0.000231368 0)
(0.412729 -0.000263602 0)
(0.412743 -0.000301316 0)
(0.412752 -0.000347073 0)
(0.412756 -0.000403808 0)
(0.412753 -0.000474575 0)
(0.412742 -0.000562388 0)
(0.412719 -0.00067023 0)
(0.412683 -0.000801245 0)
(0.412629 -0.000959068 0)
(0.412553 -0.00114819 0)
(0.412449 -0.00137431 0)
(0.412309 -0.00164448 0)
(0.412123 -0.00196714 0)
(0.411875 -0.00235184 0)
(0.411547 -0.00280869 0)
(0.411101 -0.00334859 0)
(0.410513 -0.00397752 0)
(0.40964 -0.00471593 0)
(0.412462 -1.63037e-05 0)
(0.41247 -4.50342e-05 0)
(0.412489 -6.74554e-05 0)
(0.412514 -8.35579e-05 0)
(0.412542 -9.65219e-05 0)
(0.41257 -0.00011003 0)
(0.412598 -0.000125921 0)
(0.412625 -0.000144415 0)
(0.41265 -0.000165231 0)
(0.412674 -0.000188102 0)
(0.412694 -0.000212932 0)
(0.412712 -0.000240058 0)
(0.412725 -0.000270523 0)
(0.412735 -0.000306133 0)
(0.41274 -0.000349288 0)
(0.412738 -0.000402726 0)
(0.412729 -0.000469283 0)
(0.412709 -0.000551739 0)
(0.412677 -0.000652809 0)
(0.412628 -0.000775321 0)
(0.412559 -0.000922495 0)
(0.412466 -0.00109824 0)
(0.412342 -0.0013074 0)
(0.412178 -0.00155584 0)
(0.411964 -0.00185026 0)
(0.411685 -0.00219767 0)
(0.411322 -0.0026045 0)
(0.410838 -0.00307524 0)
(0.410212 -0.00360967 0)
(0.409305 -0.00419633 0)
(0.412462 -1.92857e-05 0)
(0.412472 -5.3484e-05 0)
(0.412494 -7.94454e-05 0)
(0.412522 -9.70391e-05 0)
(0.412551 -0.000110569 0)
(0.41258 -0.000124361 0)
(0.412607 -0.000140103 0)
(0.412634 -0.000157869 0)
(0.412659 -0.000177507 0)
(0.412682 -0.000198914 0)
(0.4127 -0.000222052 0)
(0.412715 -0.000247242 0)
(0.412726 -0.000275468 0)
(0.412732 -0.00030842 0)
(0.412732 -0.000348325 0)
(0.412725 -0.000397692 0)
(0.412709 -0.000459116 0)
(0.412682 -0.000535136 0)
(0.41264 -0.000628193 0)
(0.412581 -0.000740788 0)
(0.412499 -0.000875731 0)
(0.41239 -0.00103635 0)
(0.412248 -0.00122668 0)
(0.412063 -0.00145146 0)
(0.411826 -0.00171576 0)
(0.411521 -0.0020242 0)
(0.41113 -0.00237992 0)
(0.41062 -0.00278175 0)
(0.409973 -0.00322445 0)
(0.409064 -0.00366787 0)
(0.412463 -2.29599e-05 0)
(0.412475 -6.35931e-05 0)
(0.412501 -9.30094e-05 0)
(0.412532 -0.000111489 0)
(0.412563 -0.000125174 0)
(0.412593 -0.000138988 0)
(0.412621 -0.000154253 0)
(0.412648 -0.000170961 0)
(0.412672 -0.000189206 0)
(0.412693 -0.000209073 0)
(0.41271 -0.000230549 0)
(0.412723 -0.000253916 0)
(0.412731 -0.000280071 0)
(0.412734 -0.000310543 0)
(0.41273 -0.000347331 0)
(0.412718 -0.000392704 0)
(0.412697 -0.00044899 0)
(0.412663 -0.000518435 0)
(0.412613 -0.000603191 0)
(0.412543 -0.000705451 0)
(0.41245 -0.000827623 0)
(0.412327 -0.000972458 0)
(0.412168 -0.00114321 0)
(0.411966 -0.00134357 0)
(0.411709 -0.00157709 0)
(0.411383 -0.00184628 0)
(0.410972 -0.00215156 0)
(0.410447 -0.0024871 0)
(0.409792 -0.00284458 0)
(0.408911 -0.00316115 0)
(0.412464 -2.77353e-05 0)
(0.412479 -7.60939e-05 0)
(0.412511 -0.000108506 0)
(0.412547 -0.000127062 0)
(0.41258 -0.000140664 0)
(0.41261 -0.000154365 0)
(0.412639 -0.000168696 0)
(0.412666 -0.000183617 0)
(0.41269 -0.000199582 0)
(0.412709 -0.000216883 0)
(0.412725 -0.000235558 0)
(0.412735 -0.000255889 0)
(0.412741 -0.000278722 0)
(0.412741 -0.000305438 0)
(0.412733 -0.000337819 0)
(0.412717 -0.000377872 0)
(0.412691 -0.000427639 0)
(0.41265 -0.00048906 0)
(0.412593 -0.000563983 0)
(0.412515 -0.000654311 0)
(0.412411 -0.000762092 0)
(0.412276 -0.000889523 0)
(0.412104 -0.00103915 0)
(0.411886 -0.00121378 0)
(0.411613 -0.00141571 0)
(0.411272 -0.0016456 0)
(0.410847 -0.00190183 0)
(0.410315 -0.00217511 0)
(0.409664 -0.00245655 0)
(0.408828 -0.00266876 0)
(0.412465 -3.43591e-05 0)
(0.412487 -9.21068e-05 0)
(0.412526 -0.000126074 0)
(0.412567 -0.0001433 0)
(0.412602 -0.000156745 0)
(0.412633 -0.000170916 0)
(0.412663 -0.000185218 0)
(0.41269 -0.000199553 0)
(0.412714 -0.000214638 0)
(0.412733 -0.000230823 0)
(0.412747 -0.000248137 0)
(0.412756 -0.000266851 0)
(0.412759 -0.000287696 0)
(0.412756 -0.000311845 0)
(0.412746 -0.000340832 0)
(0.412726 -0.000376378 0)
(0.412695 -0.000420245 0)
(0.412649 -0.000474106 0)
(0.412586 -0.000539523 0)
(0.4125 -0.000618102 0)
(0.412387 -0.000711545 0)
(0.412242 -0.000821538 0)
(0.412058 -0.000949989 0)
(0.411828 -0.00109886 0)
(0.411542 -0.00126934 0)
(0.411189 -0.00146065 0)
(0.410756 -0.00166997 0)
(0.410223 -0.0018856 0)
(0.409582 -0.00210152 0)
(0.408802 -0.00223496 0)
(0.412467 -4.42005e-05 0)
(0.412498 -0.000113708 0)
(0.412549 -0.000146835 0)
(0.412596 -0.000159888 0)
(0.412631 -0.000170288 0)
(0.412663 -0.00018147 0)
(0.412693 -0.000192008 0)
(0.412721 -0.000202472 0)
(0.412744 -0.000213721 0)
(0.412763 -0.000226033 0)
(0.412775 -0.000239395 0)
(0.412783 -0.000254106 0)
(0.412784 -0.000270868 0)
(0.412779 -0.000290643 0)
(0.412766 -0.000314632 0)
(0.412743 -0.000344194 0)
(0.412709 -0.000380765 0)
(0.412658 -0.000425656 0)
(0.412589 -0.000480119 0)
(0.412497 -0.00054558 0)
(0.412377 -0.000623379 0)
(0.412223 -0.000714598 0)
(0.41203 -0.000820922 0)
(0.41179 -0.000943956 0)
(0.411495 -0.00108376 0)
(0.411134 -0.00123802 0)
(0.410697 -0.00140333 0)
(0.410167 -0.00156557 0)
(0.409539 -0.00172806 0)
(0.408806 -0.00180444 0)
(0.412472 -5.90293e-05 0)
(0.412518 -0.000142087 0)
(0.412586 -0.000175621 0)
(0.412638 -0.000190764 0)
(0.412675 -0.000204686 0)
(0.412707 -0.000217462 0)
(0.412739 -0.000228123 0)
(0.412767 -0.000238013 0)
(0.41279 -0.000248296 0)
(0.412808 -0.000259232 0)
(0.412819 -0.000270845 0)
(0.412825 -0.000283378 0)
(0.412825 -0.000297385 0)
(0.412818 -0.000313691 0)
(0.412803 -0.000333298 0)
(0.412777 -0.000357262 0)
(0.412739 -0.000386824 0)
(0.412686 -0.000423042 0)
(0.412612 -0.000466682 0)
(0.412515 -0.00051899 0)
(0.412389 -0.000581404 0)
(0.412229 -0.000654033 0)
(0.412028 -0.000737438 0)
(0.411781 -0.000833288 0)
(0.411479 -0.000941804 0)
(0.411114 -0.00105976 0)
(0.410677 -0.00118324 0)
(0.410151 -0.00129412 0)
(0.40954 -0.00140887 0)
(0.408823 -0.00144895 0)
(0.412479 -8.64602e-05 0)
(0.41255 -0.000158724 0)
(0.412634 -0.000169635 0)
(0.412691 -0.000176438 0)
(0.412729 -0.000187078 0)
(0.412763 -0.000196491 0)
(0.412796 -0.000203772 0)
(0.412825 -0.000210526 0)
(0.412848 -0.000217625 0)
(0.412866 -0.000225109 0)
(0.412877 -0.000233304 0)
(0.412882 -0.00024274 0)
(0.412881 -0.000253683 0)
(0.412873 -0.000266568 0)
(0.412856 -0.000281969 0)
(0.412828 -0.00030056 0)
(0.412788 -0.00032296 0)
(0.412731 -0.000349947 0)
(0.412655 -0.000382513 0)
(0.412553 -0.000421299 0)
(0.412422 -0.000466934 0)
(0.412257 -0.000521077 0)
(0.412052 -0.000584662 0)
(0.411799 -0.000656844 0)
(0.411492 -0.000736592 0)
(0.411124 -0.000821094 0)
(0.41069 -0.000906475 0)
(0.410165 -0.000968717 0)
(0.409578 -0.00103395 0)
(0.408775 -0.000964497 0)
(0.41249 -0.000156443 0)
(0.412636 -0.00028791 0)
(0.41276 -0.000271128 0)
(0.412799 -0.000266493 0)
(0.412828 -0.000271886 0)
(0.412859 -0.000276948 0)
(0.412888 -0.000280273 0)
(0.41291 -0.000283375 0)
(0.412926 -0.000286805 0)
(0.412937 -0.000290579 0)
(0.412941 -0.000294835 0)
(0.412939 -0.000299823 0)
(0.41293 -0.000305844 0)
(0.412912 -0.000313233 0)
(0.412883 -0.00032238 0)
(0.412841 -0.000333471 0)
(0.412783 -0.000347919 0)
(0.412706 -0.000365282 0)
(0.412607 -0.000385136 0)
(0.412481 -0.000409821 0)
(0.412322 -0.000441152 0)
(0.412126 -0.000473305 0)
(0.411886 -0.000508748 0)
(0.411596 -0.000553283 0)
(0.411249 -0.000603834 0)
(0.41084 -0.000656873 0)
(0.410364 -0.000708842 0)
(0.409808 -0.000729364 0)
(0.409153 -0.000749965 0)
(0.40766 -0.00023906 0)
(0.412112 -0.000108772 0)
(0.411837 -0.000184131 0)
(0.411414 -0.000194816 0)
(0.41093 -0.000198492 0)
(0.410446 -0.000203796 0)
(0.409966 -0.000207884 0)
(0.409483 -0.000210952 0)
(0.408994 -0.000213849 0)
(0.408498 -0.000216792 0)
(0.407997 -0.000219741 0)
(0.407489 -0.000222697 0)
(0.406974 -0.000225745 0)
(0.406452 -0.000229 0)
(0.405919 -0.000232569 0)
(0.405375 -0.000236562 0)
(0.404818 -0.000241139 0)
(0.404243 -0.000246251 0)
(0.403648 -0.000252194 0)
(0.403028 -0.000259578 0)
(0.402379 -0.000268149 0)
(0.401694 -0.000277611 0)
(0.400966 -0.000289987 0)
(0.400191 -0.000305897 0)
(0.39936 -0.000323313 0)
(0.398466 -0.000341691 0)
(0.397504 -0.000359446 0)
(0.396472 -0.000380444 0)
(0.395399 -0.000367171 0)
(0.394371 -0.000429335 0)
(0.392106 0.000283134 0)
(0.411745 -0.00163003 -1.34463e-18)
(0.416835 -0.00208352 -1.0397e-20)
(0.420394 -0.00236406 1.38998e-18)
(0.422139 -0.00279423 2.79371e-18)
(0.423066 -0.0034171 1.42662e-18)
(0.423709 -0.00420918 -1.41675e-18)
(0.424182 -0.00513581 1.44528e-18)
(0.42455 -0.00618814 0)
(0.424868 -0.00736565 1.46779e-18)
(0.42516 -0.00866716 -6.2273e-21)
(0.425427 -0.0100961 1.03395e-19)
(0.425659 -0.0116641 0)
(0.425845 -0.0133897 -1.74272e-18)
(0.425975 -0.0152974 0)
(0.426045 -0.0174179 0)
(0.426047 -0.0197903 -1.92173e-18)
(0.425973 -0.0224657 -1.84776e-18)
(0.425809 -0.0255117 -3.51533e-22)
(0.425541 -0.0290191 1.84501e-18)
(0.425149 -0.0331122 2.74535e-19)
(0.424607 -0.0379633 -2.55165e-18)
(0.423882 -0.0438287 2.95786e-19)
(0.42293 -0.0510382 -1.54015e-19)
(0.421681 -0.060304 2.3683e-18)
(0.420092 -0.071922 3.29844e-19)
(0.417944 -0.0893858 -1.70793e-19)
(0.415389 -0.108984 0)
(0.411773 -0.15352 -2.5554e-18)
(0.407618 -0.186515 -2.62903e-18)
(0.405438 -0.345275 0)
(0.420918 -0.00201078 1.34891e-18)
(0.422405 -0.00221546 -3.18682e-20)
(0.42314 -0.00269289 2.6088e-20)
(0.423145 -0.00338128 -1.41342e-18)
(0.423224 -0.00421279 -4.52404e-20)
(0.423372 -0.00514762 1.52785e-18)
(0.423612 -0.00617331 1.4268e-18)
(0.423872 -0.00729483 1.94636e-19)
(0.424127 -0.00851836 -9.99562e-20)
(0.424363 -0.00985026 1.63647e-18)
(0.424564 -0.0113025 1.79516e-18)
(0.424713 -0.012893 1.63051e-18)
(0.424804 -0.0146434 1.90297e-18)
(0.424831 -0.0165787 1.73238e-18)
(0.424788 -0.0187303 1.90775e-18)
(0.424664 -0.0211385 4.0518e-18)
(0.424447 -0.0238558 1.91465e-18)
(0.424118 -0.0269518 -2.24819e-18)
(0.423655 -0.0305195 2.33414e-18)
(0.423029 -0.0346859 -1.41789e-19)
(0.422199 -0.0396276 1.47771e-19)
(0.421114 -0.0455998 2.481e-18)
(0.41969 -0.0529557 0)
(0.417832 -0.0623391 -1.67042e-19)
(0.415349 -0.0742793 3.00628e-18)
(0.41202 -0.0915861 0)
(0.40744 -0.112221 3.0818e-18)
(0.400869 -0.154988 -2.90711e-18)
(0.390946 -0.190448 -2.58029e-20)
(0.379917 -0.341709 1.53427e-18)
(0.420611 -0.00209098 -1.05266e-20)
(0.42116 -0.00249381 -1.06829e-20)
(0.421598 -0.00328936 -1.3816e-18)
(0.421914 -0.00420865 -4.48844e-20)
(0.422176 -0.00513987 4.60461e-20)
(0.422509 -0.0060918 -4.70596e-20)
(0.422844 -0.00710601 -1.49429e-18)
(0.423119 -0.00820704 0)
(0.423332 -0.00940772 0)
(0.423493 -0.0107201 0)
(0.423602 -0.0121584 -1.71615e-18)
(0.423655 -0.0137395 -1.00084e-19)
(0.423646 -0.0154828 -1.59286e-18)
(0.423568 -0.0174126 -1.87954e-18)
(0.423411 -0.0195602 -2.06368e-18)
(0.423158 -0.0219666 -2.00889e-18)
(0.422793 -0.0246853 1.50178e-19)
(0.422292 -0.0277863 2.02353e-18)
(0.421625 -0.0313634 -2.1026e-18)
(0.420753 -0.0355442 -1.46856e-19)
(0.419621 -0.0405064 0)
(0.418154 -0.0465022 -5.2861e-18)
(0.41624 -0.0538986 1.67598e-19)
(0.413725 -0.0632771 -2.84705e-18)
(0.41035 -0.0753743 8.16227e-20)
(0.405716 -0.092296 0)
(0.399228 -0.113851 -6.61014e-18)
(0.389478 -0.154079 6.57768e-18)
(0.374152 -0.192949 -3.6125e-18)
(0.353424 -0.334599 -1.701e-18)
(0.420591 -0.00310342 0)
(0.420999 -0.00371173 -1.41899e-18)
(0.421363 -0.00449395 4.63461e-23)
(0.421622 -0.00530462 2.28433e-20)
(0.42184 -0.00612576 0)
(0.422052 -0.00701178 0)
(0.422239 -0.00799987 -1.5762e-18)
(0.42238 -0.00909535 0)
(0.422481 -0.0102974 1.03624e-19)
(0.422543 -0.0116123 -2.13362e-19)
(0.422561 -0.0130522 1.46614e-22)
(0.422522 -0.0146329 -1.69293e-18)
(0.422415 -0.0163741 1.16838e-19)
(0.422229 -0.0183015 1.81996e-18)
(0.421948 -0.0204475 1.25e-19)
(0.421556 -0.0228541 1.95386e-18)
(0.42103 -0.0255748 -2.1419e-18)
(0.420342 -0.0286802 -2.25161e-18)
(0.419454 -0.0322643 0)
(0.418316 -0.0364548 2.30042e-18)
(0.416856 -0.0414289 1.59098e-19)
(0.414978 -0.0474375 2.81644e-18)
(0.412535 -0.0548468 -1.75335e-19)
(0.409325 -0.0642129 2.92776e-18)
(0.404983 -0.0763427 -3.08756e-18)
(0.399029 -0.0929582 0)
(0.390443 -0.114935 3.55228e-18)
(0.377663 -0.152858 -3.61005e-18)
(0.356569 -0.193937 3.68127e-18)
(0.326708 -0.324729 1.01998e-19)
(0.420268 -0.00395513 0)
(0.420526 -0.0045326 1.41384e-18)
(0.420733 -0.00523983 0)
(0.420915 -0.00601905 0)
(0.421077 -0.00686095 0)
(0.421227 -0.0077849 0)
(0.421352 -0.00880106 1.59807e-18)
(0.42144 -0.0099083 5.14004e-20)
(0.421482 -0.0111098 -5.29338e-20)
(0.421475 -0.0124172 0)
(0.42141 -0.0138465 0)
(0.421276 -0.0154155 1.15868e-19)
(0.421062 -0.0171451 -4.30318e-23)
(0.420757 -0.0190613 -2.09892e-18)
(0.420344 -0.0211964 0)
(0.419803 -0.0235921 -2.1232e-18)
(0.419106 -0.0263019 0)
(0.418218 -0.0293958 2.44311e-18)
(0.417094 -0.0329676 -3.01841e-19)
(0.41567 -0.0371438 -2.35127e-18)
(0.41386 -0.0420995 1.33792e-18)
(0.411544 -0.0480817 0)
(0.408539 -0.0554507 0)
(0.404592 -0.0647407 0)
(0.399243 -0.076778 1.69006e-18)
(0.391911 -0.0930228 -1.81102e-18)
(0.381175 -0.115024 0)
(0.365401 -0.150599 -2.08007e-18)
(0.338495 -0.193184 -2.27859e-18)
(0.29987 -0.312002 1.95714e-18)
(0.419798 -0.00470296 6.92136e-19)
(0.419968 -0.0053067 7.31054e-19)
(0.420092 -0.00602424 7.60613e-19)
(0.420223 -0.00681372 7.09007e-19)
(0.420341 -0.00766362 8.4821e-19)
(0.420429 -0.00858291 7.46731e-19)
(0.420478 -0.00958239 8.18456e-19)
(0.420483 -0.0106693 -8.41943e-19)
(0.420437 -0.0118524 5.39937e-20)
(0.420337 -0.0131442 7.82486e-19)
(0.420172 -0.014559 9.226e-19)
(0.419934 -0.0161134 8.94163e-19)
(0.419608 -0.0178274 1.22808e-19)
(0.419179 -0.0197262 -1.023e-18)
(0.418628 -0.0218422 1.32176e-19)
(0.417929 -0.0242165 -2.74739e-19)
(0.41705 -0.0269024 -1.00889e-18)
(0.41595 -0.0299692 -1.20346e-18)
(0.414574 -0.0335091 0)
(0.412848 -0.0376465 -1.64632e-19)
(0.410667 -0.0425527 2.36105e-20)
(0.407887 -0.0484681 1.82042e-19)
(0.404292 -0.0557423 1.37419e-18)
(0.399574 -0.0648873 3.09603e-19)
(0.393184 -0.0767119 -5.48429e-20)
(0.384433 -0.0924993 1.99723e-18)
(0.371525 -0.114137 -1.28117e-19)
(0.352804 -0.147343 2.17835e-18)
(0.320171 -0.190254 2.54958e-18)
(0.27351 -0.2966 -2.25584e-18)
(0.419219 -0.00541353 -7.1124e-19)
(0.419317 -0.00602122 -7.17004e-19)
(0.419365 -0.00672816 -7.58384e-19)
(0.419433 -0.00750377 2.7635e-20)
(0.419489 -0.00834221 -1.55106e-18)
(0.419504 -0.00925114 -8.07175e-19)
(0.419475 -0.0102402 -1.76867e-18)
(0.4194 -0.0113166 1.01614e-19)
(0.419274 -0.0124882 -5.5184e-20)
(0.419087 -0.0137656 -1.82192e-18)
(0.418829 -0.0151625 7.43332e-21)
(0.418487 -0.0166953 -9.08489e-19)
(0.418046 -0.0183845 9.50128e-19)
(0.417489 -0.0202554 -1.03062e-20)
(0.416792 -0.0223402 1.3611e-19)
(0.415928 -0.0246794 -1.41466e-19)
(0.414858 -0.0273251 1.17547e-18)
(0.413534 -0.030345 1.22935e-18)
(0.411893 -0.0338289 1.6281e-19)