/*--------------------------------*- C++ -*----------------------------------*\
  =========                 |
  \\      /  F ield         | OpenFOAM: The Open Source CFD Toolbox
   \\    /   O peration     | Website:  https://openfoam.org
    \\  /    A nd           | Version:  11
     \\/     M anipulation  |
\*---------------------------------------------------------------------------*/
FoamFile
{
    format      ascii;
    class       volScalarField;
    location    "5.9";
    object      p;
}
// * * * * * * * * * * * * * * * * * * * * * * * * * * * * * * * * * * * * * //

dimensions      [0 2 -2 0 0 0 0];

internalField   nonuniform List<scalar> 
12600
(
0.0900416
0.0899058
0.0898427
0.0898252
0.0898103
0.0897899
0.0897674
0.0897447
0.0897215
0.089697
0.0896704
0.0896411
0.0896087
0.0895722
0.0895308
0.0894833
0.0894281
0.089364
0.089289
0.0892
0.0890937
0.0889663
0.088813
0.0886275
0.0884011
0.0881227
0.0877804
0.0873501
0.0868136
0.086066
0.0899665
0.0898967
0.0898448
0.0898241
0.0898083
0.0897886
0.0897667
0.0897442
0.0897212
0.0896969
0.0896704
0.0896414
0.0896092
0.0895731
0.0895321
0.089485
0.0894305
0.0893671
0.0892929
0.0892051
0.0891004
0.0889749
0.0888235
0.08864
0.0884168
0.0881427
0.0878097
0.0873873
0.0869065
0.0863843
0.0899306
0.0898976
0.0898528
0.089826
0.0898085
0.0897897
0.0897683
0.089746
0.0897232
0.0896991
0.0896729
0.0896442
0.0896124
0.0895768
0.0895366
0.0894905
0.0894372
0.0893752
0.0893022
0.089216
0.0891136
0.0889909
0.0888431
0.0886642
0.0884468
0.0881808
0.0878564
0.0874569
0.0869917
0.0864426
0.0899055
0.0898853
0.08985
0.0898232
0.0898054
0.0897876
0.0897672
0.0897456
0.0897232
0.0896997
0.0896741
0.089646
0.0896149
0.08958
0.0895407
0.089496
0.0894444
0.0893841
0.0893132
0.0892298
0.0891307
0.0890122
0.0888697
0.0886973
0.088488
0.0882327
0.0879212
0.087541
0.0870809
0.0865234
0.0898872
0.0898741
0.0898479
0.0898237
0.0898058
0.0897884
0.0897688
0.0897478
0.0897259
0.0897028
0.0896779
0.0896506
0.0896204
0.0895865
0.0895483
0.0895048
0.0894549
0.0893968
0.0893289
0.0892489
0.0891542
0.089041
0.0889051
0.0887411
0.0885422
0.0883
0.0880044
0.0876435
0.0871973
0.0866561
0.0898736
0.0898645
0.0898446
0.089823
0.0898049
0.0897878
0.0897691
0.0897488
0.0897275
0.089705
0.0896807
0.089654
0.0896249
0.0895925
0.0895558
0.0895141
0.0894664
0.0894112
0.0893467
0.089271
0.0891814
0.0890747
0.0889469
0.0887929
0.0886065
0.0883799
0.088103
0.0877647
0.0873416
0.0868268
0.0898633
0.0898566
0.0898409
0.089822
0.0898046
0.089788
0.0897702
0.0897508
0.0897303
0.0897085
0.0896852
0.0896598
0.0896315
0.0896004
0.0895655
0.089526
0.0894808
0.0894288
0.0893683
0.0892974
0.0892139
0.0891147
0.0889962
0.0888538
0.0886819
0.0884732
0.0882182
0.0879064
0.0875136
0.087035
0.0898555
0.0898502
0.0898375
0.089821
0.0898046
0.0897885
0.0897715
0.0897529
0.0897331
0.0897121
0.0896896
0.0896652
0.0896384
0.0896088
0.0895758
0.0895387
0.0894964
0.089448
0.0893919
0.0893265
0.0892498
0.089159
0.089051
0.0889217
0.088766
0.0885776
0.0883475
0.0880662
0.0877101
0.0872765
0.0898496
0.0898452
0.0898346
0.0898201
0.0898048
0.0897893
0.089773
0.0897553
0.0897363
0.0897162
0.0896947
0.0896715
0.0896462
0.0896184
0.0895876
0.089553
0.089514
0.0894696
0.0894184
0.0893591
0.0892898
0.0892083
0.0891118
0.0889968
0.088859
0.0886928
0.0884904
0.0882435
0.08793
0.0875494
0.0898452
0.0898415
0.0898324
0.0898195
0.0898053
0.0897905
0.0897748
0.0897579
0.0897398
0.0897206
0.0897002
0.0896783
0.0896546
0.0896286
0.0896001
0.0895684
0.0895329
0.0894927
0.0894468
0.0893939
0.0893327
0.0892611
0.089177
0.0890774
0.0889588
0.0888168
0.0886445
0.0884354
0.0881698
0.0878492
0.0898422
0.0898389
0.0898309
0.0898193
0.089806
0.0897919
0.089777
0.0897609
0.0897437
0.0897255
0.0897062
0.0896856
0.0896635
0.0896396
0.0896136
0.0895849
0.089553
0.0895174
0.089477
0.0894311
0.0893783
0.0893173
0.0892463
0.089163
0.0890648
0.0889483
0.0888083
0.0886398
0.0884264
0.088172
0.0898403
0.0898374
0.0898302
0.0898196
0.0898071
0.0897937
0.0897794
0.0897641
0.0897478
0.0897305
0.0897125
0.0896933
0.089673
0.0896512
0.0896277
0.0896021
0.0895742
0.0895432
0.0895087
0.08947
0.0894261
0.089376
0.0893186
0.0892523
0.0891753
0.0890853
0.088979
0.0888534
0.0886957
0.0885124
0.0898394
0.0898367
0.0898301
0.0898203
0.0898085
0.0897957
0.0897821
0.0897675
0.0897521
0.0897359
0.089719
0.0897013
0.0896828
0.0896632
0.0896423
0.08962
0.0895961
0.08957
0.0895415
0.0895102
0.0894754
0.0894366
0.0893931
0.0893442
0.0892889
0.0892262
0.0891546
0.0890732
0.0889735
0.0888646
0.0898394
0.0898369
0.0898307
0.0898215
0.0898103
0.0897981
0.089785
0.0897711
0.0897566
0.0897414
0.0897258
0.0897096
0.0896928
0.0896755
0.0896573
0.0896384
0.0896185
0.0895974
0.0895751
0.0895512
0.0895257
0.0894983
0.0894689
0.0894375
0.0894041
0.0893689
0.0893322
0.0892954
0.0892547
0.0892218
0.0898403
0.0898379
0.089832
0.0898231
0.0898124
0.0898007
0.0897881
0.089775
0.0897612
0.0897471
0.0897327
0.089718
0.0897031
0.0896879
0.0896726
0.089657
0.0896412
0.0896252
0.089609
0.0895927
0.0895764
0.0895604
0.0895452
0.0895312
0.0895195
0.0895115
0.0895093
0.0895166
0.0895342
0.0895768
0.089842
0.0898397
0.0898339
0.0898252
0.0898148
0.0898035
0.0897915
0.0897789
0.089766
0.0897529
0.0897396
0.0897265
0.0897134
0.0897005
0.0896879
0.0896756
0.0896639
0.0896529
0.0896428
0.0896341
0.089627
0.0896223
0.0896209
0.089624
0.0896336
0.0896521
0.0896833
0.0897331
0.089807
0.089922
0.0898445
0.0898422
0.0898364
0.0898278
0.0898176
0.0898065
0.0897949
0.089783
0.0897708
0.0897586
0.0897466
0.0897349
0.0897236
0.089713
0.0897031
0.0896941
0.0896865
0.0896804
0.0896764
0.0896749
0.0896769
0.0896832
0.0896953
0.089715
0.0897449
0.0897888
0.0898517
0.0899415
0.0900681
0.0902501
0.0898479
0.0898455
0.0898396
0.0898308
0.0898205
0.0898097
0.0897985
0.0897871
0.0897756
0.0897644
0.0897535
0.0897432
0.0897337
0.0897252
0.089718
0.0897123
0.0897086
0.0897073
0.0897092
0.0897149
0.0897256
0.0897425
0.0897675
0.089803
0.0898523
0.0899199
0.0900123
0.0901387
0.0903129
0.0905544
0.0898521
0.0898496
0.0898433
0.0898341
0.0898237
0.089813
0.0898022
0.0897912
0.0897804
0.08977
0.0897602
0.0897513
0.0897436
0.0897371
0.0897325
0.0897299
0.08973
0.0897334
0.0897409
0.0897535
0.0897725
0.0897995
0.0898368
0.0898872
0.0899545
0.090044
0.0901631
0.0903222
0.0905376
0.0908293
0.0898572
0.0898544
0.0898475
0.0898378
0.0898271
0.0898164
0.0898059
0.0897953
0.0897851
0.0897754
0.0897667
0.0897592
0.089753
0.0897486
0.0897464
0.0897468
0.0897506
0.0897584
0.0897713
0.0897904
0.0898173
0.0898538
0.0899025
0.0899666
0.0900505
0.0901597
0.0903026
0.0904897
0.0907395
0.0910707
0.0898632
0.0898601
0.0898523
0.0898417
0.0898305
0.0898199
0.0898095
0.0897993
0.0897895
0.0897807
0.0897729
0.0897666
0.089762
0.0897595
0.0897596
0.0897629
0.0897701
0.0897821
0.0898
0.0898252
0.0898594
0.0899047
0.089964
0.0900406
0.0901393
0.0902661
0.0904294
0.09064
0.0909167
0.0912764
0.0898704
0.0898667
0.0898577
0.0898457
0.089834
0.0898233
0.0898131
0.0898031
0.0897938
0.0897856
0.0897788
0.0897736
0.0897705
0.0897697
0.089772
0.0897779
0.0897883
0.0898042
0.0898268
0.0898576
0.0898986
0.089952
0.0900208
0.0901087
0.0902206
0.0903625
0.090543
0.0907723
0.0910688
0.0914463
0.089879
0.0898744
0.0898634
0.0898498
0.0898374
0.0898268
0.0898166
0.0898067
0.0897977
0.0897902
0.0897842
0.0897801
0.0897782
0.0897791
0.0897833
0.0897916
0.0898049
0.0898244
0.0898512
0.0898872
0.0899342
0.0899949
0.0900722
0.0901701
0.0902933
0.0904481
0.0906425
0.0908863
0.0911961
0.091582
0.0898893
0.0898832
0.0898694
0.0898537
0.0898407
0.0898301
0.0898199
0.0898101
0.0898014
0.0897944
0.0897892
0.0897861
0.0897854
0.0897877
0.0897938
0.0898043
0.0898203
0.0898429
0.0898736
0.0899141
0.0899666
0.0900336
0.0901184
0.0902249
0.0903578
0.0905231
0.0907286
0.0909828
0.0913007
0.0916877
0.0899017
0.0898933
0.0898754
0.0898573
0.0898439
0.0898332
0.0898228
0.0898128
0.0898044
0.0897979
0.0897933
0.089791
0.0897913
0.0897949
0.0898026
0.089815
0.0898333
0.0898587
0.0898927
0.0899372
0.0899945
0.0900671
0.0901583
0.0902719
0.0904128
0.0905866
0.0908004
0.0910619
0.0913839
0.0917673
0.0899171
0.0899048
0.0898808
0.0898602
0.0898471
0.0898367
0.089826
0.0898159
0.0898077
0.0898017
0.0897977
0.089796
0.0897972
0.089802
0.0898109
0.089825
0.0898453
0.089873
0.0899099
0.0899578
0.090019
0.0900963
0.0901928
0.0903124
0.0904596
0.0906398
0.0908596
0.0911254
0.0914493
0.0918275
0.089937
0.0899176
0.0898847
0.0898615
0.0898489
0.0898383
0.0898272
0.0898171
0.0898092
0.0898035
0.0898
0.089799
0.089801
0.0898066
0.0898167
0.0898322
0.0898541
0.0898839
0.0899231
0.0899738
0.0900383
0.0901194
0.0902202
0.0903445
0.0904966
0.0906814
0.0909048
0.0911727
0.0914983
0.0918727
0.0899632
0.0899314
0.0898887
0.0898655
0.0898534
0.089842
0.0898302
0.08982
0.0898122
0.0898067
0.0898034
0.0898028
0.0898053
0.0898116
0.0898225
0.089839
0.0898622
0.0898935
0.0899345
0.0899871
0.0900542
0.0901381
0.0902422
0.0903699
0.0905256
0.0907133
0.0909382
0.0912048
0.0915318
0.0919152
0.0899998
0.0899313
0.089882
0.0898646
0.0898543
0.0898421
0.0898299
0.0898199
0.0898125
0.0898072
0.0898043
0.089804
0.089807
0.0898139
0.0898254
0.0898427
0.0898668
0.0898992
0.0899416
0.089996
0.0900648
0.0901507
0.090257
0.0903872
0.0905452
0.0907347
0.0909593
0.091221
0.0915349
0.0919369
0.0900757
0.0899408
0.0898801
0.0898662
0.0898569
0.089844
0.0898314
0.0898214
0.0898139
0.0898087
0.0898058
0.0898057
0.0898088
0.0898159
0.0898278
0.0898454
0.08987
0.089903
0.0899462
0.0900017
0.0900713
0.0901583
0.0902658
0.0903974
0.0905567
0.0907472
0.090971
0.0912285
0.0915031
0.0917574
0.0860068
0.0852291
0.0848266
0.084775
0.0847142
0.0845501
0.0843379
0.0841245
0.0839203
0.0837231
0.083532
0.0833474
0.0831685
0.0829932
0.0828194
0.0826445
0.0824651
0.0822762
0.0820703
0.0818358
0.0815555
0.0811957
0.0807313
0.0799604
0.0791687
0.0764851
0.0759503
0.0627302
0.0665998
-0.00725283
0.0864695
0.0857535
0.0852765
0.0851539
0.0850266
0.0848209
0.0846018
0.0844082
0.0842345
0.0840692
0.0839104
0.0837591
0.0836152
0.0834775
0.0833448
0.0832162
0.0830895
0.0829619
0.0828283
0.0826812
0.0825074
0.0822849
0.0819802
0.0814874
0.0808583
0.0790391
0.0782452
0.068173
0.0704741
0.00772371
0.0860511
0.0856398
0.0853591
0.0852665
0.085163
0.0849968
0.0848248
0.084674
0.0845357
0.0844018
0.0842739
0.0841553
0.0840466
0.0839476
0.0838579
0.0837778
0.0837069
0.0836442
0.0835875
0.0835331
0.0834733
0.0833944
0.0832705
0.0830401
0.0826739
0.0815713
0.080868
0.0735276
0.0748392
0.0229315
0.0860392
0.0858271
0.0856646
0.0855491
0.0854246
0.0852758
0.085132
0.085007
0.0848948
0.0847904
0.0846957
0.084613
0.0845433
0.0844869
0.0844448
0.0844184
0.0844091
0.0844182
0.0844467
0.0844947
0.0845606
0.0846393
0.0847159
0.0847585
0.0847182
0.0842682
0.0838999
0.0789726
0.0798032
0.0380419
0.0861517
0.0860099
0.085896
0.0857846
0.0856711
0.0855579
0.0854541
0.0853636
0.0852839
0.0852136
0.085155
0.0851107
0.0850823
0.0850715
0.0850806
0.0851123
0.0851698
0.0852569
0.0853777
0.085537
0.0857391
0.0859878
0.0862814
0.086611
0.0869409
0.0871073
0.0872666
0.0844708
0.0853566
0.0529255
0.0863329
0.0862384
0.0861688
0.0860808
0.0859879
0.0859034
0.0858307
0.0857697
0.0857202
0.0856834
0.0856616
0.0856575
0.0856731
0.0857113
0.0857754
0.0858698
0.0859995
0.0861708
0.0863914
0.0866705
0.0870191
0.0874503
0.0879758
0.0886087
0.0893385
0.0901101
0.0909263
0.0900417
0.0913798
0.0675327
0.0865672
0.0865085
0.086473
0.0864081
0.0863368
0.0862799
0.0862388
0.0862103
0.0861946
0.0861942
0.0862118
0.0862503
0.0863128
0.0864031
0.086526
0.0866872
0.086894
0.0871554
0.0874825
0.0878894
0.088394
0.0890185
0.089789
0.0907395
0.0918899
0.0932646
0.0948216
0.095658
0.097754
0.0817221
0.0868442
0.0868168
0.086812
0.0867727
0.0867265
0.0866984
0.0866888
0.0866931
0.0867117
0.0867482
0.0868063
0.0868892
0.0870007
0.0871459
0.0873308
0.0875627
0.0878511
0.0882077
0.0886473
0.0891891
0.0898574
0.0906845
0.0917103
0.0929895
0.0945738
0.0965506
0.0988947
0.101285
0.104386
0.0953088
0.0871608
0.0871618
0.0871855
0.0871722
0.087152
0.0871525
0.0871742
0.0872117
0.0872656
0.0873406
0.0874407
0.0875698
0.0877327
0.0879352
0.0881848
0.0884906
0.0888643
0.0893202
0.0898771
0.0905591
0.0913974
0.0924337
0.0937217
0.0953362
0.09736
0.0999335
0.10308
0.106873
0.111154
0.108113
0.0875121
0.0875397
0.0875902
0.087603
0.0876097
0.0876391
0.0876923
0.0877635
0.0878536
0.0879677
0.0881107
0.0882873
0.0885027
0.0887642
0.0890805
0.0894625
0.089924
0.0904822
0.0911595
0.091985
0.0929968
0.0942457
0.0957987
0.0977496
0.100211
0.103368
0.107307
0.11236
0.117923
0.119966
0.0878941
0.0879464
0.0880218
0.0880605
0.0880944
0.0881528
0.0882372
0.0883421
0.0884685
0.0886222
0.0888086
0.0890331
0.0893019
0.0896232
0.0900072
0.0904664
0.0910168
0.0916785
0.0924773
0.0934474
0.094633
0.0960941
0.0979101
0.100192
0.10308
0.106796
0.111497
0.117668
0.124541
0.130719
0.0883005
0.0883756
0.0884738
0.088538
0.088599
0.0886861
0.0888013
0.0889395
0.089102
0.0892949
0.0895245
0.0897966
0.0901186
0.0904994
0.0909507
0.0914868
0.0921255
0.0928897
0.0938088
0.0949213
0.0962778
0.0979461
0.100017
0.102618
0.105913
0.110155
0.115563
0.122712
0.130851
0.140244
0.0887242
0.0888202
0.0889387
0.0890274
0.0891152
0.0892303
0.0893752
0.0895457
0.0897433
0.0899744
0.090246
0.0905645
0.0909382
0.091377
0.0918938
0.0925045
0.0932289
0.0940924
0.0951277
0.0963773
0.0978975
0.0997634
0.102076
0.104976
0.108649
0.11337
0.119416
0.127394
0.136683
0.148395
0.0891565
0.089271
0.0894074
0.0895191
0.0896327
0.0897745
0.0899477
0.0901487
0.0903796
0.090647
0.0909584
0.091321
0.0917436
0.0922374
0.0928162
0.0934974
0.0943027
0.0952597
0.0964039
0.0977818
0.0994544
0.101503
0.104038
0.10721
0.111222
0.116367
0.122965
0.131619
0.141873
0.154973
0.0895878
0.0897182
0.0898696
0.0900025
0.0901404
0.0903069
0.090506
0.090735
0.0909965
0.0912974
0.0916454
0.0920484
0.092516
0.09306
0.0936956
0.0944412
0.0953201
0.096362
0.097605
0.0990987
0.100908
0.10312
0.105851
0.109262
0.113567
0.11907
0.126123
0.135299
0.146287
0.159895
0.0900074
0.0901512
0.0903147
0.0904662
0.090626
0.0908149
0.0910368
0.0912906
0.0915792
0.0919095
0.0922897
0.0927282
0.0932352
0.0938234
0.0945085
0.0953104
0.0962535
0.0973692
0.0986977
0.100291
0.102218
0.104568
0.107465
0.111073
0.115617
0.121406
0.128809
0.138353
0.149837
0.163411
0.0904051
0.0905595
0.0907319
0.090899
0.0910779
0.0912858
0.0915269
0.0918013
0.0921125
0.0924674
0.0928743
0.0933422
0.0938818
0.0945063
0.0952322
0.0960802
0.0970758
0.0982518
0.0996497
0.101324
0.103344
0.105805
0.108831
0.112592
0.117315
0.12331
0.130954
0.140713
0.15247
0.165635
0.090771
0.0909331
0.0911115
0.0912908
0.091485
0.0917081
0.0919641
0.0922543
0.0925827
0.0929564
0.0933836
0.0938737
0.0944377
0.0950895
0.0958459
0.0967283
0.0977629
0.0989834
0.100432
0.102165
0.104253
0.106792
0.109909
0.113772
0.118611
0.124728
0.1325
0.142321
0.154123
0.166372
0.0910969
0.0912639
0.0914451
0.0916328
0.0918383
0.0920721
0.0923381
0.0926387
0.0929785
0.0933643
0.0938046
0.0943088
0.0948883
0.0955571
0.0963326
0.0972363
0.098295
0.0995427
0.101023
0.10279
0.104918
0.107501
0.110666
0.11458
0.119468
0.125621
0.133404
0.143126
0.1547
0.165686
0.0913769
0.091546
0.0917273
0.0919193
0.0921314
0.0923711
0.092642
0.0929473
0.093292
0.0936829
0.0941284
0.094638
0.0952233
0.0958983
0.0966806
0.0975918
0.0986588
0.0999155
0.101405
0.103183
0.105321
0.107913
0.111083
0.114994
0.119865
0.125967
0.133642
0.143093
0.154156
0.163708
0.0916075
0.091776
0.0919546
0.092147
0.0923609
0.0926014
0.0928718
0.0931757
0.0935187
0.0939075
0.0943502
0.0948562
0.0954373
0.0961074
0.096884
0.0977885
0.0988477
0.100095
0.101573
0.103336
0.105455
0.108021
0.111154
0.11501
0.119796
0.125761
0.133213
0.142223
0.15262
0.160345
0.0917897
0.0919551
0.0921284
0.092317
0.092528
0.0927643
0.0930287
0.0933254
0.09366
0.0940392
0.094471
0.0949646
0.0955315
0.0961856
0.096944
0.0978278
0.0988633
0.100083
0.101529
0.103254
0.105325
0.107831
0.110886
0.114638
0.119278
0.125026
0.132151
0.140564
0.150227
0.155461
0.0919255
0.0920854
0.0922509
0.0924322
0.0926356
0.0928629
0.0931164
0.0934003
0.0937204
0.0940834
0.0944966
0.0949693
0.0955126
0.0961402
0.0968687
0.0977186
0.0987153
0.0998906
0.101284
0.102948
0.104945
0.107361
0.110301
0.113903
0.118341
0.123796
0.130506
0.138175
0.147059
0.149253
0.0920227
0.0921748
0.0923299
0.0924999
0.0926913
0.0929048
0.0931421
0.0934075
0.0937069
0.0940467
0.0944341
0.0948779
0.0953889
0.0959802
0.0966678
0.0974717
0.098416
0.0995312
0.100855
0.102437
0.104337
0.106633
0.109425
0.112835
0.11702
0.122115
0.128337
0.135132
0.143214
0.142075
0.092089
0.0922312
0.0923726
0.092528
0.0927047
0.0929022
0.0931203
0.0933631
0.0936366
0.0939475
0.0943026
0.0947101
0.0951805
0.0957264
0.0963631
0.0971094
0.0979886
0.0990294
0.100268
0.101749
0.10353
0.105682
0.108296
0.111479
0.115369
0.120049
0.125731
0.131537
0.138815
0.133911
0.0921408
0.0922708
0.0923909
0.0925237
0.0926801
0.0928573
0.0930523
0.0932688
0.0935128
0.0937906
0.0941084
0.0944742
0.0948978
0.0953913
0.0959693
0.0966495
0.0974538
0.0984088
0.099548
0.100913
0.102558
0.104546
0.106958
0.109886
0.113448
0.117669
0.122776
0.127473
0.134003
0.124643
0.0921929
0.0923081
0.0924026
0.0925154
0.0926554
0.0928106
0.092977
0.093161
0.0933702
0.0936097
0.0938847
0.0942025
0.0945724
0.095006
0.0955172
0.0961226
0.0968427
0.0977023
0.0987322
0.0999709
0.101466
0.103274
0.105467
0.108117
0.111327
0.115052
0.119568
0.123021
0.128896
0.114412
0.0922966
0.092334
0.0923477
0.0924362
0.0925772
0.0927238
0.0928673
0.0930192
0.093192
0.093392
0.093623
0.093891
0.0942046
0.0945748
0.0950147
0.0955406
0.0961703
0.0969253
0.0978342
0.0989337
0.100267
0.101884
0.103844
0.106201
0.109043
0.112241
0.116174
0.118233
0.123599
0.103487
0.0926846
0.0925617
0.0924062
0.092426
0.0925449
0.0926775
0.0927998
0.092918
0.0930486
0.0932014
0.0933815
0.0935939
0.0938457
0.0941467
0.0945094
0.0949509
0.09549
0.0961436
0.0969336
0.0978927
0.0990612
0.100481
0.102203
0.104259
0.106727
0.109371
0.112745
0.11324
0.118249
0.0921234
0.0926423
0.0923268
0.0922081
0.0923142
0.092464
0.0925826
0.0926703
0.0927622
0.0928635
0.0929762
0.0931069
0.0932643
0.0934551
0.0936869
0.0939694
0.0943132
0.0947359
0.095264
0.095919
0.0967253
0.0977161
0.098927
0.1004
0.102142
0.104242
0.106294
0.109204
0.107921
0.112829
0.0804999
0.0699759
0.059179
0.0473201
0.0349303
0.0225688
0.0105578
-0.000802794
-0.0111646
-0.0201328
-0.0272497
-0.0320531
-0.0343619
-0.0346291
-0.0342639
-0.0350575
-0.0375107
-0.0411951
-0.0446054
-0.0462542
-0.0466636
-0.0470042
-0.0475618
-0.0482266
-0.0491165
-0.0503685
-0.0517772
-0.0527019
-0.0529571
-0.0525229
-0.051029
0.107239
0.0996065
0.0910037
0.0822148
0.073192
0.0636425
0.0536803
0.0436132
0.0336503
0.023952
0.014796
0.00678461
-0.000116453
-0.0062433
-0.0126496
-0.0205805
-0.0294806
-0.0378418
-0.0432684
-0.0449831
-0.0451831
-0.0461643
-0.0485478
-0.0522094
-0.0567423
-0.06153
-0.0660257
-0.0697005
-0.071384
-0.0702678
0.103417
0.098224
0.0922725
0.0857865
0.0782783
0.0697514
0.0605169
0.0507596
0.0408288
0.031341
0.0226142
0.0146736
0.00746775
0.000765293
-0.00627049
-0.0144748
-0.0228917
-0.0294105
-0.0340069
-0.0375096
-0.0406821
-0.0455808
-0.052226
-0.0593688
-0.0669869
-0.0740781
-0.078658
-0.078886
-0.0757548
-0.0687023
0.106374
0.103113
0.0990661
0.0940038
0.087963
0.081013
0.0731728
0.0645443
0.0553682
0.0459479
0.0365447
0.0274562
0.0189299
0.0109451
0.00328511
-0.00419329
-0.0108552
-0.016247
-0.0214164
-0.0270878
-0.0323921
-0.0384288
-0.0457049
-0.0522818
-0.0565781
-0.0566251
-0.0506935
-0.039173
-0.0256818
-0.0106567
0.104035
0.101827
0.0990204
0.095393
0.0909022
0.0854617
0.0790706
0.0717448
0.0635668
0.0547535
0.0456319
0.0365573
0.0278378
0.0196337
0.0119811
0.00488264
-0.0014873
-0.00704681
-0.0121117
-0.0165504
-0.0201019
-0.0233328
-0.0258817
-0.0255296
-0.0203325
-0.00980308
0.00467957
0.022809
0.0420181
0.0594936
0.102541
0.101111
0.0992037
0.0964767
0.0928437
0.088314
0.0828476
0.0763964
0.0689907
0.0607916
0.0520848
0.0432201
0.0345441
0.0263248
0.0187152
0.0117905
0.0056841
0.000576339
-0.00345576
-0.00625555
-0.00768347
-0.00747595
-0.00460941
0.00226381
0.0135499
0.0282963
0.0457658
0.064555
0.0832635
0.0974393
0.100772
0.0998001
0.0984597
0.0963926
0.0935282
0.0898487
0.0852687
0.0796935
0.0731035
0.0655996
0.0574089
0.0488591
0.0403273
0.0321638
0.0246351
0.0179351
0.0122765
0.00790659
0.00500849
0.00379751
0.00463903
0.00810192
0.0148841
0.0253336
0.0390243
0.0548559
0.0717066
0.088551
0.103491
0.111911
0.0992873
0.0986332
0.0976949
0.0961139
0.0938102
0.0907557
0.0868588
0.0820007
0.0761217
0.0692714
0.0616247
0.0534776
0.0452137
0.037237
0.0299054
0.0235174
0.0183612
0.014736
0.0129192
0.013242
0.0161401
0.0220512
0.0312047
0.0433331
0.0575924
0.0728465
0.0876571
0.100934
0.111263
0.114373
0.0980025
0.0975494
0.0968723
0.095632
0.09375
0.0911958
0.0878611
0.0836079
0.0783469
0.0720889
0.0649677
0.0572488
0.0493125
0.0415975
0.0345315
0.0284972
0.0238547
0.0209655
0.0201861
0.0218912
0.0264432
0.0340395
0.0445203
0.0572251
0.0710326
0.0845009
0.096409
0.105727
0.111555
0.110295
0.0969376
0.096618
0.0961197
0.0951285
0.0935686
0.091401
0.0885152
0.0847637
0.0800358
0.0743099
0.0676832
0.0603905
0.0528025
0.0453814
0.0386107
0.032946
0.0288159
0.0266374
0.0268039
0.0296633
0.0354446
0.0440973
0.0551369
0.0675899
0.0801277
0.0913622
0.10016
0.105606
0.1073
0.10312
0.0960617
0.0958286
0.0954492
0.094637
0.0933197
0.0914549
0.0889321
0.0855991
0.0813301
0.076078
0.0699084
0.0630275
0.0557926
0.0486806
0.0422192
0.0369265
0.03329
0.031765
0.0327461
0.0365225
0.0431541
0.0523335
0.0633356
0.0749645
0.0858104
0.0945823
0.100228
0.102128
0.0996866
0.093561
0.09535
0.0951736
0.0948736
0.0941918
0.0930598
0.0914325
0.0892025
0.0862159
0.0823379
0.0775021
0.0717475
0.0652544
0.058365
0.051564
0.0454138
0.0404831
0.037307
0.0363605
0.0380245
0.0424772
0.0496234
0.0589503
0.069485
0.0799204
0.0888585
0.0951329
0.0979007
0.0969662
0.0920045
0.0840269
0.0947778
0.0946387
0.0943909
0.0938043
0.0928137
0.0913735
0.0893794
0.0866802
0.0831354
0.0786639
0.0732831
0.0671496
0.0605903
0.0540928
0.0482456
0.0436583
0.0409018
0.0404562
0.042676
0.0475969
0.0549879
0.0641627
0.0739463
0.0829859
0.0899698
0.0939148
0.0942682
0.0911412
0.0845019
0.0759856
0.0943223
0.0942072
0.0939947
0.093479
0.092597
0.0913046
0.0895013
0.0870403
0.0837787
0.0796246
0.0745776
0.0687737
0.0625244
0.0563168
0.0507587
0.0464914
0.0441108
0.0440922
0.0467528
0.0519634
0.0594056
0.0681961
0.0770477
0.0846224
0.0897423
0.0916431
0.0900798
0.0854103
0.0780079
0.0697968
0.0939569
0.0938591
0.0936752
0.0932141
0.0924163
0.0912416
0.0895935
0.0873302
0.0843088
0.08043
0.0756792
0.0701743
0.0642121
0.0582768
0.05299
0.0490169
0.046969
0.047307
0.0502788
0.0556831
0.0630075
0.0712569
0.0790924
0.0852298
0.0886581
0.0888584
0.0858929
0.0803445
0.0730498
0.0657342
0.0936599
0.0935804
0.0934218
0.0930048
0.0922742
0.0911943
0.0896734
0.0875743
0.0847564
0.0811156
0.0766259
0.0713898
0.0656902
0.0600071
0.0549711
0.0512655
0.0495091
0.0501441
0.053313
0.058828
0.0659258
0.0735369
0.0803374
0.085127
0.0870861
0.0859577
0.0820923
0.0762951
0.0698054
0.0638188
0.0934199
0.0933593
0.0932238
0.0928446
0.09217
0.091168
0.0897522
0.0877905
0.0851449
0.081709
0.077448
0.0724514
0.0669893
0.0615362
0.0567293
0.0532643
0.051762
0.0526384
0.055957
0.0614662
0.06826
0.0751866
0.0809883
0.084562
0.0853035
0.0832202
0.0789295
0.0734418
0.0680163
0.0636723
0.0932276
0.0931847
0.0930709
0.0927264
0.0921011
0.0911652
0.0898367
0.0879913
0.085492
0.0822321
0.0781701
0.0733846
0.0681344
0.0628885
0.0582879
0.0550373
0.0537552
0.0548264
0.0582518
0.0636728
0.0701019
0.0763535
0.0812196
0.0837321
0.0835125
0.0808166
0.0764812
0.0716087
0.0674389
0.0647326
0.0930736
0.0930472
0.0929544
0.0926431
0.0920636
0.0911865
0.0899335
0.0881856
0.085811
0.082702
0.0788121
0.0742107
0.069147
0.0640846
0.0596671
0.0566056
0.0555129
0.0567381
0.0602324
0.0655108
0.0715548
0.0771613
0.0811709
0.0827849
0.0818456
0.0788275
0.0747246
0.0706371
0.0677277
0.0663918
0.0929506
0.092939
0.0928668
0.0925882
0.0920532
0.0912304
0.090044
0.0883804
0.0861126
0.0831329
0.0793905
0.0749475
0.0700452
0.0651419
0.0608839
0.0579875
0.0570574
0.0584047
0.0619346
0.0670422
0.0727085
0.0777013
0.0809472
0.0818254
0.0803841
0.0772771
0.0735726
0.0703172
0.0685804
0.0682891
0.0928522
0.0928533
0.0928008
0.0925555
0.0920658
0.0912953
0.0901692
0.0885801
0.086405
0.0835361
0.0799193
0.0756104
0.0708443
0.0660756
0.0619533
0.0591989
0.0584083
0.0598561
0.0633871
0.068329
0.0736245
0.0780495
0.0806307
0.0809241
0.0791631
0.0761286
0.0729045
0.0704708
0.0697559
0.0702141
0.0927736
0.0927853
0.0927499
0.0925381
0.092096
0.0913787
0.0903095
0.0887879
0.0866941
0.0839207
0.08041
0.0762125
0.0715581
0.0668987
0.0628879
0.0602537
0.059583
0.0611124
0.0646317
0.0694153
0.0743599
0.0782719
0.0802865
0.0801318
0.0781959
0.075329
0.0725985
0.0709243
0.0710454
0.0720935
0.0927129
0.0927333
0.0927089
0.092531
0.0921383
0.0914751
0.090464
0.0890061
0.0869854
0.0842942
0.0808722
0.076765
0.0721983
0.067623
0.0636992
0.0611639
0.0605963
0.0621934
0.0656988
0.0703349
0.0749593
0.0784135
0.0799482
0.0794575
0.0774502
0.074792
0.0725385
0.0715594
0.072337
0.0738074
0.0926701
0.0926964
0.0926763
0.0925306
0.0921885
0.0915815
0.0906295
0.0892337
0.0872819
0.0846638
0.0813155
0.0772774
0.0727738
0.0682566
0.0643953
0.0619399
0.0614645
0.0631245
0.0666236
0.0711309
0.0754708
0.0785266
0.0796675
0.0789359
0.0769127
0.0744492
0.0726369
0.0722863
0.0736112
0.075303
0.0926398
0.0926706
0.092651
0.0925345
0.0922434
0.0916953
0.0908053
0.0894715
0.0875842
0.0850324
0.0817485
0.0777636
0.0732997
0.0688127
0.0649865
0.0625877
0.0621893
0.0639064
0.0674137
0.0718179
0.0759057
0.0786068
0.0794181
0.0785236
0.0764924
0.0741945
0.0728177
0.073072
0.074835
0.0766274
0.092616
0.0926564
0.0926342
0.0925427
0.0922995
0.0918114
0.0909895
0.0897242
0.087897
0.0853979
0.082163
0.0782144
0.0737705
0.0692898
0.0654787
0.0631284
0.0628102
0.0645897
0.0681237
0.0724614
0.0763361
0.0787396
0.0792818
0.0782451
0.076169
0.0739695
0.0729617
0.0737694
0.0758968
0.0777719
0.0925983
0.0926441
0.09262
0.0925554
0.0923554
0.0919219
0.0911687
0.0899876
0.0882469
0.0858068
0.0826104
0.0786743
0.0742198
0.069705
0.0658614
0.0635251
0.0632607
0.0651271
0.0687102
0.0730037
0.0766979
0.0788433
0.0791754
0.0780432
0.075873
0.0737648
0.07316
0.0744018
0.0766555
0.0785164
0.0925887
0.0926192
0.0926014
0.0925742
0.0924222
0.0920362
0.0913267
0.0901906
0.08851
0.0861649
0.0830199
0.0790995
0.0746309
0.0700934
0.0662088
0.0638895
0.0636901
0.0656555
0.0693077
0.0735744
0.077138
0.0790454
0.0791581
0.0778995
0.0755198
0.07347
0.0734926
0.0754295
0.0777382
0.0792941
0.0926235
0.0925913
0.0925692
0.0925786
0.0924999
0.0922052
0.0915823
0.0905311
0.0889059
0.0865767
0.083439
0.0794858
0.0749323
0.0702951
0.0663118
0.0640005
0.0638986
0.0659782
0.0697331
0.0740314
0.0775188
0.079265
0.0792065
0.077692
0.0750882
0.0728867
0.073018
0.0754995
0.078178
0.0797596
0.0927264
0.0926085
0.0925585
0.0925409
0.0924717
0.0922498
0.091729
0.0907859
0.0893232
0.0871468
0.0840818
0.0801488
0.0755523
0.0707397
0.0665961
0.0641865
0.06413
0.0664362
0.0704192
0.0747935
0.0780837
0.0795225
0.0791786
0.0773256
0.0745666
0.0728939
0.0741142
0.0768044
0.0791038
0.0800221
-0.00521926
0.00854789
-0.00296996
0.0195517
0.0257891
0.0417573
0.0485191
0.0568928
0.0610754
0.0654775
0.0682126
0.0704344
0.0719473
0.0730226
0.0737217
0.0741529
0.0743844
0.0744759
0.0744739
0.0744113
0.07432
0.0742043
0.0741094
0.0739923
0.0739683
0.0739031
0.0740831
0.0741834
0.0749585
0.0733606
-0.00563044
0.0118949
-0.00388219
0.0153483
0.0225469
0.0388475
0.0467697
0.0549413
0.0600051
0.0645417
0.0676786
0.0701004
0.0718462
0.0730922
0.0739363
0.0744763
0.074787
0.0749289
0.0749527
0.0748943
0.074791
0.0746503
0.0745134
0.0743462
0.074222
0.0740358
0.0739552
0.0736551
0.0737687
0.0728657
-0.00584826
0.0198848
-0.00239694
0.00981348
0.0182258
0.0346334
0.044128
0.052344
0.0583149
0.0631659
0.066796
0.0695499
0.0716087
0.0731044
0.0741485
0.0748385
0.0752555
0.0754648
0.0755228
0.0754726
0.0753547
0.0751893
0.0750076
0.0748026
0.0746065
0.0743728
0.0741791
0.073872
0.0737674
0.0734446
-0.00631881
0.0272622
-0.000316962
0.00273122
0.0140529
0.0307461
0.0418749
0.0505063
0.0571173
0.0623523
0.0663718
0.0694202
0.0717189
0.0734024
0.0745857
0.075372
0.0758487
0.0760875
0.0761501
0.0760862
0.0759394
0.0757394
0.0755161
0.0752807
0.0750559
0.0748307
0.0746428
0.074434
0.0742987
0.0740864
-0.00803713
0.0300466
0.00125572
-0.00622449
0.0096642
0.0265943
0.0394324
0.0488302
0.0559749
0.0616236
0.0660005
0.0693402
0.0718727
0.0737447
0.075073
0.0759639
0.076509
0.0767847
0.0768572
0.0767818
0.0766061
0.0763669
0.0760964
0.0758154
0.075545
0.0752881
0.0750625
0.0748459
0.0746699
0.0744528
-0.0101187
0.0280596
0.00194366
-0.0154117
0.00401775
0.0212329
0.0361067
0.046679
0.0544418
0.0605664
0.0653562
0.0690474
0.0718752
0.0739942
0.0755215
0.0765641
0.0772162
0.0775582
0.0776609
0.0775854
0.0773847
0.0771024
0.0767755
0.0764317
0.0760941
0.0757743
0.0754853
0.0752204
0.0750036
0.0747752
-0.0123368
0.024059
0.0010722
-0.0240262
-0.00373864
0.0143541
0.0317593
0.043903
0.0524675
0.0591545
0.0644215
0.0685243
0.0717076
0.0741303
0.0759082
0.0771476
0.0779444
0.0783825
0.0785374
0.0784764
0.0782582
0.0779334
0.0775454
0.0771302
0.0767172
0.0763263
0.0759743
0.0756607
0.0754101
0.0751551
-0.0156245
0.0191197
-0.00226557
-0.0318578
-0.0140642
0.00602123
0.0262803
0.0404516
0.0500583
0.0574051
0.0631943
0.0677435
0.071322
0.0740935
0.0761696
0.0776526
0.078637
0.0792085
0.0794464
0.0794234
0.0792044
0.0788463
0.0783991
0.077906
0.0774047
0.0769249
0.0764917
0.0761109
0.0758145
0.0755219
-0.0207133
0.011409
-0.00955481
-0.0390513
-0.0265665
-0.00360641
0.0194805
0.0361073
0.0470866
0.0552247
0.0615772
0.0665923
0.0705924
0.0737533
0.0761793
0.0779628
0.079191
0.079947
0.0803116
0.0803619
0.0801684
0.0797948
0.0792981
0.0787294
0.0781342
0.0775508
0.0770145
0.0765394
0.0761714
0.0758178
-0.0277675
0.000991365
-0.0207928
-0.0471931
-0.0398586
-0.0149468
0.0112292