/*--------------------------------*- C++ -*----------------------------------*\
  =========                 |
  \\      /  F ield         | OpenFOAM: The Open Source CFD Toolbox
   \\    /   O peration     | Website:  https://openfoam.org
    \\  /    A nd           | Version:  11
     \\/     M anipulation  |
\*---------------------------------------------------------------------------*/
FoamFile
{
    format      ascii;
    class       surfaceScalarField;
    location    "5.9";
    object      phi;
}
// * * * * * * * * * * * * * * * * * * * * * * * * * * * * * * * * * * * * * //

dimensions      [0 3 -1 0 0 0 0];

internalField   nonuniform List<scalar> 
24840
(
1.92412e-05
6.94864e-09
1.92341e-05
7.06115e-09
1.92294e-05
4.75651e-09
1.92271e-05
2.24474e-09
1.92278e-05
-6.60033e-10
1.92318e-05
-4.00029e-09
1.92395e-05
-7.71172e-09
1.92512e-05
-1.16947e-08
1.92672e-05
-1.59805e-08
1.92878e-05
-2.06474e-08
1.93136e-05
-2.57616e-08
1.9345e-05
-3.143e-08
1.93828e-05
-3.77828e-08
1.94278e-05
-4.4977e-08
1.9481e-05
-5.32018e-08
1.95437e-05
-6.26814e-08
1.96173e-05
-7.36758e-08
1.97038e-05
-8.64822e-08
1.98052e-05
-1.01436e-07
1.99242e-05
-1.18913e-07
2.00635e-05
-1.39317e-07
2.02265e-05
-1.63066e-07
2.04171e-05
-1.90566e-07
2.06394e-05
-2.22263e-07
2.0898e-05
-2.58616e-07
2.11976e-05
-2.99586e-07
2.15437e-05
-3.46177e-07
2.19361e-05
-3.92382e-07
2.23971e-05
-4.60931e-07
-4.33757e-07
2.28308e-05
1.92526e-05
2.50907e-09
1.92579e-05
1.77102e-09
1.92646e-05
-2.0198e-09
1.92739e-05
-7.02813e-09
1.92861e-05
-1.28041e-08
1.93014e-05
-1.93936e-08
1.93205e-05
-2.67581e-08
1.93436e-05
-3.48029e-08
1.93712e-05
-4.35396e-08
1.94036e-05
-5.30492e-08
1.94412e-05
-6.34136e-08
1.94845e-05
-7.47242e-08
1.95339e-05
-8.71238e-08
1.95897e-05
-1.00871e-07
1.96529e-05
-1.16367e-07
1.97244e-05
-1.34128e-07
1.98054e-05
-1.54736e-07
1.98977e-05
-1.7881e-07
2.00033e-05
-2.07008e-07
2.01244e-05
-2.40043e-07
2.02638e-05
-2.78697e-07
2.04246e-05
-3.23812e-07
2.06103e-05
-3.76271e-07
2.0825e-05
-4.36975e-07
2.10732e-05
-5.06796e-07
2.13597e-05
-5.86127e-07
2.16898e-05
-6.76273e-07
2.20683e-05
-7.70903e-07
2.25031e-05
-8.95665e-07
-9.20517e-07
2.29898e-05
1.92508e-05
-1.5416e-10
1.92554e-05
-2.85491e-09
1.92619e-05
-8.48136e-09
1.92708e-05
-1.59725e-08
1.92827e-05
-2.46432e-08
1.92977e-05
-3.44352e-08
1.93163e-05
-4.53507e-08
1.93388e-05
-5.73167e-08
1.93656e-05
-7.03095e-08
1.93969e-05
-8.4391e-08
1.94332e-05
-9.9673e-08
1.94748e-05
-1.16314e-07
1.95222e-05
-1.34563e-07
1.95762e-05
-1.54811e-07
1.96374e-05
-1.77619e-07
1.9707e-05
-2.03693e-07
1.97861e-05
-2.33848e-07
1.98763e-05
-2.68979e-07
1.99793e-05
-3.10067e-07
2.00975e-05
-3.58192e-07
2.02333e-05
-4.1455e-07
2.03899e-05
-4.80447e-07
2.0571e-05
-5.5728e-07
2.07805e-05
-6.4648e-07
2.10231e-05
-7.4948e-07
2.13042e-05
-8.67143e-07
2.16294e-05
-1.00148e-06
2.20043e-05
-1.14585e-06
2.2436e-05
-1.32737e-06
-1.4172e-06
2.29327e-05
1.92499e-05
-1.87826e-09
1.92539e-05
-6.89672e-09
1.926e-05
-1.45807e-08
1.92685e-05
-2.44526e-08
1.92798e-05
-3.59463e-08
1.92942e-05
-4.88998e-08
1.93122e-05
-6.32928e-08
1.93339e-05
-7.90667e-08
1.93598e-05
-9.61776e-08
1.93901e-05
-1.14662e-07
1.94251e-05
-1.34647e-07
1.94651e-05
-1.56367e-07
1.95107e-05
-1.80192e-07
1.95626e-05
-2.06662e-07
1.96215e-05
-2.36492e-07
1.96883e-05
-2.70564e-07
1.97644e-05
-3.09902e-07
1.98511e-05
-3.5566e-07
1.99501e-05
-4.09132e-07
2.00637e-05
-4.71768e-07
2.01943e-05
-5.45186e-07
2.03451e-05
-6.31175e-07
2.05195e-05
-7.31676e-07
2.07217e-05
-8.48714e-07
2.09566e-05
-9.84363e-07
2.12296e-05
-1.14015e-06
2.15469e-05
-1.31878e-06
2.19155e-05
-1.51443e-06
2.23415e-05
-1.75343e-06
-1.91528e-06
2.28396e-05
1.92494e-05
-3.10302e-09
1.92528e-05
-1.03507e-08
1.92584e-05
-2.01916e-08
1.92664e-05
-3.24137e-08
1.92771e-05
-4.66358e-08
1.92908e-05
-6.26476e-08
1.93079e-05
-8.03778e-08
1.93286e-05
-9.97668e-08
1.93532e-05
-1.20773e-07
1.9382e-05
-1.43433e-07
1.94152e-05
-1.679e-07
1.94533e-05
-1.94468e-07
1.94967e-05
-2.236e-07
1.9546e-05
-2.55955e-07
1.96019e-05
-2.924e-07
1.96654e-05
-3.33995e-07
1.97374e-05
-3.81977e-07
1.98195e-05
-4.37761e-07
1.99134e-05
-5.02945e-07
2.00209e-05
-5.79337e-07
2.01447e-05
-6.68974e-07
2.02877e-05
-7.74133e-07
2.04533e-05
-8.97319e-07
2.06458e-05
-1.04121e-06
2.08701e-05
-1.20862e-06
2.11318e-05
-1.40194e-06
2.14377e-05
-1.62467e-06
2.17958e-05
-1.87255e-06
2.22127e-05
-2.17032e-06
-2.4083e-06
2.27058e-05
1.92491e-05
-4.07337e-09
1.92521e-05
-1.33782e-08
1.92573e-05
-2.5334e-08
1.92647e-05
-3.98362e-08
1.92747e-05
-5.66405e-08
1.92876e-05
-7.55367e-08
1.93036e-05
-9.64143e-08
1.93231e-05
-1.19204e-07
1.93462e-05
-1.43866e-07
1.93732e-05
-1.70439e-07
1.94044e-05
-1.99093e-07
1.94401e-05
-2.30175e-07
1.94807e-05
-2.64234e-07
1.95268e-05
-3.02047e-07
1.9579e-05
-3.44624e-07
1.96382e-05
-3.93192e-07
1.97054e-05
-4.49194e-07
1.97819e-05
-5.14284e-07
1.98694e-05
-5.90347e-07
1.99695e-05
-6.79534e-07
2.00849e-05
-7.84291e-07
2.02181e-05
-9.07387e-07
2.03727e-05
-1.05192e-06
2.05528e-05
-1.22127e-06
2.07633e-05
-1.41909e-06
2.10102e-05
-1.64883e-06
2.13005e-05
-1.91501e-06
2.16434e-05
-2.21544e-06
2.20464e-05
-2.57334e-06
-2.89247e-06
2.25306e-05
1.9249e-05
-4.90714e-09
1.92516e-05
-1.60433e-08
1.92563e-05
-2.99854e-08
1.92631e-05
-4.66454e-08
1.92723e-05
-6.58565e-08
1.92842e-05
-8.74282e-08
1.9299e-05
-1.11224e-07
1.9317e-05
-1.37158e-07
1.93383e-05
-1.65186e-07
1.93632e-05
-1.95353e-07
1.9392e-05
-2.27853e-07
1.94249e-05
-2.63074e-07
1.94623e-05
-3.01642e-07
1.95047e-05
-3.44434e-07
1.95526e-05
-3.92586e-07
1.96069e-05
-4.47485e-07
1.96685e-05
-5.10759e-07
1.97385e-05
-5.84287e-07
1.98184e-05
-6.70224e-07
1.99099e-05
-7.71043e-07
2.00152e-05
-8.89583e-07
2.01369e-05
-1.0291e-06
2.02782e-05
-1.19328e-06
2.04432e-05
-1.38625e-06
2.06367e-05
-1.6126e-06
2.08648e-05
-1.87698e-06
2.1135e-05
-2.18518e-06
2.14572e-05
-2.53765e-06
2.18403e-05
-2.95636e-06
-3.36164e-06
2.23094e-05
1.92489e-05
-5.63759e-09
1.92512e-05
-1.8385e-08
1.92554e-05
-3.41402e-08
1.92615e-05
-5.27924e-08
1.92699e-05
-7.42085e-08
1.92806e-05
-9.82158e-08
1.92941e-05
-1.24664e-07
1.93104e-05
-1.53448e-07
1.93297e-05
-1.8452e-07
1.93523e-05
-2.1793e-07
1.93783e-05
-2.53887e-07
1.94081e-05
-2.92818e-07
1.94418e-05
-3.3541e-07
1.948e-05
-3.82631e-07
1.95232e-05
-4.35728e-07
1.95719e-05
-4.96228e-07
1.96271e-05
-5.65929e-07
1.96897e-05
-6.4691e-07
1.97611e-05
-7.41566e-07
1.98427e-05
-8.52661e-07
1.99365e-05
-9.83399e-07
2.00449e-05
-1.13749e-06
2.01708e-05
-1.31922e-06
2.0318e-05
-1.53347e-06
2.04912e-05
-1.7858e-06
2.06965e-05
-2.0822e-06
2.09413e-05
-2.43e-06
2.12364e-05
-2.83279e-06
2.15917e-05
-3.31164e-06
-3.80692e-06
2.2037e-05
1.92488e-05
-6.27373e-09
1.92508e-05
-2.0426e-08
1.92545e-05
-3.77939e-08
1.92599e-05
-5.82349e-08
1.92673e-05
-8.16243e-08
1.92769e-05
-1.07799e-07
1.92888e-05
-1.36601e-07
1.93033e-05
-1.67909e-07
1.93205e-05
-2.01667e-07
1.93404e-05
-2.37926e-07
1.93635e-05
-2.76909e-07
1.93897e-05
-3.19076e-07
1.94195e-05
-3.65164e-07
1.94531e-05
-4.16213e-07
1.94909e-05
-4.73566e-07
1.95335e-05
-5.3887e-07
1.95817e-05
-6.14064e-07
1.96362e-05
-7.01399e-07
1.96981e-05
-8.03473e-07
1.97687e-05
-9.23307e-07
1.98497e-05
-1.06442e-06
1.99432e-05
-1.23095e-06
2.00517e-05
-1.42772e-06
2.01786e-05
-1.66035e-06
2.03282e-05
-1.93539e-06
2.05062e-05
-2.26022e-06
2.07201e-05
-2.6439e-06
2.09809e-05
-3.09356e-06
2.1299e-05
-3.62979e-06
-4.2163e-06
2.17084e-05
1.92487e-05
-6.81845e-09
1.92504e-05
-2.21749e-08
1.92536e-05
-4.09382e-08
1.92583e-05
-6.29369e-08
1.92647e-05
-8.80421e-08
1.9273e-05
-1.16093e-07
1.92833e-05
-1.46923e-07
1.92958e-05
-1.80399e-07
1.93106e-05
-2.16454e-07
1.93278e-05
-2.5514e-07
1.93476e-05
-2.96688e-07
1.93701e-05
-3.4158e-07
1.93955e-05
-3.90594e-07
1.94241e-05
-4.44826e-07
1.94563e-05
-5.05695e-07
1.94923e-05
-5.74941e-07
1.95329e-05
-6.54618e-07
1.95786e-05
-7.47112e-07
1.96303e-05
-8.55185e-07
1.96891e-05
-9.82059e-07
1.97562e-05
-1.13152e-06
1.98333e-05
-1.30805e-06
1.99225e-05
-1.51696e-06
2.00267e-05
-1.76452e-06
2.01495e-05
-2.05821e-06
2.0296e-05
-2.40678e-06
2.04732e-05
-2.82107e-06
2.06916e-05
-3.31198e-06
2.09619e-05
-3.90004e-06
-4.57473e-06
2.13203e-05
1.92486e-05
-7.27243e-09
1.925e-05
-2.36327e-08
1.92527e-05
-4.35636e-08
1.92566e-05
-6.68693e-08
1.9262e-05
-9.34113e-08
1.92689e-05
-1.23025e-07
1.92775e-05
-1.55537e-07
1.92879e-05
-1.90801e-07
1.93002e-05
-2.28741e-07
1.93145e-05
-2.69403e-07
1.93308e-05
-3.13026e-07
1.93493e-05
-3.60105e-07
1.93702e-05
-4.11444e-07
1.93935e-05
-4.68179e-07
1.94196e-05
-5.31784e-07
1.94487e-05
-6.04066e-07
1.94813e-05
-6.8716e-07
1.95177e-05
-7.83545e-07
1.95586e-05
-8.96099e-07
1.96048e-05
-1.02819e-06
1.9657e-05
-1.18378e-06
1.97166e-05
-1.36763e-06
1.9785e-05
-1.5854e-06
1.98644e-05
-1.84391e-06
1.99577e-05
-2.15143e-06
2.00688e-05
-2.51791e-06
2.02036e-05
-2.95588e-06
2.03715e-05
-3.47989e-06
2.05822e-05
-4.11073e-06
-4.86454e-06
2.0872e-05
1.92485e-05
-7.63556e-09
1.92497e-05
-2.47982e-08
1.92518e-05
-4.56618e-08
1.92549e-05
-7.00097e-08
1.92592e-05
-9.76928e-08
1.92647e-05
-1.2854e-07
1.92715e-05
-1.62368e-07
1.92797e-05
-1.99022e-07
1.92894e-05
-2.38415e-07
1.93006e-05
-2.80586e-07
1.93134e-05
-3.25773e-07
1.93277e-05
-3.74479e-07
1.93438e-05
-4.27521e-07
1.93617e-05
-4.86057e-07
1.93815e-05
-5.51594e-07
1.94034e-05
-6.25975e-07
1.94276e-05
-7.11381e-07
1.94544e-05
-8.10342e-07
1.94841e-05
-9.25793e-07
1.95171e-05
-1.06117e-06
1.95539e-05
-1.22056e-06
1.95951e-05
-1.40884e-06
1.96416e-05
-1.63192e-06
1.96946e-05
-1.89696e-06
1.9756e-05
-2.21277e-06
1.98283e-05
-2.59025e-06
1.99157e-05
-3.04327e-06
2.00254e-05
-3.58958e-06
2.0165e-05
-4.25027e-06
-5.06676e-06
2.03672e-05
1.92484e-05
-7.90777e-09
1.92493e-05
-2.56703e-08
1.92508e-05
-4.72265e-08
1.92532e-05
-7.2343e-08
1.92563e-05
-1.00859e-07
1.92604e-05
-1.32597e-07
1.92654e-05
-1.67365e-07
1.92714e-05
-2.04998e-07
1.92784e-05
-2.45397e-07
1.92864e-05
-2.88595e-07
1.92954e-05
-3.34824e-07
1.93055e-05
-3.84584e-07
1.93167e-05
-4.38695e-07
1.9329e-05
-4.9832e-07
1.93423e-05
-5.64971e-07
1.93569e-05
-6.40503e-07
1.93726e-05
-7.27103e-07
1.93895e-05
-8.27304e-07
1.94078e-05
-9.44039e-07
1.94274e-05
-1.08075e-06
1.94483e-05
-1.24151e-06
1.94707e-05
-1.43123e-06
1.94946e-05
-1.65586e-06
1.95203e-05
-1.92267e-06
1.95483e-05
-2.24073e-06
1.95795e-05
-2.62141e-06
1.96156e-05
-3.0794e-06
1.96607e-05
-3.63469e-06
1.97189e-05
-4.30845e-06
-5.16314e-06
1.98153e-05
1.92483e-05
-8.0894e-09
1.92489e-05
-2.62493e-08
1.92499e-05
-4.82559e-08
1.92514e-05
-7.38614e-08
1.92535e-05
-1.02896e-07
1.92561e-05
-1.35173e-07
1.92592e-05
-1.70496e-07
1.92629e-05
-2.08687e-07
1.92671e-05
-2.49641e-07
1.92719e-05
-2.93377e-07
1.92772e-05
-3.40119e-07
1.9283e-05
-3.90357e-07
1.92892e-05
-4.44902e-07
1.92958e-05
-5.04903e-07
1.93026e-05
-5.71857e-07
1.93097e-05
-6.47597e-07
1.93169e-05
-7.34279e-07
1.9324e-05
-8.34394e-07
1.93308e-05
-9.50812e-07
1.93369e-05
-1.08689e-06
1.9342e-05
-1.24661e-06
1.93455e-05
-1.43475e-06
1.93468e-05
-1.65712e-06
1.9345e-05
-1.92083e-06
1.9339e-05
-2.23479e-06
1.93279e-05
-2.61032e-06
1.93107e-05
-3.06215e-06
1.92872e-05
-3.61122e-06
1.92568e-05
-4.27804e-06
-5.13909e-06
1.92328e-05
1.92482e-05
-8.181e-09
1.92485e-05
-2.65378e-08
1.9249e-05
-4.87525e-08
1.92497e-05
-7.45661e-08
1.92506e-05
-1.03801e-07
1.92517e-05
-1.36263e-07
1.9253e-05
-1.7175e-07
1.92544e-05
-2.10078e-07
1.92558e-05
-2.5113e-07
1.92574e-05
-2.94915e-07
1.92589e-05
-3.41644e-07
1.92603e-05
-3.9179e-07
1.92616e-05
-4.4614e-07
1.92625e-05
-5.05817e-07
1.92629e-05
-5.7228e-07
1.92626e-05
-6.4731e-07
1.92613e-05
-7.32997e-07
1.92587e-05
-8.3174e-07
1.92542e-05
-9.46293e-07
1.92471e-05
-1.07985e-06
1.92367e-05
-1.23619e-06
1.92218e-05
-1.41982e-06
1.92009e-05
-1.6362e-06
1.91721e-05
-1.89201e-06
1.91328e-05
-2.19557e-06
1.908e-05
-2.55752e-06
1.90096e-05
-2.99172e-06
1.89168e-05
-3.51843e-06
1.87952e-05
-4.15645e-06
-4.98694e-06
1.86431e-05
1.92481e-05
-8.18599e-09
1.92481e-05
-2.6542e-08
1.92481e-05
-4.87243e-08
1.9248e-05
-7.4466e-08
1.92478e-05
-1.03582e-07
1.92474e-05
-1.35876e-07
1.92468e-05
-1.71139e-07
1.92459e-05
-2.09183e-07
1.92447e-05
-2.49882e-07
1.9243e-05
-2.93234e-07
1.92408e-05
-3.39431e-07
1.92379e-05
-3.88926e-07
1.92342e-05
-4.42472e-07
1.92296e-05
-5.01148e-07
1.92236e-05
-5.66356e-07
1.92161e-05
-6.39799e-07
1.92066e-05
-7.23468e-07
1.91945e-05
-8.19628e-07
1.9179e-05
-9.30859e-07
1.91593e-05
-1.06013e-06
1.9134e-05
-1.21091e-06
1.91015e-05
-1.38731e-06
1.90596e-05
-1.59424e-06
1.90052e-05
-1.83765e-06
1.89345e-05
-2.1249e-06
1.88423e-05
-2.4653e-06
1.87215e-05
-2.87091e-06
1.85627e-05
-3.35957e-06
1.83532e-05
-3.94705e-06
-4.70881e-06
1.80751e-05
1.92481e-05
-8.10541e-09
1.92478e-05
-2.62697e-08
1.92472e-05
-4.81861e-08
1.92464e-05
-7.35809e-08
1.9245e-05
-1.02265e-07
1.92432e-05
-1.34039e-07
1.92408e-05
-1.68695e-07
1.92376e-05
-2.06041e-07
1.92337e-05
-2.45944e-07
1.92288e-05
-2.88391e-07
1.9223e-05
-3.33554e-07
1.92159e-05
-3.81857e-07
1.92074e-05
-4.34014e-07
1.91973e-05
-4.91047e-07
1.91853e-05
-5.54281e-07
1.91708e-05
-6.2532e-07
1.91533e-05
-7.06023e-07
1.91322e-05
-7.98487e-07
1.91064e-05
-9.05072e-07
1.90747e-05
-1.02846e-06
1.90356e-05
-1.17173e-06
1.89867e-05
-1.33848e-06
1.89254e-05
-1.53291e-06
1.88478e-05
-1.76001e-06
1.87487e-05
-2.02579e-06
1.86211e-05
-2.33772e-06
1.84553e-05
-2.70518e-06
1.82378e-05
-3.14202e-06
1.79505e-05
-3.6597e-06
-4.31819e-06
1.75598e-05
1.9248e-05
-7.94428e-09
1.92474e-05
-2.57341e-08
1.92464e-05
-4.71582e-08
1.92448e-05
-7.19384e-08
1.92424e-05
-9.98829e-08
1.92391e-05
-1.30795e-07
1.92349e-05
-1.6447e-07
1.92296e-05
-2.00716e-07
1.9223e-05
-2.39395e-07
1.92151e-05
-2.80481e-07
1.92057e-05
-3.24128e-07
1.91946e-05
-3.70726e-07
1.91815e-05
-4.20942e-07
1.91662e-05
-4.75731e-07
1.91482e-05
-5.36325e-07
1.91271e-05
-6.04212e-07
1.91022e-05
-6.81093e-07
1.90726e-05
-7.6887e-07
1.90371e-05
-8.69646e-07
1.89945e-05
-9.8577e-07
1.89426e-05
-1.11988e-06
1.88791e-05
-1.27496e-06
1.88006e-05
-1.4544e-06
1.87026e-05
-1.66203e-06
1.85791e-05
-1.90228e-06
1.84217e-05
-2.18034e-06
1.82188e-05
-2.50233e-06
1.79537e-05
-2.87693e-06
1.76044e-05
-3.31034e-06
-3.83948e-06
1.71257e-05
1.92479e-05
-7.70785e-09
1.92471e-05
-2.49516e-08
1.92456e-05
-4.56684e-08
1.92433e-05
-6.95764e-08
1.92399e-05
-9.64845e-08
1.92353e-05
-1.26203e-07
1.92293e-05
-1.58536e-07
1.92219e-05
-1.93294e-07
1.92129e-05
-2.30337e-07
1.9202e-05
-2.69629e-07
1.91892e-05
-3.11304e-07
1.91742e-05
-3.55716e-07
1.91567e-05
-4.03479e-07
1.91364e-05
-4.5547e-07
1.91129e-05
-5.12823e-07
1.90856e-05
-5.76887e-07
1.90537e-05
-6.49196e-07
1.90163e-05
-7.31433e-07
1.89721e-05
-8.25424e-07
1.89194e-05
-9.33156e-07
1.88564e-05
-1.05678e-06
1.878e-05
-1.19865e-06
1.86869e-05
-1.36123e-06
1.8572e-05
-1.54716e-06
1.84288e-05
-1.75911e-06
1.82483e-05
-1.99982e-06
1.80179e-05
-2.27187e-06
1.77191e-05
-2.57814e-06
1.7328e-05
-2.9193e-06
-3.30519e-06
1.67938e-05
1.92478e-05
-7.40286e-09
1.92468e-05
-2.39436e-08
1.92449e-05
-4.3752e-08
1.92419e-05
-6.65428e-08
1.92375e-05
-9.21292e-08
1.92316e-05
-1.20337e-07
1.92241e-05
-1.50982e-07
1.92147e-05
-1.83884e-07
1.92032e-05
-2.18901e-07
1.91896e-05
-2.55991e-07
1.91736e-05
-2.95267e-07
1.91549e-05
-3.37047e-07
1.91333e-05
-3.81887e-07
1.91084e-05
-4.30584e-07
1.90798e-05
-4.84158e-07
1.90467e-05
-5.43819e-07
1.90084e-05
-6.10916e-07
1.89639e-05
-6.86908e-07
1.89118e-05
-7.73335e-07
1.88505e-05
-8.7181e-07
1.87777e-05
-9.84001e-07
1.86906e-05
-1.11159e-06
1.85855e-05
-1.25616e-06
1.84575e-05
-1.41913e-06
1.82998e-05
-1.60144e-06
1.81034e-05
-1.8034e-06
1.78557e-05
-2.02414e-06
1.75384e-05
-2.26082e-06
1.7128e-05
-2.50896e-06
-2.75143e-06
1.65743e-05
1.92478e-05
-7.03799e-09
1.92466e-05
-2.27375e-08
1.92443e-05
-4.14534e-08
1.92406e-05
-6.28953e-08
1.92354e-05
-8.68879e-08
1.92283e-05
-1.13282e-07
1.92193e-05
-1.41914e-07
1.9208e-05
-1.72613e-07
1.91943e-05
-2.0524e-07
1.91781e-05
-2.39748e-07
1.9159e-05
-2.76232e-07
1.9137e-05
-3.14974e-07
1.91115e-05
-3.56469e-07
1.90824e-05
-4.01428e-07
1.9049e-05
-4.50758e-07
1.90107e-05
-5.05521e-07
1.89667e-05
-5.66884e-07
1.89158e-05
-6.36078e-07
1.88569e-05
-7.14357e-07
1.8788e-05
-8.02975e-07
1.87071e-05
-9.03128e-07
1.86114e-05
-1.01587e-06
1.84972e-05
-1.14197e-06
1.83598e-05
-1.28168e-06
1.81928e-05
-1.43441e-06
1.79876e-05
-1.59825e-06
1.77328e-05
-1.76931e-06
1.74117e-05
-1.93976e-06
1.70038e-05
-2.10099e-06
-2.21277e-06
1.64651e-05
1.92477e-05
-6.62431e-09
1.92464e-05
-2.13688e-08
1.92437e-05
-3.88278e-08
1.92395e-05
-5.8702e-08
1.92335e-05
-8.08417e-08
1.92253e-05
-1.05138e-07
1.92149e-05
-1.31454e-07
1.92019e-05
-1.59627e-07
1.91862e-05
-1.89526e-07
1.91675e-05
-2.21104e-07
1.91457e-05
-2.54439e-07
1.91205e-05
-2.89778e-07
1.90916e-05
-3.27553e-07
1.90586e-05
-3.68389e-07
1.90209e-05
-4.1308e-07
1.89779e-05
-4.62539e-07
1.89288e-05
-5.17755e-07
1.88725e-05
-5.79739e-07
1.88076e-05
-6.49478e-07
1.87325e-05
-7.27887e-07
1.86451e-05
-8.15738e-07
1.85428e-05
-9.13532e-07
1.84221e-05
-1.02131e-06
1.82788e-05
-1.13836e-06
1.81072e-05
-1.2628e-06
1.78999e-05
-1.39094e-06
1.76471e-05
-1.51655e-06
1.73353e-05
-1.62798e-06
1.69483e-05
-1.71393e-06
-1.71759e-06
1.64531e-05
1.92477e-05
-6.17638e-09
1.92462e-05
-1.98855e-08
1.92433e-05
-3.59438e-08
1.92387e-05
-5.4041e-08
1.92319e-05
-7.40811e-08
1.92228e-05
-9.6016e-08
1.92111e-05
-1.19735e-07
1.91965e-05
-1.45086e-07
1.91789e-05
-1.7195e-07
1.91581e-05
-2.00283e-07
1.91338e-05
-2.30152e-07
1.91058e-05
-2.61764e-07
1.90738e-05
-2.95493e-07
1.90372e-05
-3.31878e-07
1.89958e-05
-3.71598e-07
1.89487e-05
-4.15429e-07
1.88951e-05
-4.64188e-07
1.8834e-05
-5.18683e-07
1.87642e-05
-5.79657e-07
1.86841e-05
-6.47727e-07
1.85916e-05
-7.23302e-07
1.84845e-05
-8.06427e-07
1.83598e-05
-8.96564e-07
1.82137e-05
-9.92269e-07
1.80416e-05
-1.09071e-06
1.78376e-05
-1.18696e-06
1.75943e-05
-1.27325e-06
1.73019e-05
-1.33561e-06
1.69495e-05
-1.36152e-06
-1.28513e-06
1.65171e-05
1.92477e-05
-5.71505e-09
1.92461e-05
-1.83555e-08
1.92431e-05
-3.28858e-08
1.9238e-05
-4.89986e-08
1.92307e-05
-6.67063e-08
1.92207e-05
-8.60388e-08
1.92079e-05
-1.06904e-07
1.91919e-05
-1.29161e-07
1.91727e-05
-1.52711e-07
1.91499e-05
-1.7752e-07
1.91234e-05
-2.03642e-07
1.90929e-05
-2.3125e-07
1.90581e-05
-2.60655e-07
1.90185e-05
-2.92314e-07
1.89737e-05
-3.26798e-07
1.8923e-05
-3.64751e-07
1.88657e-05
-4.06836e-07
1.88007e-05
-4.53676e-07
1.87268e-05
-5.058e-07
1.86427e-05
-5.6358e-07
1.85465e-05
-6.27136e-07
1.84362e-05
-6.96175e-07
1.83094e-05
-7.69753e-07
1.81631e-05
-8.45944e-07
1.79938e-05
-9.21356e-07
1.77972e-05
-9.90405e-07
1.75686e-05
-1.04467e-06
1.73024e-05
-1.06934e-06
1.69929e-05
-1.05206e-06
-9.25509e-07
1.66333e-05
1.92477e-05
-5.2757e-09
1.92462e-05
-1.68836e-08
1.92431e-05
-2.97527e-08
1.92378e-05
-4.36626e-08
1.92299e-05
-5.88224e-08
1.92192e-05
-7.53388e-08
1.92054e-05
-9.31211e-08
1.91883e-05
-1.12044e-07
1.91676e-05
-1.32036e-07
1.91432e-05
-1.53077e-07
1.91147e-05
-1.75211e-07
1.9082e-05
-1.98573e-07
1.90448e-05
-2.23421e-07
1.90026e-05
-2.50127e-07
1.8955e-05
-2.79163e-07
1.89013e-05
-3.11051e-07
1.88408e-05
-3.46319e-07
1.87725e-05
-3.85432e-07
1.86955e-05
-4.28733e-07
1.86083e-05
-4.76402e-07
1.85095e-05
-5.28358e-07
1.83974e-05
-5.84092e-07
1.82701e-05
-6.42433e-07
1.81254e-05
-7.01237e-07
1.7961e-05
-7.56937e-07
1.77744e-05
-8.03857e-07
1.75635e-05
-8.33732e-07
1.73264e-05
-8.32291e-07
1.70628e-05
-7.88475e-07
-6.3984e-07
1.67772e-05
1.92478e-05
-4.9272e-09
1.92465e-05
-1.56466e-08
1.92435e-05
-2.66598e-08
1.92379e-05
-3.812e-08
1.92296e-05
-5.05328e-08
1.92183e-05
-6.40362e-08
1.92037e-05
-7.85242e-08
1.91856e-05
-9.39012e-08
1.91637e-05
-1.1013e-07
1.91378e-05
-1.27203e-07
1.91077e-05
-1.4515e-07
1.90732e-05
-1.64076e-07
1.9034e-05
-1.84178e-07
1.89896e-05
-2.05754e-07
1.89396e-05
-2.29179e-07
1.88835e-05
-2.54869e-07
1.88204e-05
-2.8324e-07
1.87496e-05
-3.14621e-07
1.867e-05
-3.49197e-07
1.85806e-05
-3.87013e-07
1.84802e-05
-4.27876e-07
1.83672e-05
-4.7118e-07
1.82405e-05
-5.15702e-07
1.80986e-05
-5.59319e-07
1.79403e-05
-5.98646e-07
1.77649e-05
-6.28412e-07
1.75723e-05
-6.41206e-07
1.73644e-05
-6.24344e-07
1.71449e-05
-5.68969e-07
-4.21784e-07
1.69268e-05
1.92481e-05
-4.84734e-09
1.92473e-05
-1.48611e-08
1.92443e-05
-2.37331e-08
1.92387e-05
-3.25097e-08
1.92302e-05
-4.20066e-08
1.92185e-05
-5.23087e-08
1.92033e-05
-6.33037e-08
1.91843e-05
-7.49472e-08
1.91614e-05
-8.72357e-08
1.91344e-05
-1.0017e-07
1.9103e-05
-1.1377e-07
1.9067e-05
-1.28106e-07
1.90262e-05
-1.43318e-07
1.898e-05
-1.59624e-07
1.89282e-05
-1.7731e-07
1.887e-05
-1.96707e-07
1.88049e-05
-2.18159e-07
1.87322e-05
-2.41866e-07
1.86508e-05
-2.67872e-07
1.856e-05
-2.96149e-07
1.84586e-05
-3.26472e-07
1.83456e-05
-3.58244e-07
1.82203e-05
-3.90337e-07
1.80818e-05
-4.20869e-07
1.79301e-05
-4.46923e-07
1.77657e-05
-4.64003e-07
1.75906e-05
-4.66088e-07
1.74089e-05
-4.42668e-07
1.72283e-05
-3.88419e-07
-2.6005e-07
1.70666e-05
1.92488e-05
-5.51099e-09
1.92486e-05
-1.46794e-08
1.92459e-05
-2.09885e-08
1.92402e-05
-2.68808e-08
1.92316e-05
-3.33278e-08
1.92195e-05
-4.02735e-08
1.92039e-05
-4.76364e-08
1.91843e-05
-5.54268e-08
1.91608e-05
-6.36642e-08
1.9133e-05
-7.23554e-08
1.91007e-05
-8.15097e-08
1.90637e-05
-9.11611e-08
1.90218e-05
-1.01391e-07
1.89745e-05
-1.12346e-07
1.89215e-05
-1.24229e-07
1.88621e-05
-1.37309e-07
1.87958e-05
-1.51925e-07
1.87221e-05
-1.68096e-07
1.86399e-05
-1.857e-07
1.85485e-05
-2.0475e-07
1.84471e-05
-2.25042e-07
1.83349e-05
-2.46064e-07
1.82115e-05
-2.66913e-07
1.80767e-05
-2.86118e-07
1.79312e-05
-3.01468e-07
1.77768e-05
-3.09529e-07
1.76166e-05
-3.05935e-07
1.74561e-05
-2.82118e-07
1.73056e-05
-2.3793e-07
-1.37096e-07
1.71826e-05
1.92516e-05
-8.99933e-09
1.92515e-05
-1.45952e-08
1.9248e-05
-1.7483e-08
1.92419e-05
-2.0742e-08
1.92328e-05
-2.41865e-08
1.92202e-05
-2.7734e-08
1.9204e-05
-3.14407e-08
1.91839e-05
-3.53285e-08
1.91596e-05
-3.93952e-08
1.9131e-05
-4.36575e-08
1.90976e-05
-4.81619e-08
1.90594e-05
-5.29767e-08
1.90162e-05
-5.81837e-08
1.89677e-05
-6.38709e-08
1.89136e-05
-7.01241e-08
1.88533e-05
-7.69928e-08
1.87858e-05
-8.44344e-08
1.87103e-05
-9.26147e-08
1.86263e-05
-1.01659e-07
1.85329e-05
-1.11392e-07
1.84295e-05
-1.21619e-07
1.83155e-05
-1.32029e-07
1.81907e-05
-1.42085e-07
1.80555e-05
-1.50924e-07
1.79112e-05
-1.5725e-07
1.77608e-05
-1.59123e-07
1.76089e-05
-1.53995e-07
1.74636e-05
-1.36786e-07
1.73321e-05
-1.06501e-07
-2.35384e-08
1.72186e-05
1.92391e-05
1.92245e-05
1.92071e-05
1.91863e-05
1.91621e-05
1.91344e-05
1.9103e-05
1.90676e-05
1.90282e-05
1.89846e-05
1.89364e-05
1.88834e-05
1.88252e-05
1.87614e-05
1.86913e-05
1.86143e-05
1.85298e-05
1.84372e-05
1.83356e-05
1.82242e-05
1.81025e-05
1.79705e-05
1.78284e-05
1.76775e-05
1.75203e-05
1.73611e-05
1.72071e-05
1.70703e-05
1.69638e-05
1.69403e-05
2.23753e-05
-1.06017e-05
1.10573e-05
2.19221e-05
-1.07337e-05
1.11869e-05
2.14427e-05
-1.08607e-05
1.13401e-05
2.09336e-05
-1.0978e-05
1.14871e-05
2.04005e-05
-1.10935e-05
1.16267e-05
1.98487e-05
-1.12108e-05
1.17626e-05
1.92819e-05
-1.13307e-05
1.18974e-05
1.8703e-05
-1.14543e-05
1.20332e-05
1.81138e-05
-1.15827e-05
1.21719e-05
1.75152e-05
-1.1717e-05
1.23156e-05
1.69073e-05
-1.18577e-05
1.24656e-05
1.62896e-05
-1.20054e-05
1.26231e-05
1.56613e-05
-1.21606e-05
1.27889e-05
1.50216e-05
-1.23246e-05
1.29643e-05
1.43697e-05
-1.24986e-05
1.31504e-05
1.37046e-05
-1.26844e-05
1.33495e-05
1.30249e-05
-1.2884e-05
1.35637e-05
1.23287e-05
-1.30997e-05
1.37959e-05
1.16136e-05
-1.33342e-05
1.40492e-05
1.08766e-05
-1.35909e-05
1.43279e-05
1.01136e-05
-1.3874e-05
1.4637e-05
9.31906e-06
-1.41884e-05
1.49829e-05
8.48578e-06
-1.45401e-05
1.53734e-05
7.60389e-06
-1.49373e-05
1.58192e-05
6.65954e-06
-1.53879e-05
1.63322e-05
5.63272e-06
-1.59054e-05
1.69322e-05
4.50546e-06
-1.64969e-05
1.76242e-05
3.19293e-06
-1.71952e-05
1.85077e-05
1.78798e-06
-1.79126e-05
1.93175e-05
-1.90606e-05
2.08486e-05
2.25162e-05
-1.01281e-05
2.20098e-05
-1.02272e-05
2.14779e-05
-1.03289e-05
2.09303e-05
-1.04304e-05
2.03713e-05
-1.05345e-05
1.98033e-05
-1.06429e-05
1.92279e-05
-1.07553e-05
1.86456e-05
-1.08719e-05
1.80558e-05
-1.0993e-05
1.74578e-05
-1.1119e-05
1.68505e-05
-1.12505e-05
1.62331e-05
-1.13879e-05
1.56048e-05
-1.15323e-05
1.49649e-05
-1.16847e-05
1.43127e-05
-1.18463e-05
1.36469e-05
-1.20186e-05
1.29661e-05
-1.22032e-05
1.22683e-05
-1.24019e-05
1.15509e-05
-1.26169e-05
1.08109e-05
-1.28509e-05
1.00439e-05
-1.3107e-05
9.24454e-06
-1.3389e-05
8.40571e-06
-1.37013e-05
7.51776e-06
-1.40493e-05
6.56772e-06
-1.44378e-05
5.53851e-06
-1.48762e-05
4.4056e-06
-1.5364e-05
3.13084e-06
-1.59205e-05
1.71869e-06
-1.65004e-05
-1.73419e-05
2.2419e-05
-9.61438e-06
2.18913e-05
-9.6996e-06
2.13515e-05
-9.78912e-06
2.08043e-05
-9.88308e-06
2.02507e-05
-9.98095e-06
1.96901e-05
-1.00823e-05
1.91216e-05
-1.01868e-05
1.85446e-05
-1.02948e-05
1.79583e-05
-1.04067e-05
1.73624e-05
-1.0523e-05
1.67563e-05
-1.06444e-05
1.61398e-05
-1.07714e-05
1.55125e-05
-1.0905e-05
1.48736e-05
-1.10458e-05
1.42223e-05
-1.1195e-05
1.35571e-05
-1.13535e-05
1.28766e-05
-1.15226e-05
1.21785e-05
-1.17038e-05
1.14603e-05
-1.18987e-05
1.07188e-05
-1.21093e-05
9.94977e-06
-1.2338e-05
9.14786e-06
-1.25871e-05
8.3061e-06
-1.28595e-05
7.41533e-06
-1.31586e-05
6.46352e-06
-1.3486e-05
5.43484e-06
-1.38475e-05
4.307e-06
-1.42362e-05
3.05495e-06
-1.46684e-05
1.64989e-06
-1.50954e-05
-1.56921e-05
2.23176e-05
-9.09236e-06
2.17869e-05
-9.16892e-06
2.12473e-05
-9.24947e-06
2.07e-05
-9.33585e-06
2.01453e-05
-9.42626e-06
1.95824e-05
-9.51937e-06
1.90109e-05
-9.61525e-06
1.84305e-05
-9.71448e-06
1.78414e-05
-9.81756e-06
1.72432e-05
-9.92488e-06
1.66357e-05
-1.00369e-05
1.60184e-05
-1.01541e-05
1.53904e-05
-1.0277e-05
1.47509e-05
-1.04063e-05
1.40987e-05
-1.05428e-05
1.34323e-05
-1.06871e-05
1.27501e-05
-1.08404e-05
1.20501e-05
-1.10037e-05
1.13295e-05
-1.11781e-05
1.05852e-05
-1.13651e-05
9.81318e-06
-1.15659e-05
9.00813e-06
-1.17821e-05
8.1635e-06
-1.20149e-05
7.27076e-06
-1.22658e-05
6.31904e-06
-1.25343e-05
5.29413e-06
-1.28226e-05
4.17751e-06
-1.31195e-05
2.94882e-06
-1.34397e-05
1.57236e-06
-1.37189e-05
-1.41197e-05
2.21774e-05
-8.56397e-06
2.16416e-05
-8.63313e-06
2.10979e-05
-8.70575e-06
2.05469e-05
-8.78484e-06
1.99887e-05
-8.86807e-06
1.94229e-05
-8.95363e-06
1.88494e-05
-9.04167e-06
1.82678e-05
-9.13288e-06
1.76779e-05
-9.22766e-06
1.70792e-05
-9.32624e-06
1.64712e-05
-9.42891e-06
1.58532e-05
-9.53606e-06
1.52243e-05
-9.64813e-06
1.45836e-05
-9.76562e-06
1.393e-05
-9.88908e-06
1.32619e-05
-1.00191e-05
1.25779e-05
-1.01564e-05
1.18757e-05
-1.03015e-05
1.11529e-05
-1.04553e-05
1.04063e-05
-1.06185e-05
9.63204e-06
-1.07916e-05
8.82517e-06
-1.09752e-05
7.97961e-06
-1.11693e-05
7.08764e-06
-1.13738e-05
6.1397e-06
-1.15864e-05
5.12341e-06
-1.18063e-05
4.0238e-06
-1.20199e-05
2.8228e-06
-1.22387e-05
1.48916e-06
-1.23853e-05
-1.26305e-05
2.19971e-05
-8.03055e-06
2.14571e-05
-8.09312e-06
2.091e-05
-8.15861e-06
2.03561e-05
-8.2309e-06
1.97953e-05
-8.30731e-06
1.92273e-05
-8.38567e-06
1.86518e-05
-8.46611e-06
1.80683e-05
-8.54937e-06
1.74764e-05
-8.63583e-06
1.68758e-05
-8.72559e-06
1.62657e-05
-8.81886e-06
1.56456e-05
-8.91593e-06
1.50146e-05
-9.01713e-06
1.43718e-05
-9.12279e-06
1.3716e-05
-9.23328e-06
1.30458e-05
-9.34894e-06
1.23596e-05
-9.47014e-06
1.16552e-05
-9.59723e-06
1.09304e-05
-9.7305e-06
1.0182e-05
-9.87012e-06
9.40649e-06
-1.00161e-05
8.59933e-06
-1.0168e-05
7.75505e-06
-1.03251e-05
6.86687e-06
-1.04857e-05
5.92661e-06
-1.06461e-05
4.92389e-06
-1.08036e-05
3.84686e-06
-1.09429e-05
2.68014e-06
-1.1072e-05
1.40096e-06
-1.11061e-05
-1.12296e-05
2.17712e-05
-7.49236e-06
2.1227e-05
-7.5489e-06
2.06762e-05
-7.60778e-06
2.01188e-05
-7.67356e-06
1.95549e-05
-7.74336e-06
1.8984e-05
-7.81473e-06
1.84056e-05
-7.88776e-06
1.78195e-05
-7.96324e-06
1.72251e-05
-8.04149e-06
1.66221e-05
-8.12257e-06
1.60098e-05
-8.20654e-06
1.53875e-05
-8.29362e-06
1.47544e-05
-8.38401e-06
1.41095e-05
-8.47789e-06
1.34516e-05
-8.57544e-06
1.27795e-05
-8.6768e-06
1.20914e-05
-8.78211e-06
1.13856e-05
-8.89139e-06
1.06597e-05
-9.00456e-06
9.91089e-06
-9.12134e-06
9.13597e-06
-9.24115e-06
8.33093e-06
-9.363e-06
7.49101e-06
-9.48515e-06
6.61045e-06
-9.6051e-06
5.68252e-06
-9.71816e-06
4.69881e-06
-9.81986e-06
3.65041e-06
-9.89449e-06
2.52495e-06
-9.94654e-06
1.30821e-06
-9.88936e-06
-9.92137e-06
2.14941e-05
-6.94951e-06
2.09457e-05
-7.00048e-06
2.03911e-05
-7.05319e-06
1.98303e-05
-7.11273e-06
1.9263e-05
-7.1761e-06
1.8689e-05
-7.24068e-06
1.81077e-05
-7.3065e-06
1.75189e-05
-7.37437e-06
1.69219e-05
-7.44458e-06
1.63165e-05
-7.51708e-06
1.57018e-05
-7.59189e-06
1.50773e-05
-7.66909e-06
1.44421e-05
-7.7488e-06
1.37953e-05
-7.83107e-06
1.31357e-05
-7.91593e-06
1.24623e-05
-8.00333e-06
1.17733e-05
-8.09317e-06
1.10672e-05
-8.18523e-06
1.03417e-05
-8.2791e-06
9.59452e-06
-8.37414e-06
8.82268e-06
-8.46932e-06
8.0228e-06
-8.56312e-06
7.1909e-06
-8.65324e-06
6.32229e-06
-8.73649e-06
5.41167e-06
-8.80755e-06
4.45263e-06
-8.86081e-06
3.43897e-06
-8.88084e-06
2.36149e-06
-8.86906e-06
1.21404e-06
-8.74191e-06
-8.70733e-06
2.1161e-05
-6.40213e-06
2.06085e-05
-6.44795e-06
2.00502e-05
-6.49491e-06
1.94859e-05
-6.54844e-06
1.89154e-05
-6.60556e-06
1.83382e-05
-6.66354e-06
1.77541e-05
-6.72237e-06
1.71626e-05
-6.78284e-06
1.65632e-05
-6.84521e-06
1.59555e-05
-6.90936e-06
1.53388e-05
-6.97522e-06
1.47125e-05
-7.04282e-06
1.40759e-05
-7.11217e-06
1.34281e-05
-7.18321e-06
1.2768e-05
-7.25583e-06
1.20945e-05
-7.32983e-06
1.14062e-05
-7.40492e-06
1.07016e-05
-7.48066e-06
9.97892e-06
-7.5564e-06
9.23598e-06
-7.63119e-06
8.47036e-06
-7.7037e-06
7.6793e-06
-7.77205e-06
6.8596e-06
-7.83355e-06
6.00767e-06
-7.88456e-06
5.11962e-06
-7.91949e-06
4.19089e-06
-7.93208e-06
3.21777e-06
-7.90772e-06
2.1941e-06
-7.84538e-06
1.12037e-06
-7.66818e-06
-7.58696e-06
2.07687e-05
-5.85049e-06
2.02123e-05
-5.89158e-06
1.96506e-05
-5.93326e-06
1.90833e-05
-5.98104e-06
1.85098e-05
-6.0321e-06
1.793e-05
-6.08371e-06
1.73434e-05
-6.13584e-06
1.67498e-05
-6.1892e-06
1.61486e-05
-6.24402e-06
1.55394e-05
-6.30015e-06
1.49216e-05
-6.35745e-06
1.42947e-05
-6.41588e-06
1.36579e-05
-6.47535e-06
1.30104e-05
-6.53573e-06
1.23513e-05
-6.59678e-06
1.16797e-05
-6.65819e-06
1.09943e-05
-6.71951e-06
1.02938e-05
-6.78015e-06
9.57663e-06
-6.83926e-06