/*--------------------------------*- C++ -*----------------------------------*\
  =========                 |
  \\      /  F ield         | OpenFOAM: The Open Source CFD Toolbox
   \\    /   O peration     | Website:  https://openfoam.org
    \\  /    A nd           | Version:  11
     \\/     M anipulation  |
\*---------------------------------------------------------------------------*/
FoamFile
{
    format      ascii;
    class       volVectorField;
    location    "5.9";
    object      U;
}
// * * * * * * * * * * * * * * * * * * * * * * * * * * * * * * * * * * * * * //

dimensions      [0 1 -1 0 0 0 0];

internalField   nonuniform List<vector> 
12600
(
(0.412285 5.05862e-05 0)
(0.412209 0.000101033 0)
(0.412113 8.92182e-05 0)
(0.412029 7.45671e-05 0)
(0.412002 5.45421e-05 0)
(0.412048 2.68226e-05 0)
(0.412173 -4.42084e-06 0)
(0.41238 -3.36694e-05 0)
(0.412675 -6.2976e-05 0)
(0.413066 -9.60741e-05 0)
(0.413561 -0.000133433 0)
(0.414171 -0.000176063 0)
(0.414909 -0.000225538 0)
(0.415792 -0.000283604 0)
(0.416839 -0.000351838 0)
(0.418074 -0.000431618 0)
(0.419528 -0.000524428 0)
(0.421235 -0.000632214 0)
(0.423238 -0.000757574 0)
(0.425586 -0.000903678 0)
(0.428339 -0.00107405 0)
(0.431562 -0.00127226 0)
(0.435334 -0.00150172 0)
(0.439735 -0.00176559 0)
(0.444866 -0.0020688 0)
(0.450823 -0.00240913 0)
(0.457718 -0.00280356 0)
(0.465624 -0.00316464 0)
(0.474659 -0.00384278 0)
(0.486217 -0.00316963 0)
(0.41248 9.6234e-05 0)
(0.412589 9.1653e-05 0)
(0.412733 5.13896e-05 0)
(0.412906 -7.69438e-06 0)
(0.413128 -7.93256e-05 0)
(0.413419 -0.000159477 0)
(0.413787 -0.000247969 0)
(0.414238 -0.000345085 0)
(0.414779 -0.000450861 0)
(0.415419 -0.00056557 0)
(0.416168 -0.000690491 0)
(0.417034 -0.000827553 0)
(0.418025 -0.000979187 0)
(0.41915 -0.00114874 0)
(0.420422 -0.00134084 0)
(0.421859 -0.00156138 0)
(0.423487 -0.00181719 0)
(0.425336 -0.00211572 0)
(0.427447 -0.00246504 0)
(0.429865 -0.00287392 0)
(0.432643 -0.00335192 0)
(0.435844 -0.00390914 0)
(0.439539 -0.00455582 0)
(0.443809 -0.00530246 0)
(0.448747 -0.00615924 0)
(0.454452 -0.00712845 0)
(0.461034 -0.00822855 0)
(0.468604 -0.00935279 0)
(0.477273 -0.0109284 0)
(0.487247 -0.0107597 0)
(0.412478 9.31505e-06 0)
(0.412547 -2.15163e-05 0)
(0.412671 -0.000100851 0)
(0.412839 -0.000203948 0)
(0.41306 -0.000320583 0)
(0.413344 -0.000451563 0)
(0.413703 -0.000597926 0)
(0.414142 -0.000758658 0)
(0.414669 -0.000933504 0)
(0.41529 -0.00112377 0)
(0.416013 -0.00133101 0)
(0.416845 -0.0015566 0)
(0.417797 -0.00180287 0)
(0.41888 -0.00207463 0)
(0.42011 -0.00237986 0)
(0.421507 -0.00272902 0)
(0.423094 -0.00313389 0)
(0.4249 -0.00360689 0)
(0.426962 -0.00416113 0)
(0.429321 -0.00481083 0)
(0.43203 -0.00557155 0)
(0.435149 -0.00646019 0)
(0.438749 -0.00749467 0)
(0.442914 -0.0086935 0)
(0.447735 -0.0100749 0)
(0.453325 -0.0116487 0)
(0.459778 -0.0134407 0)
(0.467307 -0.0153476 0)
(0.475754 -0.0177852 0)
(0.486359 -0.0187064 0)
(0.412473 -1.64137e-05 0)
(0.412525 -7.95628e-05 0)
(0.412633 -0.000183045 0)
(0.412792 -0.000318797 0)
(0.413004 -0.00047835 0)
(0.413277 -0.000659452 0)
(0.413622 -0.00086155 0)
(0.414046 -0.00108336 0)
(0.414555 -0.00132403 0)
(0.415156 -0.00158408 0)
(0.415853 -0.00186545 0)
(0.416656 -0.00217171 0)
(0.417571 -0.00250836 0)
(0.418612 -0.00288316 0)
(0.419795 -0.00330626 0)
(0.421138 -0.00378999 0)
(0.422663 -0.0043487 0)
(0.4244 -0.00499862 0)
(0.426382 -0.00575794 0)
(0.42865 -0.00664698 0)
(0.431254 -0.00768839 0)
(0.434254 -0.00890714 0)
(0.43772 -0.0103301 0)
(0.441736 -0.0119848 0)
(0.446395 -0.0138993 0)
(0.451816 -0.0160919 0)
(0.458093 -0.0186003 0)
(0.465475 -0.0213213 0)
(0.473765 -0.0246859 0)
(0.48442 -0.0266866 0)
(0.41247 -3.96451e-05 0)
(0.41251 -0.000139067 0)
(0.412605 -0.000280359 0)
(0.412752 -0.000457923 0)
(0.412952 -0.000665043 0)
(0.413212 -0.000898403 0)
(0.41354 -0.00115686 0)
(0.413944 -0.00143955 0)
(0.414428 -0.00174602 0)
(0.414999 -0.00207699 0)
(0.415662 -0.00243471 0)
(0.416425 -0.00282322 0)
(0.417296 -0.00324896 0)
(0.418287 -0.00372137 0)
(0.41941 -0.00425311 0)
(0.420685 -0.00485987 0)
(0.422131 -0.00555998 0)
(0.423776 -0.00637418 0)
(0.425653 -0.00732575 0)
(0.427801 -0.00844079 0)
(0.430268 -0.00974856 0)
(0.433112 -0.0112815 0)
(0.436402 -0.0130751 0)
(0.44022 -0.0151666 0)
(0.44466 -0.0175951 0)
(0.449847 -0.0203914 0)
(0.455877 -0.0236044 0)
(0.463031 -0.027152 0)
(0.471075 -0.0314423 0)
(0.481689 -0.0346269 0)
(0.412468 -5.67685e-05 0)
(0.412502 -0.000190945 0)
(0.412586 -0.000366217 0)
(0.412722 -0.000580146 0)
(0.412909 -0.000828495 0)
(0.413153 -0.00110804 0)
(0.413461 -0.00141723 0)
(0.41384 -0.00175505 0)
(0.414295 -0.00212085 0)
(0.414831 -0.00251514 0)
(0.415453 -0.00294048 0)
(0.416168 -0.00340205 0)
(0.416984 -0.00390816 0)
(0.417911 -0.0044705 0)
(0.418961 -0.00510414 0)
(0.420151 -0.0058274 0)
(0.4215 -0.00666168 0)
(0.423034 -0.00763148 0)
(0.424783 -0.00876472 0)
(0.426784 -0.0100931 0)
(0.429082 -0.0116526 0)
(0.431732 -0.0134837 0)
(0.4348 -0.0156312 0)
(0.438367 -0.0181438 0)
(0.442527 -0.0210728 0)
(0.447407 -0.0244647 0)
(0.453106 -0.0283829 0)
(0.459938 -0.0327741 0)
(0.467633 -0.0380219 0)
(0.47811 -0.0424678 0)
(0.412467 -7.13478e-05 0)
(0.412497 -0.000236053 0)
(0.412572 -0.000444055 0)
(0.412695 -0.000693874 0)
(0.412867 -0.000982617 0)
(0.413092 -0.00130724 0)
(0.413377 -0.00166569 0)
(0.413726 -0.00205664 0)
(0.414146 -0.00247944 0)
(0.414641 -0.00293482 0)
(0.415215 -0.00342573 0)
(0.415874 -0.00395804 0)
(0.416626 -0.00454114 0)
(0.417479 -0.00518822 0)
(0.418444 -0.00591643 0)
(0.419536 -0.00674673 0)
(0.420773 -0.00770378 0)
(0.422177 -0.00881598 0)
(0.423776 -0.0101158 0)
(0.425604 -0.0116403 0)
(0.427702 -0.0134319 0)
(0.430122 -0.0155389 0)
(0.432926 -0.0180155 0)
(0.436191 -0.020922 0)
(0.440007 -0.0243239 0)
(0.444506 -0.0282858 0)
(0.449784 -0.0328898 0)
(0.456186 -0.0381203 0)
(0.463409 -0.0443389 0)
(0.473611 -0.0501249 0)
(0.412466 -8.3924e-05 0)
(0.412492 -0.000275896 0)
(0.412559 -0.000514377 0)
(0.412669 -0.000797674 0)
(0.412824 -0.0011235 0)
(0.413029 -0.00148907 0)
(0.413287 -0.00189207 0)
(0.413605 -0.00233093 0)
(0.413986 -0.00280492 0)
(0.414434 -0.00331479 0)
(0.414954 -0.00386375 0)
(0.41555 -0.00445834 0)
(0.416229 -0.00510912 0)
(0.416999 -0.00583092 0)
(0.417868 -0.00664293 0)
(0.418849 -0.00756854 0)
(0.419958 -0.00863523 0)
(0.421216 -0.00987475 0)
(0.422645 -0.0113236 0)
(0.424277 -0.0130238 0)
(0.426147 -0.0150238 0)
(0.428303 -0.0173796 0)
(0.430801 -0.020155 0)
(0.433712 -0.0234224 0)
(0.437121 -0.027263 0)
(0.441159 -0.0317616 0)
(0.445917 -0.0370232 0)
(0.451766 -0.0430785 0)
(0.45837 -0.0502721 0)
(0.468104 -0.0574753 0)
(0.412465 -9.48729e-05 0)
(0.412488 -0.000310892 0)
(0.412546 -0.000576794 0)
(0.412643 -0.000890445 0)
(0.412781 -0.00124981 0)
(0.412963 -0.00165229 0)
(0.413192 -0.00209544 0)
(0.413474 -0.00257743 0)
(0.413812 -0.00309741 0)
(0.41421 -0.00365622 0)
(0.41467 -0.00425734 0)
(0.415197 -0.00490791 0)
(0.415796 -0.00561936 0)
(0.416473 -0.00640778 0)
(0.417236 -0.00729397 0)
(0.418096 -0.00830335 0)
(0.419065 -0.00946592 0)
(0.420161 -0.0108164 0)
(0.421403 -0.012395 0)
(0.422817 -0.014248 0)
(0.424435 -0.0164295 0)
(0.426295 -0.0190025 0)
(0.428448 -0.02204 0)
(0.430956 -0.0256264 0)
(0.433898 -0.0298586 0)
(0.437394 -0.0348441 0)
(0.441529 -0.0407136 0)
(0.446687 -0.0475523 0)
(0.452504 -0.0556941 0)
(0.461514 -0.0643592 0)
(0.412464 -0.000104321 0)
(0.412484 -0.000341187 0)
(0.412534 -0.000631156 0)
(0.412618 -0.000971647 0)
(0.412737 -0.00136063 0)
(0.412894 -0.00179556 0)
(0.413093 -0.00227387 0)
(0.413336 -0.00279349 0)
(0.413628 -0.00335346 0)
(0.413971 -0.00395458 0)
(0.414366 -0.00460053 0)
(0.414819 -0.00529884 0)
(0.415331 -0.00606167 0)
(0.415909 -0.00690615 0)
(0.416558 -0.00785447 0)
(0.417287 -0.00893381 0)
(0.418106 -0.0101762 0)
(0.419027 -0.011619 0)
(0.420067 -0.0133051 0)
(0.421246 -0.0152846 0)
(0.422589 -0.0176164 0)
(0.424127 -0.0203695 0)
(0.4259 -0.0236255 0)
(0.427962 -0.0274798 0)
(0.430376 -0.0320451 0)
(0.433253 -0.0374513 0)
(0.436661 -0.0438576 0)
(0.440978 -0.0514088 0)
(0.445825 -0.0604343 0)
(0.453796 -0.0705525 0)
(0.412464 -0.000112306 0)
(0.41248 -0.000366831 0)
(0.412522 -0.000677313 0)
(0.412592 -0.00104077 0)
(0.412691 -0.00145505 0)
(0.412823 -0.00191757 0)
(0.412989 -0.00242563 0)
(0.413192 -0.00297699 0)
(0.413435 -0.00357049 0)
(0.413719 -0.00420691 0)
(0.414046 -0.00489005 0)
(0.414419 -0.00562775 0)
(0.414841 -0.0064327 0)
(0.415313 -0.00732282 0)
(0.415842 -0.00832134 0)
(0.416432 -0.00945671 0)
(0.417091 -0.0107626 0)
(0.417828 -0.012278 0)
(0.418654 -0.0140482 0)
(0.419584 -0.0161262 0)
(0.420634 -0.0185744 0)
(0.421828 -0.0214668 0)
(0.423193 -0.0248917 0)
(0.424771 -0.0289545 0)
(0.426608 -0.0337817 0)
(0.428793 -0.0395241 0)
(0.431376 -0.0463693 0)
(0.434702 -0.0545228 0)
(0.438389 -0.0643154 0)
(0.444957 -0.0757939 0)
(0.412463 -0.000118838 0)
(0.412476 -0.000387813 0)
(0.412509 -0.000715108 0)
(0.412565 -0.00109739 0)
(0.412645 -0.00153235 0)
(0.412749 -0.0020173 0)
(0.412881 -0.0025494 0)
(0.413042 -0.00312624 0)
(0.413234 -0.0037465 0)
(0.413457 -0.00441088 0)
(0.413713 -0.0051232 0)
(0.414004 -0.00589148 0)
(0.41433 -0.00672872 0)
(0.414693 -0.00765333 0)
(0.415096 -0.00868923 0)
(0.415542 -0.00986573 0)
(0.416036 -0.0112175 0)
(0.416581 -0.0127847 0)
(0.417185 -0.0146141 0)
(0.417855 -0.0167602 0)
(0.418601 -0.019288 0)
(0.419435 -0.0222747 0)
(0.420372 -0.0258136 0)
(0.421436 -0.0300171 0)
(0.422655 -0.0350228 0)
(0.42409 -0.0409988 0)
(0.425763 -0.0481579 0)
(0.427957 -0.0567615 0)
(0.430307 -0.0671449 0)
(0.435084 -0.079782 0)
(0.412462 -0.000123918 0)
(0.412472 -0.000404111 0)
(0.412497 -0.000744414 0)
(0.412538 -0.0011412 0)
(0.412597 -0.00159199 0)
(0.412675 -0.00209397 0)
(0.412772 -0.00264417 0)
(0.412889 -0.00324 0)
(0.413028 -0.00387998 0)
(0.413188 -0.00456469 0)
(0.413371 -0.00529789 0)
(0.413576 -0.00608764 0)
(0.413804 -0.00694708 0)
(0.414055 -0.00789483 0)
(0.41433 -0.00895512 0)
(0.414629 -0.0101576 0)
(0.414953 -0.0115374 0)
(0.415303 -0.0131352 0)
(0.41568 -0.0149981 0)
(0.416086 -0.0171812 0)
(0.41652 -0.0197504 0)
(0.416985 -0.0227842 0)
(0.417483 -0.0263782 0)
(0.418017 -0.0306486 0)
(0.418592 -0.0357395 0)
(0.419235 -0.0418307 0)
(0.419935 -0.0491526 0)
(0.420886 -0.0580116 0)
(0.42175 -0.0687459 0)
(0.424366 -0.0822123 0)
(0.412461 -0.000127548 0)
(0.412468 -0.000415716 0)
(0.412484 -0.000765165 0)
(0.412512 -0.00117202 0)
(0.41255 -0.00163364 0)
(0.412599 -0.00214708 0)
(0.41266 -0.00270926 0)
(0.412733 -0.00331741 0)
(0.412819 -0.0039699 0)
(0.412915 -0.00466714 0)
(0.413023 -0.0054128 0)
(0.413142 -0.00621482 0)
(0.413271 -0.00708628 0)
(0.413408 -0.00804573 0)
(0.413553 -0.00911733 0)
(0.413703 -0.0103307 0)
(0.413857 -0.0117206 0)
(0.414011 -0.0133275 0)
(0.41416 -0.015198 0)
(0.414301 -0.0173866 0)
(0.414424 -0.0199583 0)
(0.41452 -0.0229908 0)
(0.414576 -0.0265789 0)
(0.414577 -0.0308385 0)
(0.414501 -0.0359146 0)
(0.414335 -0.0419903 0)
(0.414033 -0.0493036 0)
(0.413671 -0.0581869 0)
(0.412953 -0.0689742 0)
(0.413117 -0.0828126 0)
(0.412461 -0.00012974 0)
(0.412464 -0.000422646 0)
(0.412472 -0.000777352 0)
(0.412485 -0.00118979 0)
(0.412502 -0.00165715 0)
(0.412524 -0.00217641 0)
(0.412549 -0.00274434 0)
(0.412578 -0.00335806 0)
(0.412609 -0.00401577 0)
(0.412641 -0.00471771 0)
(0.412675 -0.00546734 0)
(0.412707 -0.00627243 0)
(0.412736 -0.00714576 0)
(0.41276 -0.00810558 0)
(0.412775 -0.0091756 0)
(0.412777 -0.0103848 0)
(0.412762 -0.0117673 0)
(0.412722 -0.0133624 0)
(0.412647 -0.0152152 0)
(0.412527 -0.0173784 0)
(0.412345 -0.0199142 0)
(0.41208 -0.0228975 0)
(0.411704 -0.026419 0)
(0.411183 -0.0305897 0)
(0.410469 -0.0355488 0)
(0.409506 -0.0414736 0)
(0.40821 -0.0485952 0)
(0.406528 -0.0572486 0)
(0.404206 -0.0677488 0)
(0.40177 -0.0813978 0)
(0.41246 -0.000130521 0)
(0.41246 -0.000424977 0)
(0.41246 -0.00078107 0)
(0.412459 -0.00119458 0)
(0.412456 -0.00166258 0)
(0.412449 -0.00218196 0)
(0.412439 -0.00274941 0)
(0.412423 -0.00336194 0)
(0.412401 -0.00401759 0)
(0.41237 -0.00471643 0)
(0.412328 -0.00546168 0)
(0.412274 -0.00626077 0)
(0.412205 -0.00712605 0)
(0.412117 -0.00807519 0)
(0.412005 -0.00913111 0)
(0.411862 -0.0103218 0)
(0.411682 -0.01168 0)
(0.411453 -0.0132432 0)
(0.411162 -0.0150541 0)
(0.41079 -0.0171624 0)
(0.410314 -0.0196261 0)
(0.409704 -0.0225147 0)
(0.408918 -0.0259116 0)
(0.407902 -0.0299185 0)
(0.406584 -0.0346619 0)
(0.404868 -0.040303 0)
(0.402632 -0.0470513 0)
(0.399693 -0.0552163 0)
(0.395836 -0.0650749 0)
(0.390847 -0.0779197 0)
(0.412459 -0.000129928 0)
(0.412456 -0.00042282 0)
(0.412448 -0.000776497 0)
(0.412433 -0.00118662 0)
(0.41241 -0.0016502 0)
(0.412377 -0.00216405 0)
(0.412331 -0.00272482 0)
(0.412272 -0.00332946 0)
(0.412196 -0.00397589 0)
(0.412103 -0.00466398 0)
(0.411989 -0.00539665 0)
(0.411851 -0.00618092 0)
(0.411685 -0.00702857 0)
(0.411488 -0.00795644 0)
(0.411252 -0.00898639 0)
(0.410969 -0.010145 0)
(0.41063 -0.0114631 0)
(0.41022 -0.0129757 0)
(0.409722 -0.0147224 0)
(0.409113 -0.0167487 0)
(0.408362 -0.0191071 0)
(0.40743 -0.0218596 0)
(0.406264 -0.0250795 0)
(0.404795 -0.0288547 0)
(0.402929 -0.0332931 0)
(0.400535 -0.0385301 0)
(0.397455 -0.0447387 0)
(0.393398 -0.0521764 0)
(0.388173 -0.0610605 0)
(0.380903 -0.0725061 0)
(0.412459 -0.000128015 0)
(0.412453 -0.000416335 0)
(0.412437 -0.000763902 0)
(0.412409 -0.00116629 0)
(0.412366 -0.00162046 0)
(0.412306 -0.00212323 0)
(0.412227 -0.00267126 0)
(0.412125 -0.00326148 0)
(0.411999 -0.00389169 0)
(0.411844 -0.00456159 0)
(0.411659 -0.00527378 0)
(0.41144 -0.00603479 0)
(0.411182 -0.00685568 0)
(0.410879 -0.0077523 0)
(0.410525 -0.00874517 0)
(0.410109 -0.00985908 0)
(0.409619 -0.0111226 0)
(0.409038 -0.0125677 0)
(0.408347 -0.0142303 0)
(0.407517 -0.0161507 0)
(0.406514 -0.0183749 0)
(0.40529 -0.0209556 0)
(0.403785 -0.0239538 0)
(0.401916 -0.0274404 0)
(0.399575 -0.0314994 0)
(0.396603 -0.0362327 0)
(0.392818 -0.0417653 0)
(0.387847 -0.0482796 0)
(0.381514 -0.0559159 0)
(0.372443 -0.0654682 0)
(0.412458 -0.00012486 0)
(0.412449 -0.000405763 0)
(0.412427 -0.000743677 0)
(0.412386 -0.00113412 0)
(0.412325 -0.00157404 0)
(0.41224 -0.00206032 0)
(0.412128 -0.00258971 0)
(0.411985 -0.00315916 0)
(0.411809 -0.00376643 0)
(0.411597 -0.00441101 0)
(0.411344 -0.0050952 0)
(0.411047 -0.00582498 0)
(0.4107 -0.00661058 0)
(0.410298 -0.00746671 0)
(0.409831 -0.00841233 0)
(0.409289 -0.00947017 0)
(0.408658 -0.0106662 0)
(0.40792 -0.0120291 0)
(0.407052 -0.0135904 0)
(0.406022 -0.0153848 0)
(0.404792 -0.0174508 0)
(0.403312 -0.019831 0)
(0.401514 -0.0225726 0)
(0.399309 -0.0257272 0)
(0.396578 -0.0293519 0)
(0.393149 -0.0335101 0)
(0.388825 -0.0382716 0)
(0.383192 -0.0437293 0)
(0.376082 -0.049937 0)
(0.365844 -0.0572729 0)
(0.412458 -0.000120562 0)
(0.412446 -0.000391403 0)
(0.412417 -0.000716318 0)
(0.412365 -0.00109079 0)
(0.412286 -0.00151179 0)
(0.412177 -0.00197638 0)
(0.412035 -0.00248147 0)
(0.411854 -0.00302409 0)
(0.411631 -0.00360198 0)
(0.411363 -0.00421451 0)
(0.411046 -0.00486363 0)
(0.410675 -0.00555474 0)
(0.410245 -0.0062972 0)
(0.409749 -0.00710443 0)
(0.409178 -0.00799367 0)
(0.408519 -0.00898544 0)
(0.407759 -0.0101028 0)
(0.406877 -0.011371 0)
(0.405848 -0.0128169 0)
(0.404641 -0.0144694 0)
(0.403215 -0.016359 0)
(0.401516 -0.0185178 0)
(0.399476 -0.0209786 0)
(0.397002 -0.0237732 0)
(0.393974 -0.0269306 0)
(0.39022 -0.0304747 0)
(0.385537 -0.0344185 0)
(0.379517 -0.0387612 0)
(0.371995 -0.0434712 0)
(0.361291 -0.0484811 0)
(0.412457 -0.000115246 0)
(0.412444 -0.000373642 0)
(0.412408 -0.000682455 0)
(0.412346 -0.00103712 0)
(0.412251 -0.00143474 0)
(0.41212 -0.00187268 0)
(0.411949 -0.00234811 0)
(0.411732 -0.00285817 0)
(0.411465 -0.00340064 0)
(0.411146 -0.00397478 0)
(0.410769 -0.00458224 0)
(0.410329 -0.00522785 0)
(0.409822 -0.00592 0)
(0.409239 -0.0066708 0)
(0.408572 -0.00749566 0)
(0.407807 -0.00841276 0)
(0.406929 -0.00944227 0)
(0.405918 -0.0106057 0)
(0.404748 -0.0119253 0)
(0.403387 -0.0134242 0)
(0.401794 -0.015125 0)
(0.399915 -0.0170496 0)
(0.397684 -0.0192166 0)
(0.395011 -0.021639 0)
(0.39178 -0.0243191 0)
(0.387829 -0.0272434 0)
(0.382969 -0.0303723 0)
(0.376831 -0.0336182 0)
(0.369259 -0.0368755 0)
(0.358756 -0.0396666 0)
(0.412457 -0.000109075 0)
(0.412441 -0.000352976 0)
(0.412401 -0.000642871 0)
(0.412329 -0.000974128 0)
(0.412221 -0.00134413 0)
(0.41207 -0.00175072 0)
(0.411872 -0.00219142 0)
(0.411621 -0.00266359 0)
(0.411315 -0.00316504 0)
(0.410947 -0.003695 0)
(0.410515 -0.00425483 0)
(0.410013 -0.00484874 0)
(0.409435 -0.00548417 0)
(0.408773 -0.00617182 0)
(0.408018 -0.00692532 0)
(0.407157 -0.00776048 0)
(0.406174 -0.00869453 0)
(0.40505 -0.00974538 0)
(0.403758 -0.010931 0)
(0.402266 -0.0122685 0)
(0.400536 -0.0137737 0)
(0.398516 -0.0154587 0)
(0.396143 -0.0173298 0)
(0.393336 -0.0193827 0)
(0.38999 -0.0215969 0)
(0.385962 -0.0239266 0)
(0.381089 -0.0262889 0)
(0.375069 -0.0285249 0)
(0.367768 -0.0304744 0)
(0.358016 -0.0313372 0)
(0.412456 -0.000102262 0)
(0.41244 -0.000330051 0)
(0.412396 -0.000598527 0)
(0.412317 -0.000902984 0)
(0.412196 -0.00124136 0)
(0.412027 -0.00161219 0)
(0.411805 -0.00201345 0)
(0.411524 -0.00244268 0)
(0.411181 -0.0028979 0)
(0.41077 -0.00337836 0)
(0.410288 -0.00388522 0)
(0.409729 -0.00442209 0)
(0.409087 -0.00499541 0)
(0.408354 -0.00561449 0)
(0.407521 -0.00629109 0)
(0.406575 -0.0070387 0)
(0.405501 -0.00787176 0)
(0.404278 -0.00880476 0)
(0.402882 -0.00985149 0)
(0.401284 -0.0110241 0)
(0.399444 -0.012332 0)
(0.397318 -0.0137791 0)
(0.394849 -0.015361 0)
(0.391966 -0.0170601 0)
(0.38858 -0.0188377 0)
(0.384578 -0.0206234 0)
(0.379827 -0.0223035 0)
(0.374114 -0.0236693 0)
(0.367329 -0.0245295 0)
(0.358711 -0.0238769 0)
(0.412456 -9.51164e-05 0)
(0.412439 -0.000305748 0)
(0.412393 -0.000550572 0)
(0.412309 -0.000824962 0)
(0.412177 -0.00112797 0)
(0.411993 -0.00145911 0)
(0.411749 -0.00181672 0)
(0.411442 -0.00219848 0)
(0.411066 -0.00260262 0)
(0.410617 -0.00302851 0)
(0.41009 -0.00347714 0)
(0.409481 -0.00395158 0)
(0.408782 -0.00445736 0)
(0.407987 -0.00500245 0)
(0.407086 -0.00559685 0)
(0.406066 -0.00625191 0)
(0.404913 -0.00697943 0)
(0.403607 -0.00779081 0)
(0.402125 -0.00869613 0)
(0.40044 -0.00970321 0)
(0.398517 -0.010816 0)
(0.396316 -0.0120324 0)
(0.393789 -0.0133399 0)
(0.390877 -0.0147111 0)
(0.387513 -0.016095 0)
(0.383614 -0.0174063 0)
(0.379086 -0.0185135 0)
(0.373806 -0.0191827 0)
(0.367698 -0.0192141 0)
(0.360418 -0.0175184 0)
(0.412456 -8.81219e-05 0)
(0.41244 -0.000281393 0)
(0.412395 -0.000500436 0)
(0.412307 -0.000741293 0)
(0.412167 -0.0010052 0)
(0.411969 -0.00129301 0)
(0.411708 -0.00160339 0)
(0.411378 -0.00193423 0)
(0.410974 -0.00228404 0)
(0.410491 -0.00265231 0)
(0.409926 -0.00303975 0)
(0.409272 -0.00344881 0)
(0.408525 -0.00388405 0)
(0.407676 -0.00435211 0)
(0.406716 -0.00486132 0)
(0.405633 -0.00542097 0)
(0.404414 -0.00604054 0)
(0.403039 -0.00672868 0)
(0.401488 -0.00749232 0)
(0.399735 -0.00833577 0)
(0.397751 -0.00925914 0)
(0.395501 -0.0102557 0)
(0.392946 -0.0113081 0)
(0.390044 -0.0123832 0)
(0.386744 -0.0134243 0)
(0.382998 -0.0143401 0)
(0.378752 -0.0149952 0)
(0.373969 -0.0151538 0)
(0.368611 -0.0146274 0)
(0.362698 -0.0123582 0)
(0.412457 -8.21165e-05 0)
(0.412444 -0.000259037 0)
(0.412402 -0.00045046 0)
(0.412314 -0.000654322 0)
(0.412168 -0.000875047 0)
(0.411959 -0.00111482 0)
(0.411682 -0.00137255 0)
(0.411332 -0.00164663 0)
(0.410904 -0.00193618 0)
(0.410393 -0.00224102 0)
(0.409795 -0.00256176 0)
(0.409104 -0.00290028 0)
(0.408316 -0.00326019 0)
(0.407422 -0.00364686 0)
(0.406413 -0.004067 0)
(0.405279 -0.00452815 0)
(0.404005 -0.00503775 0)
(0.402575 -0.00560204 0)
(0.400969 -0.00622524 0)
(0.399166 -0.00690902 0)
(0.397139 -0.00765091 0)
(0.39486 -0.00844168 0)
(0.392301 -0.00926174 0)
(0.389431 -0.0100764 0)
(0.386222 -0.0108291 0)
(0.382655 -0.0114311 0)
(0.378712 -0.0117555 0)
(0.374431 -0.0115845 0)
(0.369815 -0.0107578 0)
(0.365158 -0.00833359 0)
(0.41246 -7.84453e-05 0)
(0.412452 -0.000239951 0)
(0.412419 -0.000401759 0)
(0.412334 -0.000568113 0)
(0.412185 -0.000746813 0)
(0.411968 -0.000939993 0)
(0.411679 -0.00114624 0)
(0.411314 -0.00136432 0)
(0.410867 -0.00159389 0)
(0.410333 -0.00183503 0)
(0.409708 -0.00208824 0)
(0.408987 -0.00235497 0)
(0.408166 -0.002638 0)
(0.407236 -0.00294153 0)
(0.406188 -0.00327086 0)
(0.405012 -0.00363196 0)
(0.403695 -0.00403075 0)
(0.402223 -0.00447119 0)
(0.400577 -0.00495507 0)
(0.398738 -0.00548267 0)
(0.396684 -0.00605057 0)
(0.394394 -0.0066489 0)
(0.391847 -0.00725847 0)
(0.389026 -0.00784676 0)
(0.38592 -0.00836257 0)
(0.382536 -0.00872686 0)
(0.378889 -0.0088305 0)
(0.375069 -0.00848691 0)
(0.37112 -0.00758185 0)
(0.367517 -0.0053528 0)
(0.412463 -8.4141e-05 0)
(0.412471 -0.000225061 0)
(0.412451 -0.000342517 0)
(0.41237 -0.000457931 0)
(0.412217 -0.000583496 0)
(0.411994 -0.000720382 0)
(0.411697 -0.000867011 0)
(0.411322 -0.00102268 0)
(0.410861 -0.00118732 0)
(0.410311 -0.00136097 0)
(0.409669 -0.00154382 0)
(0.408928 -0.0017366 0)
(0.408085 -0.00194089 0)
(0.407131 -0.00215947 0)
(0.406058 -0.00239619 0)
(0.404856 -0.00265587 0)
(0.403513 -0.00294441 0)
(0.402017 -0.0032642 0)
(0.400351 -0.00361411 0)
(0.398496 -0.00399319 0)
(0.396436 -0.00439795 0)
(0.394152 -0.00481951 0)
(0.391632 -0.00524137 0)
(0.388869 -0.00563627 0)
(0.385867 -0.00596266 0)
(0.382651 -0.0061562 0)
(0.379265 -0.00613343 0)
(0.375823 -0.00573818 0)
(0.372418 -0.00491693 0)
(0.369529 -0.00306152 0)
(0.412475 -0.000121255 0)
(0.412537 -0.000266925 0)
(0.412511 -0.000349958 0)
(0.412414 -0.000422096 0)
(0.412248 -0.000499955 0)
(0.412013 -0.000583121 0)
(0.411706 -0.000670572 0)
(0.411319 -0.000762843 0)
(0.410846 -0.000860486 0)
(0.410279 -0.000963696 0)
(0.409615 -0.00107268 0)
(0.408849 -0.00118803 0)
(0.407978 -0.00131094 0)
(0.406997 -0.00144338 0)
(0.4059 -0.00158788 0)
(0.404678 -0.00174718 0)
(0.403317 -0.00192378 0)
(0.401785 -0.0021192 0)
(0.40008 -0.00233356 0)
(0.398185 -0.00256548 0)
(0.396082 -0.00281136 0)
(0.393757 -0.00306411 0)
(0.3912 -0.00331162 0)
(0.388415 -0.00353452 0)
(0.385419 -0.00370367 0)
(0.382251 -0.00377497 0)
(0.378998 -0.00369004 0)
(0.375752 -0.00334363 0)
(0.372823 -0.00269591 0)
(0.369843 -0.0011732 0)
(0.412268 -7.60033e-05 0)
(0.412105 -0.000157661 0)
(0.411803 -0.000196264 0)
(0.411387 -0.00022685 0)
(0.410896 -0.000258851 0)
(0.410337 -0.00029158 0)
(0.409704 -0.000324333 0)
(0.40899 -0.000357152 0)
(0.408191 -0.000390185 0)
(0.407302 -0.000423891 0)
(0.406319 -0.000459294 0)
(0.405237 -0.000497785 0)
(0.404048 -0.000540666 0)
(0.402743 -0.000588811 0)
(0.40131 -0.000642642 0)
(0.399737 -0.000702097 0)
(0.398012 -0.000765917 0)
(0.396119 -0.000834221 0)
(0.394042 -0.000908242 0)
(0.391764 -0.000987381 0)
(0.389271 -0.00106999 0)
(0.386556 -0.00115339 0)
(0.383619 -0.00123309 0)
(0.380476 -0.0013018 0)
(0.377164 -0.00134859 0)
(0.373756 -0.00135623 0)
(0.370371 -0.00130667 0)
(0.367204 -0.00113585 0)
(0.364538 -0.000939958 0)
(0.36206 0.00011092 0)
(0.490096 -0.00665746 -6.027e-20)
(0.494399 -0.0100579 -5.95476e-20)
(0.498159 -0.0142012 -8.51344e-19)
(0.501142 -0.0187433 -2.43421e-19)
(0.503758 -0.0235728 2.46866e-19)
(0.50618 -0.0286486 0)
(0.508436 -0.0339807 0)
(0.510571 -0.039605 2.48623e-19)
(0.512657 -0.0455586 -2.52694e-19)
(0.514748 -0.0518737 -5.01976e-19)
(0.516871 -0.0585836 5.10561e-19)
(0.519034 -0.0657291 0)
(0.521237 -0.0733636 -5.06589e-19)
(0.523485 -0.0815539 5.15803e-19)
(0.525783 -0.0903822 0)
(0.528148 -0.0999538 1.01437e-18)
(0.530592 -0.110395 5.01217e-19)
(0.533127 -0.12186 4.87669e-19)
(0.535764 -0.134542 4.87687e-19)
(0.538512 -0.148681 4.6523e-19)
(0.541374 -0.164583 -4.59987e-19)
(0.544349 -0.182642 1.36184e-18)
(0.547408 -0.203371 0)
(0.550531 -0.227432 -7.61283e-19)
(0.55355 -0.25575 3.10867e-19)
(0.556399 -0.289528 -6.01116e-19)
(0.558683 -0.329906 -5.67756e-19)
(0.558356 -0.383426 0)
(0.5617 -0.431549 0)
(0.537599 -0.557034 2.39818e-19)
(0.494061 -0.0152564 -9.91285e-19)
(0.496849 -0.0190327 0)
(0.499142 -0.0234846 0)
(0.500999 -0.0282049 -1.00958e-18)
(0.502725 -0.0331149 1.01726e-18)
(0.504451 -0.0382497 1.02469e-18)
(0.506184 -0.0436617 -2.55693e-19)
(0.507926 -0.0493871 2.59971e-19)
(0.509696 -0.0554494 7.88548e-19)
(0.511497 -0.061873 1.31861e-18)
(0.513314 -0.0686933 -5.24226e-19)
(0.515132 -0.075959 1.07573e-18)
(0.516942 -0.083732 5.36682e-19)
(0.518747 -0.0920865 5.49225e-19)
(0.520551 -0.10111 5.4102e-19)
(0.522357 -0.110908 1.0858e-18)
(0.524164 -0.121608 0)
(0.525963 -0.133365 -5.26059e-19)
(0.527742 -0.146369 -5.38495e-19)
(0.529477 -0.16086 0)
(0.531133 -0.177139 4.98353e-19)
(0.532656 -0.195584 5.09191e-19)
(0.533949 -0.216689 -9.80856e-19)
(0.534904 -0.241073 0)
(0.535217 -0.269597 3.71427e-19)
(0.534729 -0.303282 3.71888e-19)
(0.532546 -0.34352 -6.10849e-19)
(0.52741 -0.39411 8.68965e-20)
(0.523309 -0.444335 -8.99494e-20)
(0.492296 -0.557599 -1.62024e-19)
(0.492411 -0.0234908 1.00927e-18)
(0.494287 -0.0271669 0)
(0.495924 -0.0315113 -1.27702e-19)
(0.497504 -0.0361823 2.20051e-18)
(0.499116 -0.0411036 -7.80015e-19)
(0.500757 -0.0462901 -1.57349e-18)
(0.502389 -0.0517667 1.33363e-18)
(0.50399 -0.0575507 -2.66188e-19)
(0.505555 -0.0636645 -8.01934e-19)
(0.50708 -0.070144 -2.551e-19)
(0.508558 -0.0770374 2.75546e-19)
(0.509988 -0.0844012 -1.64608e-18)
(0.511371 -0.0922991 1.11256e-18)
(0.512708 -0.100804 -1.67397e-18)
(0.513994 -0.110001 0)
(0.515216 -0.119993 -1.11848e-18)
(0.516356 -0.130907 0)
(0.517385 -0.142896 0)
(0.518267 -0.156147 1.1123e-18)
(0.51895 -0.170894 0)
(0.51936 -0.187426 0)
(0.519398 -0.206105 -1.05926e-18)
(0.518902 -0.227394 1.0222e-18)
(0.517681 -0.251864 0)
(0.515323 -0.280302 0)
(0.51156 -0.313591 -7.92963e-19)
(0.505159 -0.353126 1.50067e-19)
(0.495488 -0.401087 -2.19673e-19)
(0.483564 -0.452483 -1.05473e-19)
(0.447013 -0.553459 0)
(0.490354 -0.0319817 -3.22535e-20)
(0.491885 -0.0357539 -3.2385e-20)
(0.493216 -0.0401558 9.96685e-19)
(0.494606 -0.0448729 -2.13377e-18)
(0.49602 -0.0498324 1.35125e-19)
(0.497384 -0.0550472 2.71014e-19)
(0.498674 -0.0605475 -2.60579e-19)
(0.499896 -0.0663628 0)
(0.501056 -0.072527 1.41095e-18)
(0.502159 -0.0790813 -2.55326e-18)
(0.5032 -0.0860726 1.15663e-18)
(0.504173 -0.0935527 5.75244e-19)
(0.505069 -0.101581 -1.76857e-18)
(0.505873 -0.110226 0)
(0.506562 -0.119576 0)
(0.50711 -0.129732 1.21614e-18)
(0.50748 -0.140818 1.22592e-18)
(0.50763 -0.152984 5.99177e-19)
(0.507498 -0.166411 -1.39918e-20)
(0.507006 -0.18132 -6.14819e-19)
(0.506045 -0.197984 0)
(0.504467 -0.216737 0)
(0.502056 -0.238003 -6.51831e-19)
(0.498547 -0.262293 -1.79712e-18)
(0.493437 -0.290304 0)
(0.48637 -0.322766 -6.32169e-19)
(0.475853 -0.36096 7.78731e-19)
(0.461808 -0.406132 -1.54253e-18)
(0.442285 -0.456466 1.79794e-19)
(0.40196 -0.544972 0)
(0.48742 -0.0404025 0)
(0.488592 -0.0442147 1.08394e-18)
(0.489544 -0.0486146 -9.48939e-19)
(0.49061 -0.0533287 9.58759e-19)
(0.491706 -0.058302 1.3906e-19)
(0.492726 -0.0635506 -1.4155e-19)
(0.493654 -0.0691035 -1.13433e-18)
(0.494509 -0.0749881 0)
(0.495296 -0.0812341 2.19746e-20)
(0.496002 -0.0878781 1.17493e-18)
(0.496611 -0.0949633 -1.48778e-18)
(0.497108 -0.102541 1.53643e-18)
(0.497473 -0.11067 1.52311e-18)
(0.497682 -0.119423 -3.13012e-19)
(0.497704 -0.128884 1.90855e-18)
(0.497501 -0.139153 -1.23381e-18)
(0.497027 -0.15035 -1.29454e-18)
(0.496217 -0.162616 -6.56258e-19)
(0.494992 -0.176119 0)
(0.493244 -0.191067 0)
(0.490832 -0.207708 0)
(0.487567 -0.226344 6.56511e-19)
(0.483186 -0.247349 1.99499e-18)
(0.477361 -0.271169 6.22675e-19)
(0.469524 -0.298397 1.29922e-18)
(0.459243 -0.329616 -8.26582e-19)
(0.444861 -0.36596 1.32012e-18)
(0.426672 -0.407997 -2.64109e-19)
(0.400283 -0.45583 9.45372e-19)
(0.357626 -0.532255 1.12576e-18)
(0.483595 -0.048747 -1.10717e-18)
(0.484422 -0.0526145 -1.10753e-18)
(0.485003 -0.0570467 -1.14046e-18)
(0.485744 -0.061797 0)
(0.486522 -0.0668155 0)
(0.487198 -0.0721148 -1.18818e-18)
(0.487755 -0.0777201 0)
(0.488216 -0.0836574 9.22235e-19)
(0.488579 -0.0899568 -2.15046e-18)
(0.488822 -0.0966555 1.2623e-18)
(0.488925 -0.103798 9.67317e-19)
(0.488866 -0.111436 -2.57019e-18)
(0.488622 -0.119628 2.32002e-21)
(0.488161 -0.128443 -1.01544e-18)
(0.487442 -0.13796 4.58821e-20)
(0.486417 -0.148275 -1.34473e-18)
(0.485022 -0.159497 -5.61619e-20)
(0.483178 -0.171757 1.44557e-18)
(0.480782 -0.185212 -7.59675e-19)
(0.477705 -0.200045 -7.3275e-19)
(0.473775 -0.216479 1.52465e-18)
(0.468771 -0.234778 0)
(0.46239 -0.25526 -1.45826e-18)
(0.454258 -0.278298 0)
(0.44376 -0.304377 -1.62452e-18)
(0.430403 -0.333937 1.44699e-18)
(0.412449 -0.367931 2.38051e-19)
(0.390438 -0.406416 1.35645e-18)
(0.358162 -0.450543 -1.57097e-18)
(0.314385 -0.515432 8.69779e-19)
(0.478776 -0.0569356 1.09621e-18)
(0.479242 -0.0608604 -3.60944e-20)
(0.479431 -0.0653225 1.38805e-18)
(0.479813 -0.0700976 4.54203e-19)
(0.480235 -0.075141 0)
(0.480522 -0.0804651 1.21927e-18)
(0.480659 -0.0860955 9.45747e-19)
(0.480671 -0.092059 -1.57689e-18)
(0.480557 -0.0983859 6.2271e-19)
(0.480288 -0.105113 -6.32053e-19)
(0.479836 -0.112281 -1.3225e-18)
(0.479175 -0.11994 1.34574e-18)
(0.478274 -0.128145 -3.61213e-19)
(0.477091 -0.136959 1.03963e-18)
(0.475577 -0.146457 -3.22233e-19)
(0.473671 -0.156725 -3.70203e-19)
(0.471297 -0.167865 2.24874e-18)
(0.468361 -0.179994 -2.29633e-18)
(0.464743 -0.19325 1.53608e-18)
(0.460293 -0.207795 4.29888e-19)
(0.454817 -0.223819 -1.18498e-18)
(0.448067 -0.241541 8.76469e-19)
(0.43971 -0.261224 0)
(0.429339 -0.283161 -4.39092e-19)
(0.416316 -0.30773 2.18711e-18)
(0.400105 -0.335235 0)
(0.378961 -0.366425 -3.26594e-18)
(0.353566 -0.400978 4.97264e-19)
(0.31653 -0.440525 0)
(0.272473 -0.494667 -1.67942e-18)
(0.472845 -0.0648385 -5.99574e-19)
(0.47293 -0.0688138 -7.54996e-20)
(0.472701 -0.0732929 -4.69002e-19)
(0.472697 -0.0780759 -6.97873e-19)
(0.472731 -0.0831241 1.58888e-19)
(0.472598 -0.0884506 -1.62133e-19)
(0.472279 -0.0940803 -6.51705e-19)
(0.471807 -0.100039 -6.82534e-19)
(0.471176 -0.106355 6.76286e-19)
(0.470352 -0.113063 -3.40152e-19)
(0.469301 -0.120201 -3.57568e-19)
(0.46799 -0.127816 0)
(0.466381 -0.135957 1.10614e-18)
(0.464427 -0.144684 -3.82418e-19)
(0.462068 -0.154064 -7.67085e-19)