/*--------------------------------*- C++ -*----------------------------------*\
  =========                 |
  \\      /  F ield         | OpenFOAM: The Open Source CFD Toolbox
   \\    /   O peration     | Website:  https://openfoam.org
    \\  /    A nd           | Version:  11
     \\/     M anipulation  |
\*---------------------------------------------------------------------------*/
FoamFile
{
    format      ascii;
    class       surfaceScalarField;
    location    "3.7";
    object      phi;
}
// * * * * * * * * * * * * * * * * * * * * * * * * * * * * * * * * * * * * * //

dimensions      [0 3 -1 0 0 0 0];

internalField   nonuniform List<scalar> 
24840
(
1.53201e-05
1.32735e-08
1.5302e-05
1.80873e-08
1.52854e-05
1.65246e-08
1.52695e-05
1.59172e-08
1.52539e-05
1.56269e-08
1.52388e-05
1.50741e-08
1.52246e-05
1.4213e-08
1.52116e-05
1.30303e-08
1.52e-05
1.15662e-08
1.51902e-05
9.85565e-09
1.51825e-05
7.62291e-09
1.51776e-05
4.9786e-09
1.51757e-05
1.83039e-09
1.51778e-05
-2.05748e-09
1.51846e-05
-6.84276e-09
1.51973e-05
-1.27132e-08
1.52174e-05
-2.00113e-08
1.52461e-05
-2.87761e-08
1.52857e-05
-3.95919e-08
1.53395e-05
-5.37703e-08
1.54095e-05
-7.00058e-08
1.54986e-05
-8.9087e-08
1.56127e-05
-1.14158e-07
1.57583e-05
-1.45576e-07
1.59426e-05
-1.84292e-07
1.61743e-05
-2.31685e-07
1.64645e-05
-2.90188e-07
1.68218e-05
-3.5728e-07
1.72801e-05
-4.58358e-07
-4.74876e-07
1.7755e-05
1.53393e-05
7.33743e-09
1.53435e-05
1.39031e-08
1.5347e-05
1.29596e-08
1.53505e-05
1.24085e-08
1.53543e-05
1.18456e-08
1.53586e-05
1.07558e-08
1.53637e-05
9.14671e-09
1.53698e-05
6.91119e-09
1.53772e-05
4.16401e-09
1.53861e-05
9.21588e-10
1.5397e-05
-3.2773e-09
1.54102e-05
-8.20322e-09
1.54262e-05
-1.41353e-08
1.54455e-05
-2.13243e-08
1.54687e-05
-3.00441e-08
1.54966e-05
-4.0671e-08
1.553e-05
-5.3357e-08
1.55702e-05
-6.8993e-08
1.5619e-05
-8.84413e-08
1.56762e-05
-1.10963e-07
1.57465e-05
-1.40256e-07
1.58367e-05
-1.79269e-07
1.59495e-05
-2.27025e-07
1.60891e-05
-2.85131e-07
1.62612e-05
-3.56383e-07
1.64736e-05
-4.44089e-07
1.67362e-05
-5.52771e-07
1.7061e-05
-6.82159e-07
1.7463e-05
-8.60344e-07
-9.71209e-07
1.79594e-05
1.53361e-05
4.53333e-09
1.53399e-05
1.01097e-08
1.53427e-05
1.0188e-08
1.53459e-05
9.22963e-09
1.53494e-05
8.2939e-09
1.53534e-05
6.79993e-09
1.5358e-05
4.55811e-09
1.53635e-05
1.34537e-09
1.53702e-05
-2.52545e-09
1.53785e-05
-7.34397e-09
1.53885e-05
-1.33196e-08
1.54008e-05
-2.05008e-08
1.54158e-05
-2.91417e-08
1.54341e-05
-3.95736e-08
1.54562e-05
-5.21972e-08
1.54831e-05
-6.75504e-08
1.55159e-05
-8.61473e-08
1.55558e-05
-1.08917e-07
1.56045e-05
-1.37088e-07
1.56647e-05
-1.71198e-07
1.57383e-05
-2.13876e-07
1.58275e-05
-2.68439e-07
1.59367e-05
-3.36178e-07
1.60709e-05
-4.19369e-07
1.62366e-05
-5.22032e-07
1.64414e-05
-6.48937e-07
1.66956e-05
-8.06929e-07
1.70105e-05
-9.97149e-07
1.74026e-05
-1.25238e-06
-1.46523e-06
1.78966e-05
1.5335e-05
2.82549e-09
1.53382e-05
6.9306e-09
1.53409e-05
7.47932e-09
1.53438e-05
6.38133e-09
1.53471e-05
4.96042e-09
1.5351e-05
2.94821e-09
1.53554e-05
1.19136e-10
1.53608e-05
-4.01034e-09
1.53673e-05
-9.0439e-09
1.53753e-05
-1.53258e-08
1.5385e-05
-2.3048e-08
1.53969e-05
-3.23942e-08
1.54114e-05
-4.36404e-08
1.5429e-05
-5.72007e-08
1.54504e-05
-7.36062e-08
1.54764e-05
-9.3542e-08
1.55081e-05
-1.17795e-07
1.55466e-05
-1.47475e-07
1.55936e-05
-1.8404e-07
1.56512e-05
-2.28823e-07
1.57217e-05
-2.84415e-07
1.58076e-05
-3.54326e-07
1.59127e-05
-4.41226e-07
1.60418e-05
-5.48462e-07
1.6201e-05
-6.81246e-07
1.63979e-05
-8.45888e-07
1.66423e-05
-1.05131e-06
1.69465e-05
-1.3013e-06
1.73241e-05
-1.63002e-06
-1.94719e-06
1.78061e-05
1.53344e-05
1.72785e-09
1.53369e-05
4.48111e-09
1.53394e-05
4.96307e-09
1.5342e-05
3.75387e-09
1.53451e-05
1.8622e-09
1.53488e-05
-7.21364e-10
1.53532e-05
-4.25144e-09
1.53583e-05
-9.15088e-09
1.53646e-05
-1.53181e-08
1.53722e-05
-2.29796e-08
1.53816e-05
-3.23857e-08
1.5393e-05
-4.37879e-08
1.54068e-05
-5.75146e-08
1.54237e-05
-7.40556e-08
1.54441e-05
-9.40592e-08
1.5469e-05
-1.18356e-07
1.54991e-05
-1.4796e-07
1.55358e-05
-1.84184e-07
1.55805e-05
-2.28728e-07
1.56352e-05
-2.83497e-07
1.57021e-05
-3.51278e-07
1.57835e-05
-4.35787e-07
1.58831e-05
-5.40767e-07
1.60053e-05
-6.70726e-07
1.61561e-05
-8.32009e-07
1.63426e-05
-1.03243e-06
1.65741e-05
-1.28283e-06
1.6863e-05
-1.59018e-06
1.72217e-05
-1.9887e-06
-2.40779e-06
1.76823e-05
1.53341e-05
9.64066e-10
1.5336e-05
2.55235e-09
1.53383e-05
2.65774e-09
1.53408e-05
1.24731e-09
1.53438e-05
-1.06494e-09
1.53472e-05
-4.1883e-09
1.53514e-05
-8.39673e-09
1.53563e-05
-1.40601e-08
1.53622e-05
-2.12774e-08
1.53695e-05
-3.02435e-08
1.53784e-05
-4.12384e-08
1.53891e-05
-5.45666e-08
1.54022e-05
-7.06178e-08
1.54181e-05
-8.99536e-08
1.54374e-05
-1.13329e-07
1.54608e-05
-1.41713e-07
1.54891e-05
-1.7631e-07
1.55236e-05
-2.18643e-07
1.55655e-05
-2.70642e-07
1.56166e-05
-3.34627e-07
1.5679e-05
-4.13675e-07
1.5755e-05
-5.11813e-07
1.58479e-05
-6.33631e-07
1.59619e-05
-7.84684e-07
1.61023e-05
-9.72406e-07
1.62759e-05
-1.20607e-06
1.64914e-05
-1.49833e-06
1.67608e-05
-1.85956e-06
1.70957e-05
-2.32357e-06
-2.84096e-06
1.75288e-05
1.53339e-05
3.89655e-10
1.53355e-05
9.92962e-10
1.53375e-05
5.97159e-10
1.53399e-05
-1.08639e-09
1.53426e-05
-3.78828e-09
1.53458e-05
-7.43652e-09
1.53497e-05
-1.22865e-08
1.53544e-05
-1.86933e-08
1.536e-05
-2.68733e-08
1.53668e-05
-3.70482e-08
1.5375e-05
-4.95165e-08
1.53851e-05
-6.46269e-08
1.53973e-05
-8.28257e-08
1.54121e-05
-1.04741e-07
1.543e-05
-1.31224e-07
1.54516e-05
-1.63371e-07
1.54779e-05
-2.02553e-07
1.55097e-05
-2.50481e-07
1.55484e-05
-3.09305e-07
1.55954e-05
-3.81668e-07
1.56527e-05
-4.70962e-07
1.57225e-05
-5.81555e-07
1.58075e-05
-7.18714e-07
1.59118e-05
-8.8891e-07
1.604e-05
-1.10061e-06
1.61984e-05
-1.36448e-06
1.63949e-05
-1.69484e-06
1.66408e-05
-2.10546e-06
1.69469e-05
-2.6297e-06
-3.24032e-06
1.73463e-05
1.53338e-05
-6.81661e-11
1.53351e-05
-2.95321e-10
1.53369e-05
-1.22298e-09
1.53391e-05
-3.24284e-09
1.53416e-05
-6.3216e-09
1.53446e-05
-1.04593e-08
1.53482e-05
-1.59012e-08
1.53525e-05
-2.30054e-08
1.53577e-05
-3.2063e-08
1.5364e-05
-4.33383e-08
1.53717e-05
-5.71487e-08
1.53809e-05
-7.38778e-08
1.53921e-05
-9.40222e-08
1.54056e-05
-1.18272e-07
1.5422e-05
-1.47563e-07
1.54417e-05
-1.83104e-07
1.54656e-05
-2.2641e-07
1.54944e-05
-2.79359e-07
1.55294e-05
-3.44296e-07
1.55719e-05
-4.24126e-07
1.56235e-05
-5.22533e-07
1.56861e-05
-6.44214e-07
1.57624e-05
-7.9499e-07
1.58556e-05
-9.82115e-07
1.597e-05
-1.21498e-06
1.6111e-05
-1.50549e-06
1.62857e-05
-1.86952e-06
1.65043e-05
-2.32409e-06
1.67767e-05
-2.90214e-06
-3.59905e-06
1.71355e-05
1.53337e-05
-4.55928e-10
1.53348e-05
-1.37953e-09
1.53364e-05
-2.82808e-09
1.53384e-05
-5.21092e-09
1.53407e-05
-8.65092e-09
1.53435e-05
-1.32344e-08
1.53468e-05
-1.92154e-08
1.53508e-05
-2.69592e-08
1.53555e-05
-3.6806e-08
1.53612e-05
-4.90625e-08
1.53681e-05
-6.40674e-08
1.53765e-05
-8.22328e-08
1.53866e-05
-1.04099e-07
1.53987e-05
-1.30411e-07
1.54133e-05
-1.6218e-07
1.54309e-05
-2.00711e-07
1.54522e-05
-2.47637e-07
1.54778e-05
-3.04981e-07
1.55087e-05
-3.75249e-07
1.55462e-05
-4.61562e-07
1.55915e-05
-5.67849e-07
1.56464e-05
-6.99101e-07
1.5713e-05
-8.61583e-07
1.5794e-05
-1.06318e-06
1.58931e-05
-1.31407e-06
1.60148e-05
-1.6272e-06
1.61651e-05
-2.01982e-06
1.6353e-05
-2.51194e-06
1.65869e-05
-3.1361e-06
-3.91004e-06
1.68979e-05
1.53337e-05
-7.82672e-10
1.53346e-05
-2.3064e-09
1.5336e-05
-4.24028e-09
1.53378e-05
-6.98892e-09
1.53399e-05
-1.07726e-08
1.53424e-05
-1.57582e-08
1.53454e-05
-2.22203e-08
1.5349e-05
-3.05327e-08
1.53533e-05
-4.10697e-08
1.53584e-05
-5.41758e-08
1.53645e-05
-7.02129e-08
1.53719e-05
-8.96169e-08
1.53808e-05
-1.12964e-07
1.53914e-05
-1.41046e-07
1.54042e-05
-1.74936e-07
1.54195e-05
-2.16018e-07
1.54379e-05
-2.66023e-07
1.546e-05
-3.27088e-07
1.54866e-05
-4.01852e-07
1.55186e-05
-4.93598e-07
1.55572e-05
-6.06451e-07
1.56037e-05
-7.45633e-07
1.56599e-05
-9.17749e-07
1.57279e-05
-1.13115e-06
1.58104e-05
-1.39663e-06
1.59112e-05
-1.72797e-06
1.60349e-05
-2.14352e-06
1.61888e-05
-2.66585e-06
1.63798e-05
-3.32708e-06
-4.16619e-06
1.6636e-05
1.53336e-05
-1.05914e-09
1.53344e-05
-3.10581e-09
1.53357e-05
-5.48141e-09
1.53372e-05
-8.58274e-09
1.53392e-05
-1.26877e-08
1.53414e-05
-1.80268e-08
1.53441e-05
-2.49025e-08
1.53473e-05
-3.37008e-08
1.5351e-05
-4.4821e-08
1.53555e-05
-5.86376e-08
1.53608e-05
-7.55339e-08
1.53672e-05
-9.59656e-08
1.53747e-05
-1.20537e-07
1.53838e-05
-1.50078e-07
1.53945e-05
-1.8571e-07
1.54074e-05
-2.28879e-07
1.54228e-05
-2.81392e-07
1.54411e-05
-3.45468e-07
1.54631e-05
-4.23847e-07
1.54895e-05
-5.19925e-07
1.5521e-05
-6.37964e-07
1.55587e-05
-7.8335e-07
1.56039e-05
-9.62907e-07
1.5658e-05
-1.1853e-06
1.57231e-05
-1.46172e-06
1.58016e-05
-1.80653e-06
1.58969e-05
-2.23881e-06
1.60143e-05
-2.78319e-06
1.61583e-05
-3.47115e-06
-4.36077e-06
1.63529e-05
1.53336e-05
-1.29616e-09
1.53343e-05
-3.79952e-09
1.53354e-05
-6.57158e-09
1.53368e-05
-9.99862e-09
1.53385e-05
-1.43931e-08
1.53405e-05
-2.00338e-08
1.53428e-05
-2.72518e-08
1.53456e-05
-3.64467e-08
1.53488e-05
-4.80355e-08
1.53526e-05
-6.24157e-08
1.5357e-05
-7.99889e-08
1.53623e-05
-1.01227e-07
1.53685e-05
-1.26754e-07
1.53759e-05
-1.57428e-07
1.53846e-05
-1.94407e-07
1.53949e-05
-2.3918e-07
1.54071e-05
-2.93605e-07
1.54216e-05
-3.59958e-07
1.54387e-05
-4.41039e-07
1.54591e-05
-5.40312e-07
1.54833e-05
-6.62115e-07
1.55118e-05
-8.11914e-07
1.55456e-05
-9.9664e-07
1.55854e-05
-1.2251e-06
1.56323e-05
-1.50866e-06
1.56878e-05
-1.86196e-06
1.57534e-05
-2.30441e-06
1.58321e-05
-2.86197e-06
1.59261e-05
-3.56516e-06
-4.488e-06
1.60534e-05
1.53335e-05
-1.50134e-09
1.53341e-05
-4.40299e-09
1.53351e-05
-7.52626e-09
1.53363e-05
-1.12444e-08
1.53378e-05
-1.589e-08
1.53396e-05
-2.17769e-08
1.53416e-05
-2.9262e-08
1.53439e-05
-3.87579e-08
1.53466e-05
-5.06945e-08
1.53496e-05
-6.54856e-08
1.53532e-05
-8.35467e-08
1.53573e-05
-1.05361e-07
1.53621e-05
-1.31566e-07
1.53677e-05
-1.63038e-07
1.53743e-05
-2.00956e-07
1.53819e-05
-2.46835e-07
1.53909e-05
-3.02561e-07
1.54014e-05
-3.70439e-07
1.54136e-05
-4.53291e-07
1.54279e-05
-5.54604e-07
1.54445e-05
-6.78725e-07
1.54637e-05
-8.31121e-07
1.54858e-05
-1.01871e-06
1.5511e-05
-1.25027e-06
1.55394e-05
-1.53711e-06
1.55713e-05
-1.89379e-06
1.56065e-05
-2.33961e-06
1.56455e-05
-2.90102e-06
1.56875e-05
-3.60708e-06
-4.54354e-06
1.5743e-05
1.53335e-05
-1.67971e-09
1.5334e-05
-4.92862e-09
1.53349e-05
-8.3596e-09
1.5336e-05
-1.23299e-08
1.53372e-05
-1.71823e-08
1.53387e-05
-2.32561e-08
1.53404e-05
-3.09297e-08
1.53423e-05
-4.06272e-08
1.53444e-05
-5.27863e-08
1.53467e-05
-6.7831e-08
1.53493e-05
-8.6186e-08
1.53523e-05
-1.08341e-07
1.53557e-05
-1.3494e-07
1.53595e-05
-1.66867e-07
1.53639e-05
-2.05309e-07
1.53688e-05
-2.5179e-07
1.53745e-05
-3.082e-07
1.53809e-05
-3.76843e-07
1.53881e-05
-4.60531e-07
1.53962e-05
-5.62723e-07
1.54052e-05
-6.87718e-07
1.5415e-05
-8.409e-07
1.54253e-05
-1.02906e-06
1.54358e-05
-1.26077e-06
1.54458e-05
-1.54705e-06
1.5454e-05
-1.90203e-06
1.54588e-05
-2.34437e-06
1.54579e-05
-2.90013e-06
1.54471e-05
-3.59624e-06
-4.5251e-06
1.54286e-05
1.53335e-05
-1.83522e-09
1.53339e-05
-5.38744e-09
1.53347e-05
-9.08494e-09
1.53356e-05
-1.32656e-08
1.53367e-05
-1.82759e-08
1.53379e-05
-2.44741e-08
1.53392e-05
-3.22557e-08
1.53407e-05
-4.20524e-08
1.53422e-05
-5.43054e-08
1.53438e-05
-6.94433e-08
1.53455e-05
-8.78954e-08
1.53473e-05
-1.10153e-07
1.53492e-05
-1.36859e-07
1.53513e-05
-1.68896e-07
1.53534e-05
-2.07445e-07
1.53556e-05
-2.54021e-07
1.53579e-05
-3.10497e-07
1.53602e-05
-3.79149e-07
1.53625e-05
-4.62744e-07
1.53644e-05
-5.64669e-07
1.53658e-05
-6.89117e-07
1.53662e-05
-8.41308e-07
1.53649e-05
-1.02779e-06
1.5361e-05
-1.25679e-06
1.53527e-05
-1.53878e-06
1.53378e-05
-1.88715e-06
1.53128e-05
-2.31936e-06
1.52728e-05
-2.86014e-06
1.52101e-05
-3.53352e-06
-4.43296e-06
1.51179e-05
1.53335e-05
-1.97158e-09
1.53339e-05
-5.79e-09
1.53345e-05
-9.71569e-09
1.53353e-05
-1.40634e-08
1.53362e-05
-1.91793e-08
1.53372e-05
-2.54368e-08
1.53382e-05
-3.32441e-08
1.53391e-05
-4.30361e-08
1.53401e-05
-5.52528e-08
1.5341e-05
-7.03223e-08
1.53417e-05
-8.8674e-08
1.53424e-05
-1.10796e-07
1.53428e-05
-1.37323e-07
1.53431e-05
-1.69125e-07
1.5343e-05
-2.07366e-07
1.53425e-05
-2.53536e-07
1.53415e-05
-3.09468e-07
1.53397e-05
-3.77385e-07
1.5337e-05
-4.59976e-07
1.53328e-05
-5.60518e-07
1.53267e-05
-6.8304e-07
1.53179e-05
-8.3253e-07
1.53053e-05
-1.01519e-06
1.52873e-05
-1.23875e-06
1.52615e-05
-1.51295e-06
1.52244e-05
-1.85008e-06
1.5171e-05
-2.26593e-06
1.50938e-05
-2.78298e-06
1.49819e-05
-3.42154e-06
-4.27031e-06
1.48192e-05
1.53335e-05
-2.09268e-09
1.53338e-05
-6.14739e-09
1.53344e-05
-1.02663e-08
1.5335e-05
-1.47367e-08
1.53358e-05
-1.9903e-08
1.53365e-05
-2.61526e-08
1.53371e-05
-3.39026e-08
1.53377e-05
-4.35857e-08
1.53381e-05
-5.56355e-08
1.53382e-05
-7.04755e-08
1.53381e-05
-8.85306e-08
1.53376e-05
-1.1028e-07
1.53366e-05
-1.36344e-07
1.5335e-05
-1.67573e-07
1.53328e-05
-2.05099e-07
1.53296e-05
-2.5037e-07
1.53253e-05
-3.05163e-07
1.53195e-05
-3.71623e-07
1.53119e-05
-4.5233e-07
1.53018e-05
-5.50415e-07
1.52884e-05
-6.69697e-07
1.52708e-05
-8.14867e-07
1.52473e-05
-9.91703e-07
1.52158e-05
-1.20731e-06
1.51734e-05
-1.4705e-06
1.51155e-05
-1.79221e-06
1.50357e-05
-2.18612e-06
1.49243e-05
-2.67162e-06
1.47674e-05
-3.26462e-06
-4.04345e-06
1.45406e-05
1.53334e-05
-2.20304e-09
1.53338e-05
-6.47232e-09
1.53343e-05
-1.07533e-08
1.53348e-05
-1.53006e-08
1.53354e-05
-2.04593e-08
1.53359e-05
-2.66327e-08
1.53362e-05
-3.42427e-08
1.53363e-05
-4.37132e-08
1.53362e-05
-5.54666e-08
1.53356e-05
-6.99181e-08
1.53346e-05
-8.74841e-08
1.53329e-05
-1.0863e-07
1.53305e-05
-1.33955e-07
1.53272e-05
-1.64278e-07
1.53228e-05
-2.00693e-07
1.5317e-05
-2.44589e-07
1.53095e-05
-2.97669e-07
1.52999e-05
-3.61976e-07
1.52875e-05
-4.39961e-07
1.52717e-05
-5.3457e-07
1.52514e-05
-6.49378e-07
1.52252e-05
-7.88726e-07
1.51914e-05
-9.57894e-07
1.51474e-05
-1.16327e-06
1.50895e-05
-1.41261e-06
1.50126e-05
-1.71529e-06
1.4909e-05
-2.08255e-06
1.47674e-05
-2.53001e-06
1.45714e-05
-3.06863e-06
-3.76162e-06
1.42896e-05
1.53334e-05
-2.30823e-09
1.53337e-05
-6.78028e-09
1.53342e-05
-1.11958e-08
1.53347e-05
-1.57719e-08
1.53351e-05
-2.08624e-08
1.53353e-05
-2.6891e-08
1.53354e-05
-3.4279e-08
1.53351e-05
-4.34352e-08
1.53344e-05
-5.47652e-08
1.53331e-05
-6.86731e-08
1.53312e-05
-8.55628e-08
1.53285e-05
-1.0588e-07
1.53247e-05
-1.30198e-07
1.53197e-05
-1.59298e-07
1.53133e-05
-1.94221e-07
1.53049e-05
-2.36286e-07
1.52944e-05
-2.87104e-07
1.5281e-05
-3.48601e-07
1.52641e-05
-4.23071e-07
1.52428e-05
-5.13255e-07
1.52159e-05
-6.22447e-07
1.51818e-05
-7.54602e-07
1.51383e-05
-9.14456e-07
1.50827e-05
-1.10762e-06
1.50107e-05
-1.34069e-06
1.49168e-05
-1.62137e-06
1.47926e-05
-1.95827e-06
1.46254e-05
-2.36282e-06
1.43975e-05
-2.84074e-06
-3.43656e-06
1.40724e-05
1.53334e-05
-2.41567e-09
1.53338e-05
-7.09119e-09
1.53342e-05
-1.16169e-08
1.53346e-05
-1.61691e-08
1.53348e-05
-2.1128e-08
1.53349e-05
-2.69438e-08
1.53346e-05
-3.40299e-08
1.5334e-05
-4.27724e-08
1.53328e-05
-5.35554e-08
1.53309e-05
-6.677e-08
1.53281e-05
-8.28041e-08
1.53243e-05
-1.02079e-07
1.53192e-05
-1.25133e-07
1.53126e-05
-1.52706e-07
1.53042e-05
-1.85776e-07
1.52935e-05
-2.25579e-07
1.528e-05
-2.73619e-07
1.52631e-05
-3.31689e-07
1.52419e-05
-4.01908e-07
1.52155e-05
-4.86791e-07
1.51823e-05
-5.89329e-07
1.51408e-05
-7.13068e-07
1.50885e-05
-8.62169e-07
1.50223e-05
-1.04144e-06
1.4938e-05
-1.2563e-06
1.48293e-05
-1.51272e-06
1.46877e-05
-1.81667e-06
1.45001e-05
-2.1752e-06
1.42483e-05
-2.58892e-06
-3.08168e-06
1.38934e-05
1.53335e-05
-2.53569e-09
1.53338e-05
-7.4318e-09
1.53342e-05
-1.20444e-08
1.53346e-05
-1.65128e-08
1.53347e-05
-2.1273e-08
1.53346e-05
-2.68085e-08
1.53341e-05
-3.35152e-08
1.5333e-05
-4.17473e-08
1.53313e-05
-5.18653e-08
1.53288e-05
-6.42472e-08
1.53253e-05
-7.92572e-08
1.53205e-05
-9.7285e-08
1.53142e-05
-1.18833e-07
1.53061e-05
-1.44591e-07
1.52958e-05
-1.75468e-07
1.52828e-05
-2.12606e-07
1.52666e-05
-2.57389e-07
1.52463e-05
-3.11462e-07
1.52212e-05
-3.76756e-07
1.51899e-05
-4.55544e-07
1.51511e-05
-5.50502e-07
1.51028e-05
-6.64751e-07
1.50425e-05
-8.01877e-07
1.49669e-05
-9.65888e-07
1.48717e-05
-1.16105e-06
1.47506e-05
-1.39166e-06
1.45952e-05
-1.6612e-06
1.43925e-05
-1.97249e-06
1.4125e-05
-2.32147e-06
-2.71113e-06
1.37545e-05
1.53335e-05
-2.68348e-09
1.53339e-05
-7.83954e-09
1.53344e-05
-1.2511e-08
1.53347e-05
-1.68212e-08
1.53347e-05
-2.13062e-08
1.53344e-05
-2.65099e-08
1.53337e-05
-3.27722e-08
1.53323e-05
-4.03899e-08
1.53302e-05
-4.97297e-08
1.53271e-05
-6.11467e-08
1.53228e-05
-7.49728e-08
1.53171e-05
-9.15625e-08
1.53096e-05
-1.11379e-07
1.53001e-05
-1.35058e-07
1.5288e-05
-1.6343e-07
1.5273e-05
-1.97531e-07
1.52542e-05
-2.38618e-07
1.52309e-05
-2.88175e-07
1.52021e-05
-3.47934e-07
1.51664e-05
-4.19918e-07
1.51224e-05
-5.0648e-07
1.5068e-05
-6.10321e-07
1.50006e-05
-7.34463e-07
1.49168e-05
-8.8215e-07
1.48124e-05
-1.05658e-06
1.46812e-05
-1.26052e-06
1.45153e-05
-1.49525e-06
1.43026e-05
-1.75984e-06
1.40276e-05
-2.0464e-06
-2.33866e-06
1.36551e-05
1.53335e-05
-2.88239e-09
1.53341e-05
-8.36817e-09
1.53346e-05
-1.30561e-08
1.53349e-05
-1.71119e-08
1.53349e-05
-2.12634e-08
1.53344e-05
-2.6071e-08
1.53334e-05
-3.18056e-08
1.53318e-05
-3.87305e-08
1.53292e-05
-4.71896e-08
1.53256e-05
-5.75169e-08
1.53207e-05
-7.00121e-08
1.53141e-05
-8.49892e-08
1.53056e-05
-1.02868e-07
1.52947e-05
-1.24228e-07
1.52811e-05
-1.49809e-07
1.52641e-05
-1.80536e-07
1.5243e-05
-2.1753e-07
1.5217e-05
-2.62103e-07
1.51848e-05
-3.15785e-07
1.51452e-05
-3.80342e-07
1.50966e-05
-4.57807e-07
1.50367e-05
-5.50469e-07
1.49631e-05
-6.6082e-07
1.48723e-05
-7.91402e-07
1.47602e-05
-9.44472e-07
1.46212e-05
-1.12148e-06
1.44479e-05
-1.32193e-06
1.42299e-05
-1.54188e-06
1.39543e-05
-1.77082e-06
-1.97644e-06
1.35921e-05
1.53336e-05
-3.17169e-09
1.53343e-05
-9.09388e-09
1.5335e-05
-1.37182e-08
1.53353e-05
-1.7403e-08
1.53352e-05
-2.11603e-08
1.53346e-05
-2.55192e-08
1.53335e-05
-3.06521e-08
1.53316e-05
-3.67978e-08
1.53287e-05
-4.42827e-08
1.53245e-05
-5.34095e-08
1.5319e-05
-6.44422e-08
1.53116e-05
-7.76473e-08
1.53022e-05
-9.34032e-08
1.52902e-05
-1.12227e-07
1.52751e-05
-1.34764e-07
1.52564e-05
-1.61819e-07
1.52332e-05
-1.94367e-07
1.52047e-05
-2.33548e-07
1.51696e-05
-2.80679e-07
1.51265e-05
-3.37273e-07
1.50738e-05
-4.05046e-07
1.50092e-05
-4.85899e-07
1.49302e-05
-5.81835e-07
1.48336e-05
-6.94779e-07
1.47153e-05
-8.262e-07
1.45703e-05
-9.76491e-07
1.43923e-05
-1.14391e-06
1.41728e-05
-1.32242e-06
1.39024e-05
-1.50039e-06
-1.63402e-06
1.356e-05
1.53338e-05
-3.62456e-09
1.53348e-05
-1.01252e-08
1.53356e-05
-1.45208e-08
1.53359e-05
-1.77062e-08
1.53358e-05
-2.10335e-08
1.53352e-05
-2.48894e-08
1.53339e-05
-2.9344e-08
1.53317e-05
-3.46325e-08
1.53285e-05
-4.10585e-08
1.53239e-05
-4.88854e-08
1.53178e-05
-5.83408e-08
1.53098e-05
-6.96322e-08
1.52995e-05
-8.31007e-08
1.52865e-05
-9.91996e-08
1.52702e-05
-1.18469e-07
1.525e-05
-1.41591e-07
1.5225e-05
-1.69389e-07
1.51943e-05
-2.02823e-07
1.51566e-05
-2.42998e-07
1.51105e-05
-2.91173e-07
1.50542e-05
-3.48764e-07
1.49856e-05
-4.17304e-07
1.49021e-05
-4.9836e-07
1.48007e-05
-5.93333e-07
1.46776e-05
-7.03071e-07
1.45283e-05
-8.2718e-07
1.43476e-05
-9.63269e-07
1.41294e-05
-1.10422e-06
1.38681e-05
-1.23909e-06
-1.3182e-06
1.35523e-05
1.53341e-05
-4.38526e-09
1.53356e-05
-1.16239e-08
1.53365e-05
-1.545e-08
1.53368e-05
-1.80225e-08
1.53367e-05
-2.09043e-08
1.5336e-05
-2.41929e-08
1.53346e-05
-2.78974e-08
1.53322e-05
-3.22681e-08
1.53287e-05
-3.75656e-08
1.53238e-05
-4.40065e-08
1.53173e-05
-5.17844e-08
1.53087e-05
-6.10363e-08
1.52977e-05
-7.2084e-08
1.52838e-05
-8.52992e-08
1.52664e-05
-1.01112e-07
1.52449e-05
-1.20079e-07
1.52184e-05
-1.42871e-07
1.51858e-05
-1.70264e-07
1.5146e-05
-2.03148e-07
1.50973e-05
-2.42535e-07
1.50381e-05
-2.8955e-07
1.49662e-05
-3.45391e-07
1.48791e-05
-4.11244e-07
1.47738e-05
-4.8809e-07
1.46471e-05
-5.76324e-07
1.44949e-05
-6.74992e-07
1.43133e-05
-7.8171e-07
1.40984e-05
-8.89291e-07
1.38493e-05
-9.89982e-07
-1.03204e-06
1.35631e-05
1.53347e-05
-5.71849e-09
1.53369e-05
-1.38126e-08
1.53379e-05
-1.65001e-08
1.53383e-05
-1.84236e-08
1.53382e-05
-2.08237e-08
1.53375e-05
-2.3447e-08
1.53359e-05
-2.6337e-08
1.53334e-05
-2.97418e-08
1.53297e-05
-3.38508e-08
1.53245e-05
-3.88469e-08
1.53176e-05
-4.48762e-08
1.53085e-05
-5.19616e-08
1.52969e-05
-6.04817e-08
1.52823e-05
-7.06866e-08
1.52641e-05
-8.28968e-08
1.52416e-05
-9.75415e-08
1.52138e-05
-1.1513e-07
1.51798e-05
-1.36253e-07
1.51383e-05
-1.61593e-07
1.50876e-05
-1.91922e-07
1.50262e-05
-2.28092e-07
1.49518e-05
-2.70997e-07
1.48621e-05
-3.21506e-07
1.47543e-05
-3.80308e-07
1.46255e-05
-4.47538e-07
1.44725e-05
-5.21976e-07
1.42926e-05
-6.01821e-07
1.40836e-05
-6.80349e-07
1.38502e-05
-7.5651e-07
-7.75119e-07
1.35932e-05
1.53357e-05
-8.07062e-09
1.53385e-05
-1.66596e-08
1.53396e-05
-1.7582e-08
1.53402e-05
-1.9042e-08
1.53402e-05
-2.08276e-08
1.53395e-05
-2.26731e-08
1.53378e-05
-2.4709e-08
1.53352e-05
-2.71156e-08
1.53313e-05
-2.99646e-08
1.53259e-05
-3.34466e-08
1.53188e-05
-3.77138e-08
1.53093e-05
-4.25349e-08
1.52973e-05
-4.84495e-08
1.52822e-05
-5.55399e-08
1.52633e-05
-6.40341e-08
1.524e-05
-7.42345e-08
1.52113e-05
-8.64862e-08
1.51763e-05
-1.012e-07
1.51335e-05
-1.18856e-07
1.50816e-05
-1.40005e-07
1.50188e-05
-1.65257e-07
1.49431e-05
-1.95259e-07
1.48522e-05
-2.30643e-07
1.47438e-05
-2.71927e-07
1.46155e-05
-3.19185e-07
1.4465e-05
-3.71482e-07
1.42908e-05
-4.27643e-07
1.40913e-05
-4.80843e-07
1.38715e-05
-5.3671e-07
-5.3234e-07
1.36287e-05
1.53392e-05
-1.38937e-08
1.53422e-05
-1.96603e-08
1.53432e-05
-1.86523e-08
1.53434e-05
-1.92349e-08
1.53429e-05
-2.026e-08
1.53414e-05
-2.12304e-08
1.5339e-05
-2.22727e-08
1.53354e-05
-2.35212e-08
1.53304e-05
-2.4999e-08
1.53238e-05
-2.68333e-08
1.53152e-05
-2.9117e-08
1.53043e-05
-3.16055e-08
1.52906e-05
-3.47473e-08
1.52736e-05
-3.85324e-08
1.52526e-05
-4.30879e-08
1.5227e-05
-4.85929e-08
1.51957e-05
-5.52486e-08
1.51578e-05
-6.32974e-08
1.5112e-05
-7.30266e-08
1.50568e-05
-8.47667e-08
1.49904e-05
-9.88871e-08
1.49109e-05
-1.15783e-07
1.48161e-05
-1.35837e-07
1.47035e-05
-1.59346e-07
1.45707e-05
-1.86363e-07
1.44156e-05
-2.16345e-07
1.4236e-05
-2.48037e-07
1.40303e-05
-2.75191e-07
1.37915e-05
-2.97913e-07
-2.30595e-07
1.34898e-05
1.53194e-05
1.52998e-05
1.52811e-05
1.52619e-05
1.52416e-05
1.52204e-05
1.51981e-05
1.51746e-05
1.51496e-05
1.51228e-05
1.50937e-05
1.50621e-05
1.50273e-05
1.49888e-05
1.49457e-05
1.48971e-05
1.48418e-05
1.47785e-05
1.47055e-05
1.46208e-05
1.45219e-05
1.44061e-05
1.42702e-05
1.41109e-05
1.39245e-05
1.37082e-05
1.34602e-05
1.3185e-05
1.28871e-05
1.26565e-05
1.75058e-05
-8.15219e-06
8.40144e-06
1.72683e-05
-8.29904e-06
8.53654e-06
1.69975e-05
-8.44364e-06
8.71441e-06
1.66933e-05
-8.57917e-06
8.88333e-06
1.6362e-05
-8.71458e-06
9.04585e-06
1.60097e-05
-8.85441e-06
9.20681e-06
1.56397e-05
-9.00014e-06
9.37006e-06
1.52544e-05
-9.15261e-06
9.5379e-06
1.48549e-05
-9.31261e-06
9.71211e-06
1.44414e-05
-9.48055e-06
9.8941e-06
1.40132e-05
-9.65661e-06
1.00848e-05
1.35694e-05
-9.84094e-06
1.02848e-05
1.31088e-05
-1.0034e-05
1.04945e-05
1.26305e-05
-1.02365e-05
1.07148e-05
1.21334e-05
-1.04495e-05
1.09466e-05
1.16163e-05
-1.06745e-05
1.11915e-05
1.10781e-05
-1.09132e-05
1.14514e-05
1.0517e-05
-1.11677e-05
1.17288e-05
9.93102e-06
-1.14406e-05
1.20266e-05
9.3176e-06
-1.17352e-05
1.23486e-05
8.67345e-06
-1.20554e-05
1.26996e-05
7.99433e-06
-1.24065e-05
1.30856e-05
7.27466e-06
-1.27948e-05
1.35145e-05
6.50721e-06
-1.32289e-05
1.39963e-05
5.68138e-06
-1.3719e-05
1.45449e-05
4.78349e-06
-1.42798e-05
1.51777e-05
3.809e-06
-1.4925e-05
1.58995e-05
2.65011e-06
-1.57162e-05
1.68751e-05
1.50719e-06
-1.64686e-05
1.76115e-05
-1.79527e-05
1.94598e-05
1.76858e-05
-7.87863e-06
1.73762e-05
-7.9894e-06
1.70397e-05
-8.10715e-06
1.6687e-05
-8.22647e-06
1.63226e-05
-8.35019e-06
1.59484e-05
-8.48026e-06
1.5565e-05
-8.61672e-06
1.51717e-05
-8.75937e-06
1.47674e-05
-8.90827e-06
1.43504e-05
-9.06359e-06
1.39194e-05
-9.22557e-06
1.34731e-05
-9.39462e-06
1.30105e-05
-9.57142e-06
1.25309e-05
-9.75682e-06
1.20333e-05
-9.95186e-06
1.15166e-05
-1.01578e-05
1.09794e-05
-1.0376e-05
1.04201e-05
-1.06084e-05
9.83644e-06
-1.0857e-05
9.22587e-06
-1.11246e-05
8.58501e-06
-1.14146e-05
7.90957e-06
-1.17311e-05
7.19398e-06
-1.20793e-05
6.43095e-06
-1.24659e-05
5.61071e-06
-1.28988e-05
4.72073e-06
-1.33898e-05
3.74448e-06
-1.39487e-05
2.63817e-06
-1.46099e-05
1.45847e-06
-1.52889e-05
-1.64942e-05
1.7579e-05
-7.56101e-06
1.72469e-05
-7.65733e-06
1.69022e-05
-7.76242e-06
1.65493e-05
-7.8736e-06
1.61889e-05
-7.98982e-06
1.58196e-05
-8.11095e-06
1.54399e-05
-8.23697e-06
1.50485e-05
-8.36794e-06
1.46443e-05
-8.50412e-06
1.42266e-05
-8.64589e-06
1.37947e-05
-8.79369e-06
1.33481e-05
-8.94801e-06
1.28862e-05
-9.10946e-06
1.24081e-05
-9.27873e-06
1.19128e-05
-9.45664e-06
1.13992e-05
-9.64417e-06
1.08657e-05
-9.84253e-06
1.03106e-05
-1.00532e-05
9.73148e-06
-1.02779e-05
9.12578e-06
-1.05189e-05
8.49004e-06
-1.07788e-05
7.81992e-06
-1.10609e-05
7.10985e-06
-1.13692e-05
6.35262e-06
-1.17086e-05
5.53881e-06
-1.2085e-05
4.65598e-06
-1.2507e-05
3.68755e-06
-1.29803e-05
2.60644e-06
-1.35288e-05
1.4176e-06
-1.41e-05
-1.50766e-05
1.74784e-05
-7.23338e-06
1.71418e-05
-7.32074e-06
1.67952e-05
-7.41582e-06
1.64397e-05
-7.51803e-06
1.6075e-05
-7.62514e-06
1.57001e-05
-7.7361e-06
1.53143e-05
-7.85114e-06
1.49171e-05
-7.9707e-06
1.4508e-05
-8.0951e-06
1.40868e-05
-8.22461e-06
1.36526e-05
-8.35955e-06
1.32049e-05
-8.50029e-06
1.27427e-05
-8.64731e-06
1.22652e-05
-8.80115e-06
1.1771e-05
-8.96249e-06
1.1259e-05
-9.13216e-06
1.07276e-05
-9.31113e-06
1.0175e-05
-9.50057e-06
9.59897e-06
-9.70188e-06
8.99675e-06
-9.9167e-06
8.36493e-06
-1.0147e-05
7.69922e-06
-1.03952e-05
6.99417e-06
-1.06641e-05
6.24281e-06
-1.09573e-05
5.43621e-06
-1.12784e-05
4.56263e-06
-1.16334e-05
3.60684e-06
-1.20245e-05
2.54797e-06
-1.24699e-05
1.37258e-06
-1.29246e-05
-1.3704e-05
1.73464e-05
-6.89751e-06
1.70026e-05
-6.97695e-06
1.66499e-05
-7.06303e-06
1.62884e-05
-7.15657e-06
1.59182e-05
-7.25492e-06
1.55386e-05
-7.35652e-06
1.51491e-05
-7.46162e-06
1.47492e-05
-7.57077e-06
1.43383e-05
-7.68421e-06
1.39158e-05
-7.8021e-06
1.34809e-05
-7.92469e-06
1.30329e-05
-8.05229e-06
1.25709e-05
-8.1853e-06
1.20939e-05
-8.32419e-06
1.16009e-05
-8.46949e-06
1.10906e-05
-8.62183e-06
1.05614e-05
-8.78195e-06
1.00115e-05
-8.9507e-06
9.43875e-06
-9.12908e-06
8.84028e-06
-9.31823e-06
8.21278e-06
-9.51952e-06
7.55206e-06
-9.73451e-06
6.85289e-06
-9.96497e-06
6.10866e-06
-1.0213e-05
5.31098e-06
-1.04807e-05
4.44903e-06
-1.07714e-05
3.50917e-06
-1.10847e-05
2.47305e-06
-1.14338e-05
1.32255e-06
-1.17741e-05
-1.23815e-05
1.71863e-05
-6.55496e-06
1.68366e-05
-6.62725e-06
1.64788e-05
-6.70523e-06
1.61129e-05
-6.79066e-06
1.57386e-05
-6.88066e-06
1.53555e-05
-6.97337e-06
1.49628e-05
-7.06897e-06
1.45601e-05
-7.16809e-06
1.41469e-05
-7.27096e-06
1.37225e-05
-7.37768e-06
1.32862e-05
-7.48841e-06
1.28373e-05
-7.60343e-06
1.23751e-05
-7.72304e-06
1.18985e-05
-7.84758e-06
1.14064e-05
-7.97741e-06
1.08975e-05
-8.11298e-06
1.03704e-05
-8.25478e-06
9.82304e-06
-8.40338e-06
9.25334e-06
-8.55938e-06
8.65862e-06
-8.7235e-06
8.03559e-06
-8.8965e-06
7.38027e-06
-9.07919e-06
6.6877e-06
-9.2724e-06
5.95171e-06
-9.47703e-06
5.16459e-06
-9.6936e-06
4.31654e-06
-9.92339e-06
3.39538e-06
-1.01635e-05
2.38484e-06
-1.04233e-05
1.26655e-06
-1.06558e-05
-1.11149e-05
1.69978e-05
-6.20646e-06
1.66427e-05
-6.27215e-06
1.62801e-05
-6.34266e-06
1.59098e-05
-6.4204e-06
1.55315e-05
-6.50239e-06
1.51448e-05
-6.58658e-06
1.4749e-05
-6.67316e-06
1.43436e-05
-6.76276e-06
1.39283e-05
-6.8556e-06
1.35023e-05
-6.95169e-06
1.3065e-05
-7.05113e-06
1.26157e-05
-7.15412e-06
1.21535e-05
-7.26085e-06
1.16774e-05
-7.37154e-06
1.11865e-05
-7.48642e-06
1.06792e-05
-7.60574e-06
1.01542e-05
-7.72977e-06
9.60961e-06
-7.8588e-06
9.04333e-06
-7.9931e-06
8.45277e-06
-8.13295e-06
7.83483e-06
-8.27856e-06
7.18575e-06
-8.4301e-06
6.50091e-06
-8.58756e-06
5.77466e-06
-8.75078e-06
5.00003e-06
-8.91897e-06
4.16825e-06
-9.09161e-06
3.26867e-06
-9.26392e-06
2.28705e-06
-9.44164e-06
1.2071e-06
-9.57588e-06
-9.90781e-06
1.67816e-05
-5.85258e-06
1.64216e-05
-5.91217e-06
1.60547e-05
-5.97575e-06
1.56805e-05
-6.04621e-06
1.52987e-05
-6.12056e-06
1.49088e-05
-6.19667e-06
1.45103e-05
-6.27469e-06
1.41028e-05
-6.35523e-06
1.36857e-05
-6.4385e-06
1.32584e-05
-6.52443e-06
1.28203e-05
-6.61306e-06
1.23707e-05
-6.70448e-06
1.19087e-05
-6.79883e-06
1.14333e-05
-6.89619e-06
1.09436e-05
-6.99665e-06
1.04381e-05
-7.10029e-06
9.91551e-06
-7.20717e-06
9.37402e-06
-7.31731e-06
8.8116e-06
-7.43067e-06
8.2258e-06
-7.54715e-06
7.61371e-06
-7.66648e-06
6.97186e-06
-7.78824e-06
6.29602e-06
-7.91172e-06
5.58108e-06
-8.03585e-06
4.82087e-06
-8.15875e-06
4.00767e-06
-8.27841e-06
3.13237e-06
-8.38862e-06
2.18278e-06
-8.49205e-06
1.14559e-06
-8.53868e-06
-8.76223e-06
1.65392e-05
-5.49388e-06
1.61749e-05
-5.54783e-06
1.58041e-05
-5.60499e-06
1.54265e-05
-5.66855e-06
1.50415e-05
-5.73562e-06
1.46489e-05
-5.80404e-06
1.42481e-05
-5.87392e-06
1.38387e-05
-5.94585e-06
1.34202e-05
-6.01998e-06
1.2992e-05
-6.09621e-06
1.25534e-05
-6.17449e-06
1.21038e-05
-6.25486e-06
1.16423e-05
-6.33733e-06
1.1168e-05
-6.4219e-06
1.06799e-05
-6.50851e-06
1.01766e-05
-6.59708e-06
9.65694e-06
-6.68747e-06
9.11911e-06
-6.77947e-06
8.56121e-06
-6.87277e-06
7.98097e-06
-6.96691e-06
7.37572e-06
-7.06123e-06
6.74227e-06
-7.15479e-06
6.07684e-06
-7.24629e-06
5.37489e-06
-7.33389e-06
4.63102e-06
-7.41489e-06
3.8386e-06
-7.486e-06
2.99002e-06
-7.54004e-06
2.07502e-06
-7.57704e-06
1.08351e-06
-7.54718e-06
-7.67872e-06
1.6273e-05
-5.13093e-06
1.59048e-05
-5.17967e-06
1.55307e-05
-5.23089e-06
1.51501e-05
-5.28793e-06
1.47626e-05
-5.34806e-06
1.43677e-05
-5.40917e-06
1.39651e-05
-5.47132e-06
1.35543e-05
-5.53507e-06
1.31349e-05
-5.60051e-06
1.27061e-05
-5.66748e-06
1.22675e-05
-5.73589e-06
1.18184e-05
-5.80569e-06
1.13578e-05
-5.87681e-06
1.08851e-05
-5.94914e-06
1.03991e-05
-6.02249e-06
9.89864e-06
-6.09664e-06
9.38246e-06
-6.17129e-06
8.84899e-06
-6.246e-06
8.29643e-06
-6.32022e-06
7.7227e-06
-6.39319e-06
7.12537e-06
-6.4639e-06
6.50157e-06