/*--------------------------------*- C++ -*----------------------------------*\
  =========                 |
  \\      /  F ield         | OpenFOAM: The Open Source CFD Toolbox
   \\    /   O peration     | Website:  https://openfoam.org
    \\  /    A nd           | Version:  11
     \\/     M anipulation  |
\*---------------------------------------------------------------------------*/
FoamFile
{
    format      ascii;
    class       volScalarField;
    location    "7.6";
    object      p;
}
// * * * * * * * * * * * * * * * * * * * * * * * * * * * * * * * * * * * * * //

dimensions      [0 2 -2 0 0 0 0];

internalField   nonuniform List<scalar> 
12600
(
0.813412
0.813276
0.813198
0.813156
0.813105
0.813037
0.812952
0.812852
0.812731
0.812585
0.812409
0.812194
0.811934
0.811618
0.811233
0.810762
0.810187
0.809482
0.808617
0.807557
0.80626
0.804671
0.802717
0.800309
0.797336
0.793662
0.789112
0.783459
0.776459
0.767686
0.813344
0.813269
0.813202
0.813157
0.813107
0.813039
0.812956
0.812856
0.812738
0.812594
0.812419
0.812208
0.81195
0.811638
0.811257
0.810792
0.810225
0.80953
0.808675
0.807627
0.806346
0.804775
0.802845
0.800465
0.797526
0.793892
0.789386
0.783789
0.776822
0.768148
0.813313
0.813274
0.813216
0.813165
0.813114
0.813049
0.812967
0.81287
0.812753
0.812612
0.812441
0.812233
0.811982
0.811676
0.811303
0.810849
0.810293
0.809613
0.808778
0.807755
0.806503
0.804968
0.80308
0.800751
0.797873
0.794312
0.789891
0.784399
0.777519
0.768998
0.813296
0.81327
0.81322
0.813169
0.813119
0.813058
0.81298
0.812886
0.812772
0.812635
0.81247
0.812269
0.812026
0.81173
0.811369
0.81093
0.810393
0.809735
0.80893
0.807943
0.806733
0.805249
0.803422
0.801169
0.798383
0.794931
0.790639
0.7853
0.77858
0.770255
0.813287
0.813268
0.813229
0.813183
0.813132
0.813073
0.812999
0.812909
0.8128
0.812669
0.81251
0.812318
0.812085
0.811802
0.811458
0.811038
0.810524
0.809897
0.809128
0.808187
0.807032
0.805614
0.803868
0.801714
0.799047
0.79574
0.79162
0.786484
0.779988
0.771933
0.813285
0.813271
0.813238
0.813195
0.813147
0.81309
0.81302
0.812935
0.812832
0.812708
0.812558
0.812376
0.812156
0.811889
0.811564
0.811168
0.810685
0.810093
0.80937
0.808483
0.807395
0.806059
0.804413
0.80238
0.799861
0.796733
0.792826
0.787945
0.781738
0.774023
0.813288
0.813276
0.813248
0.81321
0.813164
0.813111
0.813046
0.812966
0.81287
0.812754
0.812614
0.812446
0.812241
0.811992
0.81169
0.811322
0.810873
0.810325
0.809653
0.80883
0.807821
0.80658
0.805051
0.803161
0.800817
0.797901
0.794249
0.789672
0.783819
0.776517
0.813294
0.813285
0.813261
0.813226
0.813185
0.813135
0.813075
0.813002
0.812913
0.812807
0.812678
0.812523
0.812336
0.812109
0.811833
0.811497
0.811087
0.810586
0.809974
0.809224
0.808304
0.807172
0.805776
0.804049
0.801904
0.79923
0.795873
0.791652
0.786218
0.779406
0.813305
0.813296
0.813276
0.813245
0.813208
0.813162
0.813108
0.813041
0.812961
0.812865
0.812749
0.81261
0.812442
0.812238
0.811991
0.81169
0.811324
0.810877
0.81033
0.809661
0.808839
0.807827
0.806579
0.805034
0.803111
0.80071
0.797684
0.793866
0.788915
0.782675
0.813318
0.813311
0.813293
0.813266
0.813233
0.813192
0.813143
0.813084
0.813013
0.812928
0.812827
0.812704
0.812557
0.812379
0.812163
0.8119
0.811581
0.811192
0.810717
0.810134
0.809419
0.808539
0.807452
0.806105
0.804426
0.802322
0.799664
0.796292
0.791889
0.7863
0.813333
0.813327
0.813312
0.813289
0.81326
0.813224
0.813182
0.81313
0.813069
0.812996
0.812909
0.812805
0.81268
0.812529
0.812346
0.812125
0.811857
0.81153
0.81113
0.810641
0.81004
0.8093
0.808386
0.80725
0.805832
0.804051
0.801789
0.798906
0.795109
0.79025
0.813351
0.813346
0.813333
0.813313
0.813288
0.813258
0.813222
0.813179
0.813128
0.813068
0.812996
0.812911
0.812809
0.812687
0.81254
0.812362
0.812147
0.811885
0.811565
0.811174
0.810694
0.810102
0.809369
0.808457
0.807315
0.805875
0.804037
0.801678
0.798539
0.794481
0.81337
0.813366
0.813355
0.813339
0.813318
0.813294
0.813264
0.81323
0.81319
0.813142
0.813087
0.813021
0.812944
0.812852
0.812741
0.812609
0.812448
0.812254
0.812017
0.811728
0.811373
0.810935
0.810391
0.809712
0.808858
0.807774
0.80638
0.804573
0.802137
0.798941
0.813391
0.813388
0.813379
0.813366
0.81335
0.81333
0.813308
0.813282
0.813253
0.813219
0.81318
0.813135
0.813083
0.813021
0.812948
0.812862
0.812758
0.812633
0.812482
0.812297
0.81207
0.81179
0.81144
0.811
0.810442
0.809724
0.808788
0.807553
0.805852
0.803567
0.813413
0.813411
0.813404
0.813394
0.813382
0.813368
0.813352
0.813336
0.813317
0.813297
0.813275
0.81325
0.813223
0.813193
0.813159
0.813119
0.813073
0.813019
0.812954
0.812875
0.812778
0.812657
0.812504
0.812307
0.812048
0.811702
0.811231
0.810579
0.809631
0.808286
0.813436
0.813434
0.81343
0.813422
0.813414
0.813406
0.813397
0.813389
0.813382
0.813375
0.81337
0.813366
0.813365
0.813366
0.81337
0.813378
0.813389
0.813406
0.813428
0.813455
0.813489
0.813528
0.813572
0.813616
0.813657
0.813683
0.813677
0.813609
0.813415
0.813019
0.81346
0.813459
0.813456
0.813451
0.813447
0.813444
0.813442
0.813443
0.813446
0.813453
0.813465
0.813482
0.813506
0.813538
0.81358
0.813634
0.813704
0.81379
0.813898
0.814031
0.814194
0.814392
0.81463
0.814915
0.815251
0.815643
0.816095
0.816599
0.817147
0.817686
0.813484
0.813483
0.813482
0.81348
0.813479
0.813481
0.813487
0.813496
0.81351
0.81353
0.813558
0.813595
0.813644
0.813707
0.813787
0.813887
0.814012
0.814168
0.81436
0.814597
0.814886
0.815239
0.815668
0.816186
0.816811
0.817559
0.818453
0.81951
0.820768
0.822204
0.813508
0.813508
0.813508
0.813508
0.813511
0.813518
0.81353
0.813547
0.813572
0.813605
0.813649
0.813706
0.813779
0.813872
0.813988
0.814133
0.814313
0.814535
0.81481
0.815146
0.815558
0.816062
0.816674
0.817418
0.818318
0.819407
0.820722
0.822303
0.824227
0.8265
0.813533
0.813533
0.813534
0.813536
0.813542
0.813554
0.813572
0.813597
0.813631
0.813677
0.813736
0.813812
0.813908
0.81403
0.814181
0.814369
0.814601
0.814888
0.815241
0.815673
0.816203
0.816849
0.817637
0.818595
0.819758
0.821167
0.822876
0.824942
0.827475
0.830507
0.813557
0.813558
0.813559
0.813563
0.813572
0.813588
0.813611
0.813644
0.813688
0.813745
0.813819
0.813913
0.814031
0.814179
0.814364
0.814592
0.814874
0.815222
0.815649
0.816172
0.816813
0.817595
0.818547
0.819706
0.821113
0.82282
0.824892
0.8274
0.830475
0.834172
0.813582
0.813582
0.813583
0.813588
0.8136
0.81362
0.813649
0.813688
0.813741
0.813809
0.813897
0.814007
0.814146
0.81432
0.814535
0.814801
0.81513
0.815534
0.81603
0.816638
0.817382
0.818289
0.819395
0.820739
0.822372
0.82435
0.826749
0.829651
0.833198
0.837461
0.813606
0.813606
0.813607
0.813612
0.813626
0.813649
0.813683
0.813729
0.813789
0.813868
0.813968
0.814094
0.814252
0.814448
0.814692
0.814993
0.815364
0.815821
0.81638
0.817066
0.817904
0.818926
0.820171
0.821685
0.82352
0.825743
0.828433
0.831678
0.835625
0.840351
0.81363
0.813629
0.813628
0.813633
0.813649
0.813676
0.813714
0.813766
0.813834
0.813921
0.814032
0.814172
0.814347
0.814565
0.814834
0.815167
0.815576
0.816079
0.816696
0.817451
0.818374
0.819499
0.820869
0.822533
0.824549
0.826987
0.829929
0.833469
0.837747
0.842841
0.813655
0.813652
0.813648
0.813653
0.81367
0.8137
0.813742
0.813798
0.813872
0.813968
0.814089
0.814241
0.814431
0.814667
0.814959
0.815319
0.815762
0.816306
0.816974
0.81779
0.818787
0.820003
0.821482
0.823277
0.82545
0.828072
0.83123
0.835016
0.839563
0.844939
0.813681
0.813675
0.813666
0.813669
0.813689
0.813721
0.813766
0.813826
0.813906
0.814008
0.814138
0.814301
0.814503
0.814755
0.815066
0.81545
0.815922
0.816501
0.817211
0.818079
0.819139
0.820432
0.822004
0.82391
0.826215
0.828991
0.832328
0.836316
0.841078
0.846668
0.81371
0.813697
0.813679
0.813681
0.813703
0.813738
0.813785
0.813848
0.813932
0.81404
0.814177
0.814348
0.814562
0.814826
0.815153
0.815556
0.816051
0.816659
0.817404
0.818314
0.819426
0.820781
0.822429
0.824427
0.826838
0.829738
0.833217
0.837365
0.8423
0.848057
0.813742
0.813718
0.813691
0.813693
0.813716
0.813752
0.813801
0.813867
0.813954
0.814066
0.814208
0.814386
0.814608
0.814882
0.815221
0.815638
0.816152
0.816781
0.817552
0.818495
0.819646
0.821049
0.822756
0.824824
0.827318
0.830311
0.833897
0.838164
0.843238
0.849139
0.813783
0.813723
0.813691
0.813698
0.813723
0.81376
0.81381
0.813878
0.813968
0.814083
0.814229
0.814411
0.814638
0.814919
0.815267
0.815694
0.81622
0.816864
0.817653
0.818618
0.819796
0.821232
0.822979
0.825098
0.82765
0.830707
0.834366
0.838713
0.843882
0.849904
0.813859
0.813734
0.813691
0.813702
0.813729
0.813765
0.813816
0.813885
0.813976
0.814093
0.814241
0.814425
0.814655
0.81494
0.815292
0.815725
0.816257
0.81691
0.81771
0.818688
0.819881
0.821335
0.823104
0.825247
0.827827
0.830919
0.834616
0.839009
0.844201
0.85024
0.759954
0.756926
0.754401
0.752202
0.749889
0.74736
0.744691
0.741933
0.739091
0.736153
0.733106
0.729934
0.726612
0.723108
0.719377
0.715365
0.711007
0.70622
0.700898
0.694909
0.688081
0.68019
0.67094
0.659927
0.646632
0.630158
0.610066
0.581412
0.557133
0.484754
0.761435
0.758799
0.756448
0.754287
0.752031
0.749631
0.747162
0.744658
0.7421
0.739464
0.736732
0.733888
0.730908
0.727759
0.724402
0.720793
0.716872
0.712568
0.707789
0.702419
0.696309
0.689264
0.681025
0.67125
0.659476
0.644972
0.627242
0.602827
0.579588
0.519275
0.762056
0.759888
0.757925
0.755959
0.753903
0.751772
0.749604
0.747398
0.745132
0.742791
0.740362
0.737833
0.735183
0.732385
0.729407
0.726208
0.722739
0.718937
0.714724
0.71
0.704637
0.698469
0.691274
0.682766
0.672538
0.660019
0.644667
0.62404
0.602916
0.553334
0.763386
0.761659
0.76007
0.758317
0.756451
0.754557
0.752646
0.7507
0.748703
0.746646
0.744519
0.74231
0.74
0.737564
0.734976
0.732201
0.729197
0.725912
0.722279
0.718215
0.713612
0.70833
0.702183
0.694935
0.686235
0.675645
0.662595
0.645426
0.62686
0.58676
0.765208
0.763805
0.762507
0.760962
0.759305
0.757657
0.756017
0.754348
0.752634
0.750872
0.749057
0.747175
0.74521
0.743145
0.740955
0.738615
0.736089
0.733334
0.730296
0.726906
0.723075
0.718689
0.713594
0.707597
0.700404
0.691683
0.680865
0.666903
0.651065
0.619341
0.767494
0.766386
0.765376
0.764061
0.762631
0.761235
0.759861
0.758464
0.75703
0.755563
0.754058
0.752505
0.750891
0.749202
0.74742
0.745523
0.743484
0.741269
0.738833
0.736123
0.733066
0.729572
0.725517
0.720745
0.715015
0.708078
0.699396
0.688387
0.675272
0.650849
0.770244
0.769416
0.768679
0.767594
0.76639
0.765241
0.764131
0.763006
0.761856
0.760686
0.759497
0.758278
0.757021
0.755714
0.754345
0.752897
0.75135
0.749678
0.747847
0.745816
0.743528
0.740913
0.737874
0.734289
0.729962
0.724711
0.718047
0.709726
0.69924
0.68111
0.773457
0.772896
0.772422
0.771567
0.770592
0.769691
0.768844
0.767993
0.767128
0.766257
0.765383
0.764501
0.763601
0.762679
0.761724
0.760726
0.759671
0.75854
0.757309
0.755946
0.754412
0.752651
0.750591
0.748138
0.745138
0.74146
0.736671
0.730759
0.722736
0.709955
0.777128
0.77682
0.776597
0.775971
0.775226
0.774571
0.773985
0.773406
0.772823
0.772251
0.771693
0.771145
0.770603
0.770064
0.769521
0.76897
0.768401
0.767802
0.767157
0.766445
0.765638
0.764697
0.763567
0.762178
0.760412
0.758177
0.755101
0.75131
0.745545
0.73722
0.78124
0.781172
0.781186
0.780784
0.780269
0.779859
0.77953
0.77922
0.778918
0.77864
0.778394
0.778178
0.777988
0.777825
0.777687
0.777573
0.777477
0.777394
0.777315
0.777226
0.777111
0.776942
0.77668
0.776276
0.775639
0.774705
0.773162
0.771204
0.767464
0.762763
0.785764
0.78592
0.786155
0.785973
0.785686
0.785516
0.785439
0.785391
0.785364
0.785376
0.785435
0.785541
0.785695
0.785898
0.786151
0.786458
0.786816
0.787225
0.787683
0.788182
0.788712
0.789258
0.789793
0.790283
0.790659
0.790875
0.790673
0.790269
0.788303
0.78646
0.790654
0.791017
0.791455
0.791487
0.791425
0.791488
0.791654
0.79186
0.792099
0.79239
0.792744
0.793161
0.793644
0.794196
0.794823
0.795528
0.796315
0.797186
0.798143
0.799185
0.800307
0.801503
0.802754
0.804038
0.805302
0.806513
0.807456
0.808338
0.807885
0.808208
0.795849
0.7964
0.797021
0.797259
0.797414
0.797702
0.7981
0.798549
0.799042
0.799599
0.800231
0.800943
0.801736
0.802617
0.803593
0.804669
0.805852
0.807148
0.80856
0.810094
0.811748
0.81352
0.815402
0.817374
0.8194
0.82145
0.823345
0.825266
0.826062
0.827949
0.801272
0.80199
0.802774
0.803205
0.80357
0.80407
0.804686
0.805362
0.806094
0.806899
0.807792
0.808777
0.809857
0.811041
0.812336
0.813751
0.815293
0.81697
0.81879
0.820757
0.822877
0.82515
0.827571
0.830126
0.832787
0.835525
0.838193
0.840935
0.842733
0.84568
0.80683
0.807694
0.808617
0.809229
0.809791
0.810489
0.811307
0.812192
0.813143
0.814177
0.815308
0.816541
0.817881
0.819338
0.820919
0.822635
0.824494
0.826506
0.828679
0.831021
0.833538
0.836232
0.839101
0.842133
0.845305
0.848587
0.851859
0.855222
0.857793
0.861457
0.812418
0.813407
0.814448
0.815224
0.81597
0.816849
0.817847
0.818922
0.82007
0.821309
0.822652
0.824106
0.825676
0.827372
0.829204
0.83118
0.833312
0.835609
0.838081
0.840735
0.843579
0.846615
0.849842
0.853249
0.856813
0.860501
0.864213
0.867992
0.871099
0.875252
0.817927
0.819019
0.820157
0.82108
0.821992
0.823032
0.824192
0.825433
0.826754
0.828172
0.8297
0.831344
0.833112
0.835012
0.837055
0.839251
0.84161
0.844142
0.846857
0.849762
0.852865
0.856167
0.859667
0.863351
0.867196
0.871163
0.87516
0.879177
0.882629
0.886926
0.823246
0.824423
0.825638
0.826689
0.827748
0.82893
0.830227
0.83161
0.833079
0.83465
0.836334
0.838138
0.840069
0.842138
0.844354
0.846727
0.849267
0.851985
0.854888
0.857986
0.861283
0.86478
0.868473
0.872347
0.876374
0.880508
0.88466
0.888767
0.892383
0.89652
0.828274
0.829517
0.830792
0.831952
0.833138
0.834439
0.835852
0.837353
0.838945
0.84064
0.842451
0.844383
0.846446
0.848648
0.850998
0.853508
0.856186
0.859042
0.862083
0.865318
0.868749
0.872377
0.876192
0.880179
0.884303
0.888511
0.892713
0.896803
0.900439
0.9042
0.832923
0.834218
0.835538
0.836788
0.838079
0.83948
0.840985
0.842581
0.844269
0.846063
0.847971
0.850003
0.852164
0.854465
0.856914
0.859522
0.862297
0.865247
0.86838
0.871702
0.875213
0.878913
0.882789
0.886821
0.890971
0.895178
0.899348
0.903347
0.906906
0.910217
0.837126
0.838461
0.839814
0.841136
0.842513
0.843991
0.845568
0.847235
0.848997
0.850863
0.852843
0.854945
0.857176
0.859544
0.862059
0.864729
0.867563
0.870568
0.873751
0.877114
0.880659
0.88438
0.888263
0.892281
0.896395
0.900533
0.904599
0.908435
0.911807
0.9146
0.840841
0.842205
0.843582
0.84496
0.846402
0.847939
0.849568
0.851287
0.853099
0.855015
0.857043
0.859189
0.861463
0.86387
0.866421
0.869123
0.871983
0.875008
0.878202
0.881569
0.885105
0.888802
0.892644
0.896598
0.900618
0.904624
0.908511
0.912097
0.915155
0.917361
0.84405
0.845436
0.84683
0.848248
0.849738
0.851316
0.85298
0.854731
0.856575
0.858519
0.860573
0.862742
0.865033
0.867455
0.870015
0.87272
0.875577
0.87859
0.881764
0.885099
0.88859
0.892225
0.895984
0.899829
0.903705
0.907518
0.911154
0.914403
0.917041
0.918679
0.84676
0.848163
0.849568
0.851015
0.852536
0.85414
0.855825
0.857592
0.85945
0.861407
0.863467
0.865639
0.867929
0.870345
0.872891
0.875576
0.878405
0.88138
0.884505
0.887777
0.891189
0.894727
0.898363
0.902056
0.905741
0.909312
0.912643
0.915482
0.917668
0.918449
0.848998
0.850414
0.851826
0.853288
0.854827
0.856443
0.858136
0.859909
0.86177
0.863726
0.865783
0.867946
0.870222
0.872616
0.875135
0.877783
0.880564
0.883482
0.886536
0.889723
0.893031
0.896441
0.899921
0.903421
0.906868
0.910147
0.913122
0.915477
0.917179
0.916837
0.850814
0.852244
0.853659
0.855123
0.856664
0.858278
0.859962
0.861721
0.863565
0.865501
0.867534
0.86967
0.871915
0.874272
0.876746
0.879341
0.88206
0.884903
0.887869
0.89095
0.894134
0.897399
0.900706
0.903996
0.907186
0.910139
0.912722
0.914543
0.915757
0.914276
0.852276
0.853718
0.855122
0.856577
0.858116
0.85973
0.861413
0.863171
0.865011
0.866938
0.868955
0.871066
0.873276
0.875588
0.878007
0.880535
0.883175
0.885926
0.888782
0.891734
0.894763
0.897846
0.900939
0.903975
0.906864
0.909446
0.911595
0.912811
0.913478
0.910617
0.853524
0.854946
0.856275
0.85767
0.859161
0.860719
0.862344
0.864053
0.865853
0.867748
0.869738
0.871825
0.874009
0.876296
0.878676
0.88114
0.8837
0.886356
0.889101
0.891921
0.8948
0.897705
0.900585
0.903363
0.90594
0.908127
0.909809
0.91033
0.91038
0.905765
0.854775
0.856084
0.857286
0.858696
0.860229
0.861804
0.863443
0.865158
0.866939
0.8688
0.870751
0.872789
0.87491
0.877121
0.879428
0.881822
0.884299
0.886856
0.889483
0.892131
0.894804
0.897474
0.90008
0.902533
0.904725
0.906433
0.90756
0.907242
0.906677
0.899936
0.856118
0.856857
0.857547
0.85875
0.860202
0.861744
0.863355
0.865049
0.866824
0.868691
0.870646
0.87267
0.874761
0.87693
0.879181
0.881498
0.883871
0.886309
0.888807
0.891351
0.893895
0.896399
0.8988
0.900992
0.902851
0.904112
0.904733
0.903413
0.902595
0.893137
0.88577
0.877816
0.86856
0.858446
0.847809
0.836501
0.824516
0.812196
0.800255
0.789283
0.780376
0.773066
0.767808
0.766081
0.766276
0.767571
0.768423
0.767526
0.766671
0.767012
0.766665
0.764822
0.762609
0.761173
0.760538
0.75867
0.752838
0.740618
0.72203
0.699627
0.898581
0.892259
0.88439
0.875738
0.866341
0.856149
0.845022
0.832957
0.820353
0.807526
0.795538
0.78451
0.774439
0.768055
0.766617
0.767819
0.768689
0.767504
0.766511
0.766987
0.76648
0.763936
0.761198
0.759616
0.758617
0.755217
0.746149
0.729294
0.705722
0.680496
0.899372
0.89387
0.887376
0.879732
0.87077
0.860612
0.849385
0.837389
0.824868
0.812256
0.799907
0.788589
0.778024
0.770381
0.767717
0.768158
0.768753
0.767256
0.76613
0.767207
0.766744
0.763185
0.759342
0.757298
0.755695
0.750448
0.737791
0.716624
0.690199
0.666541
0.902216
0.898487
0.893281
0.886682
0.878842
0.869513
0.858686
0.846596
0.833429
0.819764
0.806321
0.793849
0.782613
0.773923
0.76985
0.769108
0.768672
0.766831
0.765937
0.767666
0.767088
0.761525
0.75606
0.753675
0.751849
0.745035
0.729548
0.706719
0.681789
0.663133
0.902298
0.899555
0.895596
0.890459
0.883812
0.875636
0.865795
0.85433
0.841404
0.827482
0.813326
0.7998
0.787553
0.777875
0.772505
0.770604
0.769196
0.766862
0.7661
0.768417
0.767364
0.758695
0.751095
0.749174
0.748368
0.74108
0.725006
0.704251
0.686044
0.675169
0.901739
0.900221
0.89759
0.893403
0.887679
0.880362
0.871268
0.860326
0.847678
0.833721
0.819141
0.80488
0.791792
0.781187
0.774806
0.772115
0.770175
0.767606
0.76679
0.769031
0.766448
0.754012
0.744483
0.745036
0.746959
0.740812
0.726903
0.711699
0.703365
0.70199
0.900427
0.899908
0.898346
0.895235
0.890548
0.88423
0.876016
0.865704
0.853369
0.839379
0.824407
0.809462
0.79558
0.784104
0.776784
0.773378
0.771129
0.768516
0.767504
0.768639
0.76331
0.748003
0.738416
0.743583
0.749799
0.745711
0.735642
0.727112
0.727162
0.734276
0.898684
0.899064
0.898494
0.896342
0.892611
0.887274
0.879998
0.870459
0.858614
0.84475
0.829507
0.813934
0.799251
0.786905
0.778671
0.774517
0.771904
0.769255
0.767902
0.767232
0.758991
0.743007
0.736322
0.747148
0.757654
0.755203
0.748678
0.745325
0.751631
0.762033
0.896654
0.897811
0.898101
0.896798
0.893988
0.889593
0.883239
0.874515
0.863268
0.849683
0.834326
0.818245
0.802808
0.789605
0.780481
0.775593
0.772568
0.769816
0.768023
0.765643
0.755927
0.74187
0.739742
0.755315
0.767906
0.76739
0.763439
0.76408
0.772145
0.779903
0.894457
0.896281
0.897321
0.896798
0.894828
0.891324
0.885868
0.877972
0.867378
0.854163
0.838805
0.822328
0.806203
0.792177
0.782191
0.776591
0.773164
0.770241
0.768046
0.764422
0.754731
0.744159
0.746313
0.764879
0.777379
0.778872
0.777221
0.780248
0.785676
0.786286
0.892169
0.89456
0.896247
0.89642
0.895221
0.892558
0.887979
0.880921
0.871025
0.858252
0.842984
0.826199
0.809448
0.794632
0.783813
0.777521
0.773698
0.770578
0.767954
0.763574
0.754614
0.747189
0.752704
0.771474
0.783094
0.785065
0.785274
0.789049
0.789259
0.780374
0.88985
0.892716
0.894958
0.895749
0.895254
0.893376
0.889638
0.883415
0.874251
0.861987
0.846893
0.829882
0.812561
0.796986
0.785361
0.778396
0.77418
0.770853
0.767824
0.762976
0.754891
0.749989
0.75794
0.774554
0.783863
0.784832
0.786119
0.788563
0.782349
0.763956
0.887539
0.890794
0.893514
0.894855
0.895
0.893853
0.890908
0.885503
0.877089
0.865386
0.850539
0.83338
0.815545
0.799241
0.786834
0.779217
0.77462
0.771085
0.767708
0.7626
0.755484
0.752848
0.76213
0.776252
0.782835
0.782208
0.782233
0.78058
0.767127
0.740576
0.885246
0.88883
0.891958
0.89379
0.894521
0.894051
0.891847
0.887232
0.879577
0.868474
0.853936
0.836697
0.818401
0.801396
0.78823
0.779983
0.775022
0.771292
0.767631
0.762434
0.75636
0.755689
0.765382
0.777374
0.781476
0.779256
0.776326
0.768674
0.748276
0.715901
0.882977
0.886851
0.890324
0.892598
0.893864
0.894011
0.892502
0.888649
0.881749
0.871274
0.857099
0.839842
0.821134
0.803456
0.78955
0.780695
0.77539
0.771485
0.767605
0.762455
0.757428
0.758346
0.767896
0.777733
0.779502
0.77519
0.768504
0.755091
0.729841
0.693146
0.880744
0.884869
0.888633
0.891305
0.893059
0.893772
0.892912
0.88979
0.883636
0.873809
0.860043
0.842824
0.82375
0.805424
0.790797
0.781352
0.775725
0.771671
0.767633
0.76263
0.758603
0.76071
0.769732
0.77733
0.776685
0.769833
0.75948
0.741296
0.713087
0.673494
0.878571
0.882883
0.886903
0.889933
0.892136
0.893372
0.893116
0.890689
0.885266
0.876101
0.86278
0.845649
0.826252
0.807303
0.791972
0.781957
0.776032
0.771854
0.76771
0.762922
0.759807
0.762726
0.770915
0.7762
0.773074
0.763641
0.749935
0.728048
0.698632
0.656964
0.876459
0.880901
0.88515
0.888501
0.891114
0.892837
0.893148
0.891377
0.886665
0.878168
0.865323
0.848326
0.828646
0.809095
0.793075
0.782511
0.776313
0.772038
0.76783
0.763294
0.760975
0.764381
0.77148
0.774387
0.768766
0.756806
0.740119
0.715672
0.685
0.642359
0.874393
0.878941
0.88339
0.887026
0.890012
0.892162
0.893034
0.891881
0.887857
0.880028
0.867686
0.850861
0.830934
0.810803
0.794108
0.783013
0.776568
0.772224
0.767985
0.763713
0.762063
0.765672
0.771464
0.77195
0.763881
0.74955
0.730514
0.704647
0.672377
0.628298
0.872375
0.87701
0.881632
0.885519
0.888845
0.891426
0.892792
0.892225
0.888863
0.881699
0.869879
0.853262
0.833122
0.812429
0.795072
0.783467
0.776802
0.772413
0.768163
0.764149
0.763039
0.766603
0.77091
0.76899
0.758584
0.742106
0.721203
0.69469
0.661271
0.615035
0.870413
0.875104
0.879884
0.883989
0.88762
0.890603
0.892438
0.892428
0.889704
0.883196
0.871913
0.855536
0.835212
0.813975
0.795969
0.783871
0.777014
0.772604
0.768356
0.76458
0.76388
0.767182
0.769877
0.765591
0.75292
0.734459
0.712558
0.685306
0.649207
0.602271
0.868521
0.87323
0.878139
0.882448
0.886349
0.889703
0.891985
0.892509
0.890399
0.884536
0.8738
0.85769
0.837209
0.815442
0.796798
0.784227
0.777208
0.772797
0.768554
0.764985
0.76457
0.767427
0.768419
0.761762
0.74681
0.72701
0.704423
0.674908
0.635524
0.5897
0.866717
0.871399
0.876398
0.880896
0.885045
0.888738
0.891446
0.892482
0.890962
0.885732
0.875551
0.85973
0.839117
0.816833
0.797561
0.784536
0.777382
0.77299
0.768746
0.765347
0.765152
0.767413
0.766548
0.757505
0.740444
0.719897
0.695752
0.662774
0.620854
0.578059
0.865009
0.869623
0.874667
0.879337
0.883717
0.887718
0.890832
0.89236
0.891408
0.886794
0.877173
0.861663
0.840939
0.818149
0.79826
0.784801
0.777542
0.773186
0.768934
0.765682
0.765561
0.767047
0.764286
0.752765
0.734119
0.712441
0.685874
0.649189
0.606372
0.56858
0.863408
0.867912
0.872955
0.877769
0.882372
0.886652
0.890146
0.892159
0.891757
0.887748
0.878684
0.863496
0.842678
0.819389
0.79889
0.785016
0.777682
0.773357
0.769064
0.765937
0.765828
0.766413
0.761574
0.747685
0.727804
0.704678
0.674921
0.635254
0.593235
0.561819
0.861926
0.866274
0.871271
0.876185
0.881002
0.885574
0.889368
0.891846
0.891981
0.888572
0.880076
0.865236
0.844346
0.820566
0.799471
0.785207
0.777851
0.773598
0.769215
0.76613
0.765874
0.765594
0.75868
0.742579
0.721409
0.696475
0.663066
0.621407
0.582263
0.557357
0.860588
0.864736
0.869642
0.874587
0.87956
0.884455
0.888726
0.891562
0.892184
0.88933
0.881376
0.86687
0.845914
0.821643
0.799933
0.785261
0.777846
0.773668
0.769312
0.766296
0.765675
0.764353
0.755654
0.737892
0.715372
0.687931
0.651166
0.608879
0.573468
0.554727
0.859442
0.863322
0.86814
0.873122
0.878058
0.882997
0.887617
0.89103
0.892207
0.889956
0.882596
0.868473
0.847495
0.822806
0.80057
0.785554
0.778142
0.773883
0.769496
0.76656
0.765601
0.762671
0.751851
0.732983
0.708988
0.678403
0.638495
0.597157
0.566023
0.552598
0.858476
0.86193
0.866675
0.871919
0.877188
0.882336
0.887097
0.890775
0.892312
0.890524
0.883604
0.8697
0.848533
0.823333
0.800537
0.785262
0.778031
0.773969
0.769491
0.766498
0.765725
0.761931
0.749495
0.729343
0.703685
0.670548
0.628616
0.587949
0.561176
0.551472
0.857636
0.860292
0.864379
0.869388
0.874822
0.880332
0.885589
0.889908
0.892234
0.891151
0.885093
0.871906
0.850806
0.825049
0.801443
0.785559
0.778106
0.773948
0.769114
0.765631
0.76444
0.75945
0.744903
0.72255
0.693687
0.655474
0.611554
0.573847
0.554478
0.549404
0.254105
0.24755
0.256436
0.282175
0.334519
0.386398
0.435588
0.481953
0.522705
0.55763
0.58765
0.613258
0.635003
0.653421
0.669025
0.682294
0.693662
0.703514
0.712181
0.719948
0.727049
0.733677
0.739989
0.746113
0.752147
0.758189
0.764731
0.770731
0.77954
0.781828
0.258113
0.254051
0.260083
0.274035
0.31815
0.367995
0.419992
0.468282
0.511535
0.549156
0.58141
0.608887
0.632162
0.651762
0.668247
0.68215
0.693947
0.704049
0.712812
0.720544
0.727502
0.733898
0.739906
0.745644
0.751262
0.756655
0.762369
0.767124
0.7732
0.77685
0.262359
0.26097
0.263286
0.272655
0.300377
0.343807
0.395467
0.446152
0.492828
0.534596
0.570205
0.600391
0.625993
0.647574
0.665651
0.680774
0.693462
0.704178
0.713322
0.721239
0.728222
0.734511
0.740312
0.745763
0.751032
0.756083
0.761249
0.766152
0.771494
0.776983
0.265878
0.265583
0.267138
0.275573
0.290485
0.322801
0.369868
0.42278
0.474863
0.522514
0.562457
0.595708
0.623729
0.647321
0.667041
0.683422
0.69699
0.708256
0.717684
0.725673
0.732567
0.738651
0.744169
0.749302
0.754226
0.759012
0.763824
0.768656
0.773558
0.778577
0.268835
0.268462
0.270291
0.277329
0.287394
0.306739
0.343678
0.395633
0.452896
0.506689
0.553222
0.590759
0.621714
0.64747
0.668939
0.686731
0.701357
0.713329
0.723137
0.731231
0.738008
0.743811
0.748928
0.753589
0.757986
0.762248
0.766478
0.770748
0.77506
0.779491
0.271053
0.269847
0.270375
0.276061
0.285066
0.296301
0.319412
0.363791
0.422418
0.483382
0.537144
0.581013
0.616694
0.645515
0.669216
0.688787
0.704848
0.717918
0.728474
0.736969
0.743835
0.749465
0.754205
0.758347
0.762127
0.765731
0.769293
0.772919
0.77666
0.780613
0.270351
0.269751
0.266134
0.269306
0.278498
0.287085
0.300714
0.331983
0.38516
0.449855
0.511879
0.564709
0.60753
0.641161
0.668087
0.689947
0.707779
0.722269
0.733919
0.743169
0.750442
0.756148
0.760675
0.764372
0.767544
0.77044
0.773256
0.776136
0.779161
0.782449
0.257838
0.255296
0.247788
0.251694
0.263361
0.273244
0.284192
0.305474
0.34771
0.409373
0.478014
0.541215
0.592876
0.633542
0.66535
0.690452
0.710527
0.726676
0.739605
0.749817
0.757732
0.763751
0.768264
0.771651
0.774262
0.776415
0.778375
0.78036
0.782499
0.784976
0.232139
0.219517
0.212322
0.219936
0.235378
0.250554
0.26451
0.282518
0.315475
0.369857
0.438588
0.508654
0.570195
0.620093
0.659053
0.689211
0.712708
0.731179
0.745734
0.757096
0.765784
0.772231
0.776845
0.78002
0.782135
0.783542
0.784569
0.785512
0.786594
0.78809
0.20436
0.186121
0.179177
0.185736
0.203102
0.223499
0.241467
0.259616
0.287224
0.333636
0.398009
0.470125
0.538949
0.598119
0.645916
0.683317
0.71225
0.73462
0.751909
0.765146
0.775034
0.78211
0.786864
0.789772
0.791292
0.791839
0.79178
0.791453
0.791202
0.791389
0.189307
0.170026
0.162326
0.163193
0.176826
0.197447
0.217556
0.236608
0.261625
0.301987
0.360058
0.42954
0.500849
0.566405
0.622387
0.668028
0.704291
0.732732
0.754852
0.771824
0.784453
0.793292
0.798838
0.801681
0.802456
0.801754
0.800106
0.797949
0.795534
0.793389
0.193919
0.17269
0.161896
0.155849
0.163103
0.178785
0.197215
0.215762
0.238852
0.274706
0.326181
0.38981
0.458546
0.525542
0.586185
0.638406
0.681987
0.717646
0.746435
0.769376
0.787245
0.800467
0.809256
0.814095
0.81552
0.814286
0.811153
0.806861
0.802125
0.797647
0.215277
0.190872
0.174985
0.163679
0.162847
0.170949
0.184168
0.199718
0.220419
0.251685
0.296083
0.3517
0.413741
0.47695
0.537037
0.59151
0.639444
0.680659
0.715481
0.744386
0.767892
0.786583
0.800169
0.809772
0.814952
0.815888
0.813351
0.80841
0.802341
0.795819
0.250087
0.221911
0.20122
0.184053
0.175385
0.17509
0.181012
0.191324
0.207622
0.23307
0.269233
0.314946
0.367091
0.422065
0.47641
0.527681
0.57431
0.615505
0.651665
0.68369
0.712004
0.736657
0.757695
0.7733
0.784564
0.790155
0.789773
0.784527
0.776135
0.766781
0.294875
0.263855
0.238898
0.216131
0.200181
0.191546
0.189332
0.192607
0.202235
0.219895
0.246391
0.28068
0.320395
0.363173
0.405905
0.447046
0.484566
0.518208
0.550574
0.582511
0.613637
0.643763
0.669847
0.694121
0.713144
0.726009
0.731796
0.730993
0.725272
0.71704
0.346797
0.314787
0.286948
0.259804
0.237717
0.221528
0.211196
0.206425
0.207675
0.215461
0.229919
0.250705
0.276384
0.303495
0.331613
0.360064
0.387405
0.41334
0.437744
0.462817
0.490102
0.519255
0.550894
0.582141
0.610259
0.633117
0.64932
0.658521
0.661841
0.660941
0.401913
0.371392
0.342993
0.313602
0.287173
0.264646
0.246392
0.232502
0.223153
0.219198
0.220186
0.225299
0.235834
0.251553
0.269205
0.286887
0.304263
0.320629
0.336942
0.355167
0.376903
0.402657
0.432588
0.465678
0.499265
0.530264
0.556415
0.576274
0.589937
0.597993
0.455904
0.429243
0.402808
0.373697
0.344987
0.317497
0.291565
0.267242
0.244938
0.226587
0.21492
0.209305
0.205412
0.206045
0.21195
0.221593
0.233248
0.245442
0.258042
0.272192
0.289112
0.309491
0.334693
0.365363
0.399919
0.435167
0.46789
0.495976
0.518078
0.533659
0.50595
0.484347
0.461915
0.43517
0.406224
0.375471
0.343293
0.309871
0.276578
0.243415
0.214056
0.188047
0.16846
0.156715
0.151775
0.15363
0.16102
0.172084
0.185377
0.200347
0.215844
0.233776
0.256422
0.285304
0.320072
0.357833
0.394453
0.427666
0.456117
0.477385
0.549922
0.533591
0.516236
0.493123
0.465547
0.43318
0.396121
0.35447
0.309075
0.2621
0.217251
0.175479
0.140269
0.112805
0.0940928
0.0850737
0.0856385
0.0946437
0.109435
0.126899
0.14665
0.167892
0.192764
0.223476
0.260463
0.301514
0.342054
0.378961
0.410477
0.435345
0.587261
0.574592
0.562629