/*--------------------------------*- C++ -*----------------------------------*\
  =========                 |
  \\      /  F ield         | OpenFOAM: The Open Source CFD Toolbox
   \\    /   O peration     | Website:  https://openfoam.org
    \\  /    A nd           | Version:  11
     \\/     M anipulation  |
\*---------------------------------------------------------------------------*/
FoamFile
{
    format      ascii;
    class       surfaceScalarField;
    location    "5.8";
    object      phi;
}
// * * * * * * * * * * * * * * * * * * * * * * * * * * * * * * * * * * * * * //

dimensions      [0 3 -1 0 0 0 0];

internalField   nonuniform List<scalar> 
24840
(
1.9242e-05
6.10063e-09
1.92364e-05
5.60829e-09
1.92336e-05
2.79485e-09
1.92338e-05
-1.72975e-10
1.92369e-05
-3.11079e-09
1.92432e-05
-6.27327e-09
1.92527e-05
-9.54139e-09
1.92657e-05
-1.29875e-08
1.92824e-05
-1.66877e-08
1.93032e-05
-2.07551e-08
1.93284e-05
-2.52895e-08
1.93589e-05
-3.04109e-08
1.93951e-05
-3.62667e-08
1.94382e-05
-4.30353e-08
1.94891e-05
-5.09265e-08
1.95493e-05
-6.01803e-08
1.96203e-05
-7.10684e-08
1.97042e-05
-8.38948e-08
1.98032e-05
-9.89957e-08
1.992e-05
-1.16736e-07
2.00575e-05
-1.37502e-07
2.02192e-05
-1.61696e-07
2.04088e-05
-1.89679e-07
2.06307e-05
-2.21838e-07
2.08893e-05
-2.58602e-07
2.11892e-05
-2.99913e-07
2.15359e-05
-3.4667e-07
2.19291e-05
-3.93247e-07
2.23906e-05
-4.61463e-07
-4.37518e-07
2.28281e-05
1.92529e-05
1.31971e-09
1.92596e-05
-1.05323e-09
1.92685e-05
-6.14326e-09
1.92804e-05
-1.20946e-08
1.92956e-05
-1.82531e-08
1.93141e-05
-2.47511e-08
1.93362e-05
-3.16376e-08
1.93621e-05
-3.89315e-08
1.9392e-05
-4.66201e-08
1.9426e-05
-5.47165e-08
1.94641e-05
-6.33597e-08
1.95065e-05
-7.28791e-08
1.9554e-05
-8.37228e-08
1.96073e-05
-9.6349e-08
1.96676e-05
-1.11188e-07
1.97361e-05
-1.28676e-07
1.98143e-05
-1.49295e-07
1.9904e-05
-1.73605e-07
2.00072e-05
-2.02239e-07
2.01264e-05
-2.35896e-07
2.02642e-05
-2.75342e-07
2.04239e-05
-3.21396e-07
2.06091e-05
-3.74879e-07
2.08239e-05
-4.366e-07
2.10726e-05
-5.0734e-07
2.13602e-05
-5.87527e-07
2.16919e-05
-6.7834e-07
2.20729e-05
-7.74196e-07
2.25097e-05
-8.98246e-07
-9.25522e-07
2.29977e-05
1.92512e-05
-1.76242e-09
1.92572e-05
-7.03628e-09
1.92657e-05
-1.46887e-08
1.92772e-05
-2.35536e-08
1.92918e-05
-3.28956e-08
1.93098e-05
-4.26668e-08
1.93311e-05
-5.29442e-08
1.93559e-05
-6.37445e-08
1.93843e-05
-7.50847e-08
1.94167e-05
-8.70619e-08
1.94533e-05
-9.99231e-08
1.94945e-05
-1.14096e-07
1.95409e-05
-1.30143e-07
1.95932e-05
-1.4868e-07
1.96524e-05
-1.70337e-07
1.97195e-05
-1.95781e-07
1.97959e-05
-2.25754e-07
1.98834e-05
-2.611e-07
1.9984e-05
-3.02775e-07
2.00999e-05
-3.51843e-07
2.0234e-05
-4.09475e-07
2.03896e-05
-4.76942e-07
2.05703e-05
-5.55567e-07
2.07803e-05
-6.46654e-07
2.10245e-05
-7.51482e-07
2.13078e-05
-8.70855e-07
2.1636e-05
-1.00649e-06
2.20141e-05
-1.15232e-06
2.24488e-05
-1.33293e-06
-1.42384e-06
2.29471e-05
1.92503e-05
-3.9171e-09
1.92556e-05
-1.23926e-08
1.92637e-05
-2.27782e-08
1.92747e-05
-3.44973e-08
1.92887e-05
-4.6956e-08
1.9306e-05
-5.99683e-08
1.93266e-05
-7.3544e-08
1.93506e-05
-8.77032e-08
1.9378e-05
-1.02517e-07
1.94092e-05
-1.18187e-07
1.94443e-05
-1.35082e-07
1.9484e-05
-1.53734e-07
1.95286e-05
-1.74804e-07
1.9579e-05
-1.99041e-07
1.96359e-05
-2.27255e-07
1.97004e-05
-2.60334e-07
1.9774e-05
-2.99274e-07
1.98581e-05
-3.45202e-07
1.99547e-05
-3.994e-07
2.00662e-05
-4.63303e-07
2.01952e-05
-5.38502e-07
2.0345e-05
-6.26722e-07
2.05192e-05
-7.29791e-07
2.07221e-05
-8.49576e-07
2.09586e-05
-9.87957e-07
2.1234e-05
-1.14632e-06
2.15545e-05
-1.32693e-06
2.19266e-05
-1.52439e-06
2.23562e-05
-1.76253e-06
-1.92457e-06
2.28569e-05
1.92498e-05
-5.55042e-09
1.92545e-05
-1.71272e-08
1.9262e-05
-3.03011e-08
1.92724e-05
-4.48282e-08
1.92857e-05
-6.02706e-08
1.93021e-05
-7.6378e-08
1.93216e-05
-9.31028e-08
1.93444e-05
-1.10484e-07
1.93705e-05
-1.28645e-07
1.94002e-05
-1.47859e-07
1.94337e-05
-1.68581e-07
1.94714e-05
-1.91447e-07
1.95139e-05
-2.17236e-07
1.95617e-05
-2.46838e-07
1.96156e-05
-2.81239e-07
1.96768e-05
-3.21535e-07
1.97465e-05
-3.68959e-07
1.98262e-05
-4.24914e-07
1.99178e-05
-4.90992e-07
2.00235e-05
-5.68985e-07
2.01459e-05
-6.60894e-07
2.02881e-05
-7.68917e-07
2.04537e-05
-8.95427e-07
2.06471e-05
-1.04291e-06
2.08731e-05
-1.21394e-06
2.11374e-05
-1.41067e-06
2.14466e-05
-1.63611e-06
2.18085e-05
-1.8863e-06
2.22295e-05
-2.18351e-06
-2.4214e-06
2.27263e-05
1.92495e-05
-6.93124e-09
1.92537e-05
-2.13513e-08
1.92607e-05
-3.72419e-08
1.92703e-05
-5.44776e-08
1.92828e-05
-7.27403e-08
1.92982e-05
-9.17698e-08
1.93166e-05
-1.11474e-07
1.9338e-05
-1.31892e-07
1.93625e-05
-1.53189e-07
1.93904e-05
-1.75704e-07
1.94218e-05
-1.99983e-07
1.94571e-05
-2.26759e-07
1.94968e-05
-2.56929e-07
1.95414e-05
-2.91518e-07
1.95919e-05
-3.31674e-07
1.9649e-05
-3.78679e-07
1.97141e-05
-4.33986e-07
1.97884e-05
-4.99251e-07
1.98738e-05
-5.76364e-07
1.99722e-05
-6.6747e-07
2.00863e-05
-7.74981e-07
2.0219e-05
-9.01576e-07
2.03738e-05
-1.05019e-06
2.05548e-05
-1.22399e-06
2.07672e-05
-1.42632e-06
2.10169e-05
-1.66037e-06
2.13109e-05
-1.93008e-06
2.16581e-05
-2.23348e-06
2.20659e-05
-2.59135e-06
-2.91052e-06
2.2555e-05
1.92494e-05
-8.15567e-09
1.92531e-05
-2.51228e-08
1.92594e-05
-4.35611e-08
1.92683e-05
-6.33518e-08
1.92798e-05
-8.42401e-08
1.9294e-05
-1.05974e-07
1.9311e-05
-1.28435e-07
1.93308e-05
-1.51661e-07
1.93534e-05
-1.75854e-07
1.93791e-05
-2.01411e-07
1.94081e-05
-2.2895e-07
1.94406e-05
-2.59299e-07
1.94772e-05
-2.9346e-07
1.95182e-05
-3.32586e-07
1.95645e-05
-3.77974e-07
1.96169e-05
-4.31079e-07
1.96765e-05
-4.93552e-07
1.97445e-05
-5.67282e-07
1.98226e-05
-6.54439e-07
1.99126e-05
-7.57498e-07
2.00169e-05
-8.79264e-07
2.01382e-05
-1.02289e-06
2.02799e-05
-1.1919e-06
2.04461e-05
-1.39016e-06
2.06417e-05
-1.62192e-06
2.08729e-05
-1.89152e-06
2.1147e-05
-2.20417e-06
2.14739e-05
-2.56043e-06
2.18625e-05
-2.97992e-06
-3.38586e-06
2.23378e-05
1.92492e-05
-9.24527e-09
1.92526e-05
-2.8474e-08
1.92582e-05
-4.92355e-08
1.92663e-05
-7.13781e-08
1.92767e-05
-9.46678e-08
1.92896e-05
-1.18862e-07
1.9305e-05
-1.43829e-07
1.93229e-05
-1.69606e-07
1.93435e-05
-1.96417e-07
1.93668e-05
-2.24711e-07
1.9393e-05
-2.55172e-07
1.94224e-05
-2.88707e-07
1.94554e-05
-3.26419e-07
1.94924e-05
-3.69578e-07
1.9534e-05
-4.19613e-07
1.95811e-05
-4.78129e-07
1.96345e-05
-5.4695e-07
1.96954e-05
-6.28172e-07
1.97651e-05
-7.24214e-07
1.98455e-05
-8.37857e-07
1.99385e-05
-9.72278e-07
2.00467e-05
-1.13108e-06
2.01732e-05
-1.31836e-06
2.03217e-05
-1.53873e-06
2.04972e-05
-1.79738e-06
2.07056e-05
-2.09996e-06
2.09547e-05
-2.4532e-06
2.1255e-05
-2.86076e-06
2.16165e-05
-3.34147e-06
-3.83847e-06
2.20691e-05
1.92491e-05
-1.02029e-08
1.9252e-05
-3.14165e-08
1.9257e-05
-5.42438e-08
1.92642e-05
-7.84944e-08
1.92734e-05
-1.03931e-07
1.92849e-05
-1.30314e-07
1.92985e-05
-1.57505e-07
1.93145e-05
-1.85537e-07
1.93327e-05
-2.14656e-07
1.93534e-05
-2.45351e-07
1.93765e-05
-2.78361e-07
1.94025e-05
-3.14665e-07
1.94315e-05
-3.55452e-07
1.94641e-05
-4.02091e-07
1.95006e-05
-4.56125e-07
1.95417e-05
-5.19286e-07
1.95883e-05
-5.93543e-07
1.96413e-05
-6.81169e-07
1.97019e-05
-7.848e-07
1.97715e-05
-9.07481e-07
1.9852e-05
-1.05272e-06
1.99454e-05
-1.22454e-06
2.00546e-05
-1.42756e-06
2.0183e-05
-1.66711e-06
2.0335e-05
-1.94937e-06
2.05164e-05
-2.28135e-06
2.07347e-05
-2.67152e-06
2.1001e-05
-3.12707e-06
2.1326e-05
-3.66648e-06
-4.2562e-06
2.17437e-05
1.9249e-05
-1.10271e-08
1.92515e-05
-3.39482e-08
1.92558e-05
-5.85632e-08
1.9262e-05
-8.46473e-08
1.927e-05
-1.1195e-07
1.92799e-05
-1.40225e-07
1.92917e-05
-1.6933e-07
1.93055e-05
-1.99297e-07
1.93212e-05
-2.30388e-07
1.9339e-05
-2.63122e-07
1.93589e-05
-2.98283e-07
1.93811e-05
-3.36908e-07
1.94059e-05
-3.80257e-07
1.94336e-05
-4.29782e-07
1.94646e-05
-4.87118e-07
1.94994e-05
-5.54096e-07
1.95387e-05
-6.32803e-07
1.95832e-05
-7.25649e-07
1.96338e-05
-8.35444e-07
1.96918e-05
-9.6545e-07
1.97585e-05
-1.11945e-06
1.98358e-05
-1.30181e-06
1.99259e-05
-1.51762e-06
2.00316e-05
-1.77288e-06
2.01569e-05
-2.07466e-06
2.03069e-05
-2.43135e-06
2.04886e-05
-2.85323e-06
2.07128e-05
-3.35124e-06
2.09903e-05
-3.94399e-06
-4.6237e-06
2.13578e-05
1.92488e-05
-1.17151e-08
1.92509e-05
-3.60613e-08
1.92545e-05
-6.21714e-08
1.92597e-05
-8.97919e-08
1.92664e-05
-1.18655e-07
1.92747e-05
-1.48506e-07
1.92845e-05
-1.79195e-07
1.9296e-05
-2.10756e-07
1.93091e-05
-2.4346e-07
1.93238e-05
-2.77848e-07
1.93403e-05
-3.14739e-07
1.93586e-05
-3.55213e-07
1.93789e-05
-4.00586e-07
1.94015e-05
-4.52372e-07
1.94266e-05
-5.12274e-07
1.94547e-05
-5.82196e-07
1.94862e-05
-6.64305e-07
1.95217e-05
-7.6111e-07
1.95618e-05
-8.75544e-07
1.96074e-05
-1.01103e-06
1.96595e-05
-1.17154e-06
1.97194e-05
-1.36171e-06
1.97887e-05
-1.58701e-06
1.98698e-05
-1.85393e-06
1.99655e-05
-2.17036e-06
2.00801e-05
-2.54591e-06
2.02194e-05
-2.99256e-06
2.03931e-05
-3.52493e-06
2.06112e-05
-4.16209e-06
-4.92296e-06
2.09104e-05
1.92487e-05
-1.22641e-08
1.92504e-05
-3.77468e-08
1.92532e-05
-6.50486e-08
1.92573e-05
-9.38925e-08
1.92627e-05
-1.23993e-07
1.92693e-05
-1.55086e-07
1.92771e-05
-1.87014e-07
1.92861e-05
-2.19811e-07
1.92964e-05
-2.53752e-07
1.9308e-05
-2.89394e-07
1.93208e-05
-3.27577e-07
1.9335e-05
-3.69413e-07
1.93507e-05
-4.16253e-07
1.9368e-05
-4.69655e-07
1.9387e-05
-5.31363e-07
1.94082e-05
-6.03323e-07
1.94316e-05
-6.87747e-07
1.94577e-05
-7.87199e-07
1.94868e-05
-9.04679e-07
1.95195e-05
-1.04369e-06
1.95563e-05
-1.20833e-06
1.9598e-05
-1.40338e-06
1.96455e-05
-1.63452e-06
1.97002e-05
-1.90862e-06
1.97639e-05
-2.23411e-06
1.98396e-05
-2.62153e-06
1.99313e-05
-3.0843e-06
2.00466e-05
-3.64021e-06
2.01934e-05
-4.30891e-06
-5.13457e-06
2.0405e-05
1.92485e-05
-1.26718e-08
1.92498e-05
-3.89975e-08
1.92519e-05
-6.71801e-08
1.9255e-05
-9.69232e-08
1.92589e-05
-1.27926e-07
1.92637e-05
-1.59914e-07
1.92694e-05
-1.92724e-07
1.9276e-05
-2.26385e-07
1.92834e-05
-2.61177e-07
1.92917e-05
-2.97661e-07
1.93008e-05
-3.3669e-07
1.93108e-05
-3.79391e-07
1.93217e-05
-4.27133e-07
1.93335e-05
-4.81496e-07
1.93464e-05
-5.44238e-07
1.93604e-05
-6.17317e-07
1.93756e-05
-7.02953e-07
1.93921e-05
-8.03717e-07
1.941e-05
-9.22616e-07
1.94295e-05
-1.06316e-06
1.94506e-05
-1.22946e-06
1.94736e-05
-1.42632e-06
1.94985e-05
-1.65948e-06
1.95258e-05
-1.93591e-06
1.9556e-05
-2.26431e-06
1.95902e-05
-2.65572e-06
1.96304e-05
-3.12443e-06
1.96806e-05
-3.69049e-06
1.97456e-05
-4.37391e-06
-5.23982e-06
1.98509e-05
1.92484e-05
-1.2937e-08
1.92492e-05
-3.98091e-08
1.92506e-05
-6.85571e-08
1.92525e-05
-9.88685e-08
1.9255e-05
-1.3043e-07
1.92581e-05
-1.62959e-07
1.92616e-05
-1.96284e-07
1.92657e-05
-2.30433e-07
1.92702e-05
-2.65682e-07
1.92751e-05
-3.02593e-07
1.92805e-05
-3.42019e-07
1.92862e-05
-3.85086e-07
1.92922e-05
-4.33167e-07
1.92985e-05
-4.87835e-07
1.93051e-05
-5.50842e-07
1.93119e-05
-6.24126e-07
1.93189e-05
-7.09877e-07
1.93258e-05
-8.10624e-07
1.93325e-05
-9.29321e-07
1.93387e-05
-1.06941e-06
1.93442e-05
-1.2349e-06
1.93483e-05
-1.43047e-06
1.93506e-05
-1.66174e-06
1.93502e-05
-1.93551e-06
1.93462e-05
-2.26035e-06
1.93378e-05
-2.64729e-06
1.9324e-05
-3.11068e-06
1.93051e-05
-3.67154e-06
1.92807e-05
-4.34953e-06
-5.22366e-06
1.92645e-05
1.92483e-05
-1.30581e-08
1.92486e-05
-4.01825e-08
1.92492e-05
-6.91786e-08
1.92501e-05
-9.97245e-08
1.92512e-05
-1.31498e-07
1.92524e-05
-1.64208e-07
1.92538e-05
-1.97682e-07
1.92553e-05
-2.31938e-07
1.92569e-05
-2.67251e-07
1.92585e-05
-3.04174e-07
1.926e-05
-3.43549e-07
1.92614e-05
-3.86491e-07
1.92626e-05
-4.34353e-07
1.92634e-05
-4.88686e-07
1.92638e-05
-5.51206e-07
1.92635e-05
-6.23803e-07
1.92622e-05
-7.08601e-07
1.92596e-05
-8.08042e-07
1.92553e-05
-9.24966e-07
1.92485e-05
-1.06266e-06
1.92386e-05
-1.22493e-06
1.92243e-05
-1.41621e-06
1.92043e-05
-1.64175e-06
1.91767e-05
-1.90793e-06
1.91392e-05
-2.22278e-06
1.90885e-05
-2.59664e-06
1.90209e-05
-3.04307e-06
1.89318e-05
-3.58243e-06
1.88152e-05
-4.23288e-06
-5.078e-06
1.86695e-05
1.92481e-05
-1.30407e-08
1.92481e-05
-4.01193e-08
1.92479e-05
-6.90493e-08
1.92477e-05
-9.94978e-08
1.92473e-05
-1.31136e-07
1.92468e-05
-1.63671e-07
1.9246e-05
-1.96925e-07
1.9245e-05
-2.30913e-07
1.92437e-05
-2.659e-07
1.92419e-05
-3.02425e-07
1.92397e-05
-3.41313e-07
1.92368e-05
-3.8365e-07
1.92332e-05
-4.30755e-07
1.92287e-05
-4.84135e-07
1.92229e-05
-5.45446e-07
1.92156e-05
-6.16503e-07
1.92064e-05
-6.99332e-07
1.91946e-05
-7.96247e-07
1.91795e-05
-9.09916e-07
1.91603e-05
-1.0434e-06
1.91355e-05
-1.20021e-06
1.91037e-05
-1.38436e-06
1.90625e-05
-1.60059e-06
1.90092e-05
-1.85457e-06
1.89397e-05
-2.15334e-06
1.88491e-05
-2.50599e-06
1.87303e-05
-2.92429e-06
1.85741e-05
-3.4262e-06
1.83683e-05
-4.02708e-06
-4.8046e-06
1.80949e-05
1.9248e-05
-1.28831e-08
1.92475e-05
-3.96319e-08
1.92466e-05
-6.81864e-08
1.92453e-05
-9.82094e-08
1.92436e-05
-1.2937e-07
1.92413e-05
-1.61376e-07
1.92384e-05
-1.94048e-07
1.92349e-05
-2.27397e-07
1.92307e-05
-2.61676e-07
1.92256e-05
-2.97406e-07
1.92197e-05
-3.35382e-07
1.92127e-05
-3.76654e-07
1.92044e-05
-4.22491e-07
1.91946e-05
-4.74332e-07
1.9183e-05
-5.33756e-07
1.91689e-05
-6.02476e-07
1.9152e-05
-6.82393e-07
1.91314e-05
-7.75658e-07
1.91062e-05
-8.84717e-07
1.90751e-05
-1.01234e-06
1.90366e-05
-1.16166e-06
1.89884e-05
-1.33617e-06
1.89277e-05
-1.53991e-06
1.88508e-05
-1.77761e-06
1.87524e-05
-2.05499e-06
1.86257e-05
-2.3793e-06
1.84611e-05
-2.75969e-06
1.8245e-05
-3.21012e-06
1.79598e-05
-3.74182e-06
-4.4167e-06
1.75719e-05
1.92478e-05
-1.25925e-08
1.92469e-05
-3.87332e-08
1.92454e-05
-6.66127e-08
1.92431e-05
-9.5891e-08
1.92399e-05
-1.26239e-07
1.92359e-05
-1.5737e-07
1.9231e-05
-1.89107e-07
1.9225e-05
-2.21459e-07
1.9218e-05
-2.54661e-07
1.92098e-05
-2.89213e-07
1.92003e-05
-3.25873e-07
1.91893e-05
-3.65644e-07
1.91765e-05
-4.0973e-07
1.91617e-05
-4.59488e-07
1.91443e-05
-5.16398e-07
1.91239e-05
-5.82055e-07
1.90997e-05
-6.58209e-07
1.90709e-05
-7.46818e-07
1.90363e-05
-8.50074e-07
1.89943e-05
-9.70408e-07
1.89432e-05
-1.11049e-06
1.88802e-05
-1.27324e-06
1.88022e-05
-1.46186e-06
1.87045e-05
-1.67997e-06
1.85813e-05
-1.93171e-06
1.8424e-05
-2.22207e-06
1.82213e-05
-2.55699e-06
1.79564e-05
-2.94523e-06
1.76075e-05
-3.39289e-06
-3.93857e-06
1.71294e-05
1.92477e-05
-1.21752e-08
1.92464e-05
-3.74439e-08
1.92442e-05
-6.43618e-08
1.92409e-05
-9.25874e-08
1.92364e-05
-1.21799e-07
1.92308e-05
-1.51719e-07
1.92239e-05
-1.82183e-07
1.92156e-05
-2.1319e-07
1.92059e-05
-2.44964e-07
1.91947e-05
-2.77975e-07
1.91817e-05
-3.12941e-07
1.91669e-05
-3.50803e-07
1.91498e-05
-3.92691e-07
1.91302e-05
-4.39867e-07
1.91075e-05
-4.93698e-07
1.90811e-05
-5.55643e-07
1.90502e-05
-6.27289e-07
1.90137e-05
-7.10375e-07
1.89705e-05
-8.06812e-07
1.89187e-05
-9.18665e-07
1.88564e-05
-1.04812e-06
1.87806e-05
-1.19743e-06
1.86877e-05
-1.36895e-06
1.85728e-05
-1.56507e-06
1.84293e-05
-1.78823e-06
1.82482e-05
-2.04096e-06
1.80168e-05
-2.32569e-06
1.7717e-05
-2.64536e-06
1.73247e-05
-3.0006e-06
-3.40268e-06
1.67888e-05
1.92476e-05
-1.164e-08
1.92459e-05
-3.57909e-08
1.92431e-05
-6.14772e-08
1.92388e-05
-8.83562e-08
1.92331e-05
-1.16119e-07
1.92259e-05
-1.44509e-07
1.92171e-05
-1.73373e-07
1.92066e-05
-2.0271e-07
1.91944e-05
-2.32723e-07
1.91803e-05
-2.63853e-07
1.91641e-05
-2.96769e-07
1.91457e-05
-3.3235e-07
1.91246e-05
-3.71634e-07
1.91005e-05
-4.1578e-07
1.90729e-05
-4.66032e-07
1.90409e-05
-5.23705e-07
1.90038e-05
-5.90205e-07
1.89605e-05
-6.67047e-07
1.89095e-05
-7.55849e-07
1.88492e-05
-8.58294e-07
1.87771e-05
-9.76069e-07
1.86905e-05
-1.11079e-06
1.85854e-05
-1.26391e-06
1.8457e-05
-1.43663e-06
1.82984e-05
-1.62968e-06
1.81007e-05
-1.84317e-06
1.78511e-05
-2.0761e-06
1.75314e-05
-2.32568e-06
1.71182e-05
-2.58738e-06
-2.84534e-06
1.65608e-05
1.92475e-05
-1.09981e-08
1.92455e-05
-3.38089e-08
1.9242e-05
-5.80136e-08
1.9237e-05
-8.32679e-08
1.92301e-05
-1.09284e-07
1.92215e-05
-1.3584e-07
1.92109e-05
-1.62799e-07
1.91983e-05
-1.90157e-07
1.91837e-05
-2.18099e-07
1.91669e-05
-2.47032e-07
1.91477e-05
-2.77576e-07
1.91259e-05
-3.10533e-07
1.91011e-05
-3.46851e-07
1.90729e-05
-3.87575e-07
1.90407e-05
-4.33818e-07
1.90037e-05
-4.86744e-07
1.89611e-05
-5.47577e-07
1.89116e-05
-6.17603e-07
1.88539e-05
-6.98148e-07
1.87862e-05
-7.90523e-07
1.8706e-05
-8.9594e-07
1.86106e-05
-1.01539e-06
1.84962e-05
-1.14952e-06
1.8358e-05
-1.29839e-06
1.81896e-05
-1.46122e-06
1.79823e-05
-1.63592e-06
1.77247e-05
-1.81846e-06
1.74e-05
-2.00105e-06
1.69876e-05
-2.17496e-06
-2.30124e-06
1.64435e-05
1.92474e-05
-1.02636e-08
1.92451e-05
-3.15424e-08
1.92412e-05
-5.40391e-08
1.92353e-05
-7.74053e-08
1.92274e-05
-1.01393e-07
1.92174e-05
-1.25828e-07
1.92052e-05
-1.50596e-07
1.91907e-05
-1.7569e-07
1.91739e-05
-2.01276e-07
1.91546e-05
-2.27724e-07
1.91326e-05
-2.55601e-07
1.91077e-05
-2.85632e-07
1.90795e-05
-3.18665e-07
1.90476e-05
-3.55628e-07
1.90113e-05
-3.975e-07
1.89698e-05
-4.45292e-07
1.89223e-05
-5.00047e-07
1.88675e-05
-5.62828e-07
1.8804e-05
-6.34683e-07
1.87301e-05
-7.16578e-07
1.86434e-05
-8.09292e-07
1.85413e-05
-9.1327e-07
1.84202e-05
-1.02843e-06
1.82758e-05
-1.15392e-06
1.81022e-05
-1.28765e-06
1.78921e-05
-1.4258e-06
1.76356e-05
-1.56197e-06
1.73191e-05
-1.68459e-06
1.69262e-05
-1.78203e-06
-1.79879e-06
1.64238e-05
1.92473e-05
-9.45517e-09
1.92448e-05
-2.90505e-08
1.92404e-05
-4.96374e-08
1.92339e-05
-7.08637e-08
1.9225e-05
-9.2552e-08
1.92138e-05
-1.14601e-07
1.92001e-05
-1.36918e-07
1.91839e-05
-1.59487e-07
1.91651e-05
-1.82456e-07
1.91436e-05
-2.06161e-07
1.91191e-05
-2.3111e-07
1.90914e-05
-2.57947e-07
1.90601e-05
-2.87419e-07
1.90248e-05
-3.20335e-07
1.89849e-05
-3.5754e-07
1.89395e-05
-3.99894e-07
1.88877e-05
-4.48263e-07
1.88284e-05
-5.03501e-07
1.87601e-05
-5.66405e-07
1.86812e-05
-6.37633e-07
1.85895e-05
-7.17594e-07
1.84825e-05
-8.06282e-07
1.83571e-05
-9.03056e-07
1.82095e-05
-1.00633e-06
1.8035e-05
-1.11312e-06
1.78275e-05
-1.21836e-06
1.75797e-05
-1.31414e-06
1.72817e-05
-1.38659e-06
1.69223e-05
-1.42261e-06
-1.35797e-06
1.64815e-05
1.92473e-05
-8.59897e-09
1.92446e-05
-2.64136e-08
1.92399e-05
-4.49093e-08
1.92328e-05
-6.37483e-08
1.92231e-05
-8.28838e-08
1.92108e-05
-1.02303e-07
1.91958e-05
-1.21929e-07
1.91781e-05
-1.41734e-07
1.91575e-05
-1.61852e-07
1.91339e-05
-1.82586e-07
1.91072e-05
-2.0438e-07
1.9077e-05
-2.27794e-07
1.90431e-05
-2.53472e-07
1.90048e-05
-2.82106e-07
1.89617e-05
-3.14407e-07
1.89129e-05
-3.5109e-07
1.88575e-05
-3.92858e-07
1.87944e-05
-4.40373e-07
1.87222e-05
-4.9421e-07
1.86393e-05
-5.5477e-07
1.85439e-05
-6.22168e-07
1.84337e-05
-6.96059e-07
1.8306e-05
-7.75414e-07
1.81579e-05
-8.58191e-07
1.79856e-05
-9.40871e-07
1.77851e-05
-1.01777e-06
1.75512e-05
-1.08031e-06
1.72785e-05
-1.11387e-06
1.69611e-05
-1.10524e-06
-9.8911e-07
1.65923e-05
1.92473e-05
-7.73941e-09
1.92446e-05
-2.37509e-08
1.92397e-05
-3.99707e-08
1.92321e-05
-5.61627e-08
1.92217e-05
-7.25121e-08
1.92085e-05
-8.90933e-08
1.91924e-05
-1.05816e-07
1.91733e-05
-1.22645e-07
1.91512e-05
-1.39707e-07
1.91258e-05
-1.57268e-07
1.90972e-05
-1.7571e-07
1.90649e-05
-1.95504e-07
1.90286e-05
-2.17193e-07
1.89878e-05
-2.41353e-07
1.8942e-05
-2.68568e-07
1.88903e-05
-2.99415e-07
1.88319e-05
-3.34443e-07
1.87657e-05
-3.74148e-07
1.86904e-05
-4.18917e-07
1.86046e-05
-4.68948e-07
1.85066e-05
-5.24141e-07
1.83944e-05
-5.83937e-07
1.82661e-05
-6.47098e-07
1.81193e-05
-7.1139e-07
1.79516e-05
-7.73152e-07
1.77605e-05
-8.26661e-07
1.75437e-05
-8.63488e-07
1.72995e-05
-8.697e-07
1.70273e-05
-8.33066e-07
-6.93708e-07
1.67319e-05
1.92474e-05
-6.95791e-09
1.92449e-05
-2.12555e-08
1.92398e-05
-3.49563e-08
1.92319e-05
-4.82117e-08
1.92209e-05
-6.15571e-08
1.92069e-05
-7.51049e-08
1.91899e-05
-8.87322e-08
1.91696e-05
-1.02407e-07
1.91462e-05
-1.16245e-07
1.91194e-05
-1.30473e-07
1.90891e-05
-1.45401e-07
1.9055e-05
-1.61418e-07
1.90167e-05
-1.78965e-07
1.89739e-05
-1.98503e-07
1.89258e-05
-2.20495e-07
1.88718e-05
-2.45387e-07
1.88109e-05
-2.73596e-07
1.87423e-05
-3.05477e-07
1.86646e-05
-3.41262e-07
1.85767e-05
-3.80994e-07
1.8477e-05
-4.24437e-07
1.8364e-05
-4.70941e-07
1.82361e-05
-5.19231e-07
1.80918e-05
-5.67134e-07
1.79299e-05
-6.11202e-07
1.77494e-05
-6.46167e-07
1.75504e-05
-6.6446e-07
1.73346e-05
-6.53922e-07
1.71058e-05
-6.04314e-07
-4.65912e-07
1.6878e-05
1.92476e-05
-6.41515e-09
1.92455e-05
-1.9189e-08
1.92406e-05
-3.00131e-08
1.92324e-05
-4.00574e-08
1.92211e-05
-5.02228e-08
1.92065e-05
-6.05499e-08
1.91887e-05
-7.0893e-08
1.91675e-05
-8.12462e-08
1.9143e-05
-9.17153e-08
1.9115e-05
-1.02471e-07
1.90834e-05
-1.13753e-07
1.90478e-05
-1.25863e-07
1.9008e-05
-1.39144e-07
1.89634e-05
-1.53951e-07
1.89136e-05
-1.70629e-07
1.88577e-05
-1.89504e-07
1.8795e-05
-2.10873e-07
1.87245e-05
-2.3498e-07
1.86451e-05
-2.61927e-07
1.85558e-05
-2.91639e-07
1.84552e-05
-3.23831e-07
1.83421e-05
-3.57861e-07
1.82154e-05
-3.92572e-07
1.80744e-05
-4.2606e-07
1.79185e-05
-4.55396e-07
1.77485e-05
-4.7616e-07
1.75663e-05
-4.82192e-07
1.73761e-05
-4.63732e-07
1.71853e-05
-4.13556e-07
-2.93905e-07
1.70133e-05
1.92484e-05
-6.6437e-09
1.92469e-05
-1.76869e-08
1.9242e-05
-2.5109e-08
1.92336e-05
-3.1749e-08
1.9222e-05
-3.86079e-08
1.92071e-05
-4.55729e-08
1.91887e-05
-5.25176e-08
1.91669e-05
-5.94546e-08
1.91416e-05
-6.64559e-08
1.91128e-05
-7.36369e-08
1.90802e-05
-8.11704e-08
1.90436e-05
-8.9282e-08
1.90027e-05
-9.82228e-08
1.8957e-05
-1.08241e-07
1.89059e-05
-1.19566e-07
1.88488e-05
-1.32405e-07
1.87849e-05
-1.46954e-07
1.87133e-05
-1.63388e-07
1.86331e-05
-1.81667e-07
1.8543e-05
-2.01623e-07
1.84422e-05
-2.23018e-07
1.83297e-05
-2.45317e-07
1.82047e-05
-2.67596e-07
1.8067e-05
-2.88374e-07
1.79171e-05
-3.05447e-07
1.77564e-05
-3.15491e-07
1.75883e-05
-3.14103e-07
1.74184e-05
-2.9381e-07
1.72572e-05
-2.52388e-07
-1.61337e-07
1.71247e-05
1.92511e-05
-9.59365e-09
1.92495e-05
-1.60853e-08
1.9244e-05
-1.96726e-08
1.92355e-05
-2.31985e-08
1.92235e-05
-2.66284e-08
1.92079e-05
-2.99744e-08
1.91887e-05
-3.33111e-08
1.91659e-05
-3.66782e-08
1.91396e-05
-4.01252e-08
1.91097e-05
-4.37374e-08
1.90761e-05
-4.76145e-08
1.90387e-05
-5.18528e-08
1.8997e-05
-5.65479e-08
1.89506e-05
-6.18014e-08
1.88988e-05
-6.7718e-08
1.88407e-05
-7.43936e-08
1.87757e-05
-8.18843e-08
1.87025e-05
-9.01812e-08
1.86201e-05
-9.93438e-08
1.85279e-05
-1.09356e-07
1.84248e-05
-1.19987e-07
1.83104e-05
-1.30885e-07
1.81843e-05
-1.41487e-07
1.80469e-05
-1.50923e-07
1.78993e-05
-1.57913e-07
1.77444e-05
-1.6059e-07
1.75868e-05
-1.56476e-07
1.74343e-05
-1.41345e-07
1.72958e-05
-1.13861e-07
-4.05661e-08
1.7175e-05
1.92385e-05
1.92225e-05
1.92028e-05
1.91796e-05
1.9153e-05
1.9123e-05
1.90897e-05
1.9053e-05
1.90129e-05
1.89691e-05
1.89215e-05
1.88697e-05
1.88131e-05
1.87513e-05
1.86836e-05
1.86092e-05
1.85273e-05
1.84371e-05
1.83378e-05
1.82284e-05
1.81084e-05
1.79776e-05
1.78361e-05
1.76852e-05
1.75272e-05
1.73666e-05
1.72102e-05
1.70688e-05
1.6955e-05
1.69144e-05
2.23846e-05
-1.06053e-05
1.10488e-05
2.19368e-05
-1.07405e-05
1.11883e-05
2.14608e-05
-1.08691e-05
1.13451e-05
2.09534e-05
-1.09867e-05
1.14941e-05
2.0421e-05
-1.11021e-05
1.16345e-05
1.98696e-05
-1.12194e-05
1.17707e-05
1.93036e-05
-1.13395e-05
1.19056e-05
1.87258e-05
-1.14636e-05
1.20414e-05
1.81381e-05
-1.15928e-05
1.21804e-05
1.75416e-05
-1.17282e-05
1.23247e-05
1.69362e-05
-1.18703e-05
1.24757e-05
1.63212e-05
-1.20196e-05
1.26346e-05
1.56962e-05
-1.2177e-05
1.2802e-05
1.50601e-05
-1.23436e-05
1.29796e-05
1.44121e-05
-1.25209e-05
1.31689e-05
1.37511e-05
-1.27106e-05
1.33716e-05
1.30755e-05
-1.29148e-05
1.35904e-05
1.23835e-05
-1.31361e-05
1.38281e-05
1.16725e-05
-1.33773e-05
1.40883e-05
1.09391e-05
-1.36418e-05
1.43751e-05
1.01791e-05
-1.3934e-05
1.46939e-05
9.38675e-06
-1.42589e-05
1.50513e-05
8.55438e-06
-1.46227e-05
1.54551e-05
7.67171e-06
-1.50338e-05
1.59165e-05
6.72443e-06
-1.54996e-05
1.64469e-05
5.69216e-06
-1.60354e-05
1.70677e-05
4.55574e-06
-1.66444e-05
1.77808e-05
3.23234e-06
-1.73691e-05
1.86925e-05
1.81261e-06
-1.81064e-05
1.95261e-05
-1.93144e-05
2.1127e-05
2.25277e-05
-1.01354e-05
2.20222e-05
-1.0235e-05
2.14905e-05
-1.03374e-05
2.09431e-05
-1.04393e-05
2.0385e-05
-1.05439e-05
1.98185e-05
-1.06529e-05
1.92452e-05
-1.07662e-05
1.86653e-05
-1.08837e-05
1.80785e-05
-1.10059e-05
1.74836e-05
-1.11333e-05
1.68797e-05
-1.12664e-05
1.62658e-05
-1.14058e-05
1.56413e-05
-1.15525e-05
1.50054e-05
-1.17077e-05
1.43572e-05
-1.18726e-05
1.36954e-05
-1.20488e-05
1.30186e-05
-1.2238e-05
1.23246e-05
-1.24421e-05
1.16107e-05
-1.26634e-05
1.08736e-05
-1.29047e-05
1.01088e-05
-1.31692e-05
9.31072e-06
-1.34608e-05
8.47183e-06
-1.37839e-05
7.58219e-06
-1.41442e-05
6.62852e-06
-1.45459e-05
5.5933e-06
-1.50002e-05
4.45175e-06
-1.55028e-05
3.16618e-06
-1.60835e-05
1.73966e-06
-1.66799e-05
-1.75747e-05
2.24352e-05
-9.62352e-06
2.19087e-05
-9.70851e-06
2.13699e-05
-9.79851e-06
2.08238e-05
-9.89328e-06
2.0272e-05
-9.99208e-06
1.97134e-05
-1.00943e-05
1.9147e-05
-1.01999e-05
1.85723e-05
-1.0309e-05
1.79886e-05
-1.04222e-05
1.73953e-05
-1.054e-05
1.67921e-05
-1.06632e-05
1.61786e-05
-1.07923e-05
1.55545e-05
-1.09283e-05
1.49189e-05
-1.10721e-05
1.42709e-05
-1.12246e-05
1.3609e-05
-1.1387e-05
1.29316e-05
-1.15606e-05
1.22364e-05
-1.17469e-05
1.15207e-05
-1.19477e-05
1.07812e-05
-1.21651e-05
1.00134e-05
-1.24014e-05
9.21175e-06
-1.26592e-05
8.36907e-06
-1.29412e-05
7.4759e-06
-1.3251e-05
6.51998e-06
-1.359e-05
5.48517e-06
-1.39654e-05
4.3491e-06
-1.43668e-05
3.0868e-06
-1.48212e-05
1.66813e-06
-1.52612e-05
-1.59066e-05
2.23364e-05
-9.10305e-06
2.18072e-05
-9.17927e-06
2.12689e-05
-9.26021e-06
2.07232e-05
-9.34755e-06
2.01702e-05
-9.43913e-06
1.96093e-05
-9.53338e-06
1.90398e-05
-9.63043e-06
1.84618e-05
-9.73096e-06
1.78752e-05
-9.83552e-06
1.72797e-05
-9.94454e-06
1.6675e-05
-1.00585e-05
1.60605e-05
-1.01779e-05
1.54355e-05
-1.03033e-05
1.4799e-05
-1.04355e-05
1.41496e-05
-1.05752e-05
1.3486e-05
-1.07234e-05
1.28063e-05
-1.08809e-05
1.21084e-05
-1.1049e-05
1.13896e-05
-1.12289e-05
1.06466e-05
-1.1422e-05
9.87494e-06
-1.16298e-05
9.06941e-06
-1.18536e-05
8.22317e-06
-1.20949e-05
7.32747e-06
-1.23553e-05
6.37133e-06
-1.26339e-05
5.34024e-06
-1.29343e-05
4.21576e-06
-1.32423e-05
2.97731e-06
-1.35827e-05
1.58817e-06
-1.38721e-05
-1.43184e-05
2.21997e-05
-8.57646e-06
2.16657e-05
-8.64527e-06
2.11237e-05
-8.71821e-06
2.05745e-05
-8.79833e-06
2.00182e-05
-8.88288e-06
1.94546e-05
-8.96973e-06
1.88832e-05
-9.05906e-06
1.83039e-05
-9.15168e-06
1.77164e-05
-9.24803e-06
1.71203e-05
-9.34836e-06
1.65148e-05
-9.45298e-06
1.58992e-05
-9.56232e-06
1.52728e-05
-9.67687e-06
1.46344e-05
-9.79716e-06
1.3983e-05
-9.92379e-06
1.3317e-05
-1.00574e-05
1.26348e-05
-1.01986e-05
1.19341e-05
-1.03483e-05
1.12122e-05
-1.05071e-05
1.04661e-05
-1.06759e-05
9.69147e-06
-1.08552e-05
8.88342e-06
-1.10456e-05
8.03567e-06
-1.12472e-05
7.14034e-06
-1.146e-05
6.18777e-06
-1.16813e-05
5.16538e-06
-1.19119e-05
4.05826e-06
-1.21352e-05
2.84798e-06
-1.23725e-05
1.50258e-06
-1.25267e-05
-1.28158e-05
2.20235e-05
-8.04493e-06
2.14854e-05
-8.10715e-06
2.09401e-05
-8.17289e-06
2.0388e-05
-8.24624e-06
1.98291e-05
-8.32403e-06
1.92631e-05
-8.40375e-06
1.86896e-05
-8.48554e-06
1.81082e-05
-8.57026e-06
1.75185e-05
-8.65832e-06
1.692e-05
-8.74984e-06
1.6312e-05
-8.84505e-06
1.5694e-05
-8.94426e-06
1.5065e-05
-9.04786e-06
1.4424e-05
-9.15621e-06
1.37699e-05
-9.26968e-06
1.31012e-05
-9.38867e-06
1.24161e-05
-9.51358e-06
1.17126e-05
-9.64479e-06
1.09881e-05
-9.78261e-06
1.02395e-05
-9.92725e-06
9.46303e-06
-1.00787e-05
8.65415e-06
-1.02367e-05
7.80726e-06
-1.04003e-05
6.91546e-06
-1.05682e-05
5.97052e-06
-1.07364e-05
4.96184e-06
-1.09032e-05
3.8777e-06
-1.1051e-05
2.70219e-06
-1.1197e-05
1.41189e-06
-1.12364e-05
-1.14039e-05
2.18015e-05
-7.50863e-06
2.12592e-05
-7.56482e-06
2.07102e-05
-7.62388e-06
2.01546e-05
-7.6907e-06
1.95925e-05
-7.7619e-06
1.90234e-05
-7.83463e-06
1.84469e-05
-7.90902e-06
1.78625e-05
-7.98595e-06
1.727e-05
-8.06579e-06
1.66688e-05
-8.14859e-06
1.60582e-05
-8.23444e-06
1.54375e-05
-8.32358e-06
1.48059e-05
-8.41625e-06
1.41623e-05
-8.51265e-06
1.35056e-05
-8.61298e-06
1.28344e-05
-8.71743e-06
1.21469e-05
-8.82613e-06
1.14413e-05
-8.93914e-06
1.07151e-05
-9.05641e-06
9.96549e-06
-9.17767e-06
9.18915e-06
-9.30237e-06
8.382e-06
-9.42955e-06
7.53919e-06
-9.55749e-06
6.65487e-06
-9.68384e-06
5.7223e-06
-9.80378e-06
4.73288e-06
-9.91382e-06
3.67787e-06
-9.99601e-06
2.5443e-06
-1.00634e-05
1.31797e-06
-1.001e-05
-1.0086e-05
2.15281e-05
-6.96755e-06
2.09814e-05
-7.01817e-06
2.04285e-05
-7.07098e-06
1.98693e-05
-7.1315e-06
1.93037e-05
-7.19624e-06
1.87312e-05
-7.26215e-06
1.81515e-05
-7.32929e-06
1.75641e-05
-7.39857e-06
1.69686e-05
-7.47031e-06
1.63645e-05
-7.54447e-06
1.57511e-05
-7.62107e-06
1.51278e-05
-7.70022e-06
1.44936e-05
-7.78207e-06
1.38476e-05
-7.86668e-06
1.31887e-05
-7.95411e-06
1.25156e-05
-8.04432e-06
1.18268e-05
-8.13725e-06
1.11203e-05
-8.23268e-06
1.03941e-05
-8.33022e-06
9.64568e-06
-8.42925e-06
8.87207e-06
-8.52876e-06
8.06982e-06
-8.62729e-06
7.23488e-06
-8.72256e-06
6.36252e-06
-8.81148e-06
5.44744e-06
-8.8887e-06
4.48303e-06
-8.94941e-06
3.46337e-06
-8.97635e-06
2.37856e-06
-8.97857e-06
1.22292e-06
-8.8544e-06
-8.86304e-06
2.11979e-05
-6.42171e-06
2.06469e-05
-6.46716e-06
2.00901e-05
-6.51416e-06
1.95272e-05
-6.56862e-06
1.8958e-05
-6.62704e-06
1.83821e-05
-6.68629e-06
1.77992e-05
-6.74637e-06
1.72088e-05
-6.80818e-06
1.66105e-05
-6.872e-06
1.60037e-05
-6.93771e-06
1.53879e-05
-7.00527e-06
1.47624e-05
-7.07469e-06
1.41263e-05
-7.14602e-06
1.34789e-05
-7.21922e-06
1.2819e-05
-7.29419e-06
1.21454e-05
-7.37075e-06
1.14568e-05
-7.44863e-06
1.07515e-05
-7.52739e-06
1.00277e-05
-7.60641e-06
9.28321e-06
-7.68477e-06
8.5156e-06
-7.76115e-06
7.72202e-06
-7.83372e-06
6.89928e-06
-7.89982e-06
6.04373e-06
-7.95593e-06
5.15148e-06
-7.99645e-06
4.21784e-06
-8.01577e-06
3.23942e-06
-7.99793e-06
2.20922e-06
-7.94837e-06
1.12878e-06
-7.77395e-06
-7.73426e-06
2.08074e-05
-5.87132e-06
2.02523e-05
-5.91203e-06
1.96918e-05
-5.9537e-06
1.91255e-05
-6.00234e-06
1.85531e-05
-6.05462e-06
1.79743e-05
-6.10742e-06
1.73886e-05
-6.16071e-06
1.67957e-05
-6.21532e-06
1.61952e-05
-6.27151e-06
1.55866e-05
-6.3291e-06
1.49693e-05
-6.38798e-06
1.43427e-05
-6.44809e-06
1.37061e-05
-6.50939e-06
1.30586e-05
-6.57175e-06
1.23994e-05
-6.63495e-06
1.17273e-05
-6.69867e-06
1.10412e-05
-6.76251e-06
1.03397e-05
-6.82587e-06
9.6212e-06
-6.88793e-06