/*--------------------------------*- C++ -*----------------------------------*\
  =========                 |
  \\      /  F ield         | OpenFOAM: The Open Source CFD Toolbox
   \\    /   O peration     | Website:  https://openfoam.org
    \\  /    A nd           | Version:  11
     \\/     M anipulation  |
\*---------------------------------------------------------------------------*/
FoamFile
{
    format      ascii;
    class       volScalarField;
    location    "5.4";
    object      p;
}
// * * * * * * * * * * * * * * * * * * * * * * * * * * * * * * * * * * * * * //

dimensions      [0 2 -2 0 0 0 0];

internalField   nonuniform List<scalar> 
12600
(
0.116757
0.116667
0.116615
0.116596
0.116581
0.116564
0.116544
0.116524
0.116503
0.116479
0.116452
0.11642
0.116384
0.116339
0.116283
0.116213
0.116124
0.116009
0.115865
0.115686
0.115462
0.115176
0.114813
0.114353
0.113771
0.113039
0.112122
0.110975
0.109574
0.107803
0.116688
0.116647
0.116612
0.116594
0.116579
0.116563
0.116544
0.116524
0.116504
0.116482
0.116456
0.116427
0.116391
0.116347
0.116293
0.116227
0.116143
0.116031
0.115888
0.115717
0.115502
0.115227
0.114876
0.114431
0.113865
0.113151
0.112251
0.111123
0.109727
0.107999
0.116658
0.116643
0.116617
0.116596
0.116581
0.116566
0.116548
0.11653
0.11651
0.116489
0.116464
0.116435
0.116401
0.11636
0.116309
0.116246
0.116166
0.116064
0.115936
0.115776
0.115573
0.115315
0.114985
0.114564
0.114028
0.113346
0.11248
0.11139
0.110009
0.108312
0.116639
0.11663
0.116611
0.116593
0.116579
0.116565
0.116549
0.116532
0.116514
0.116494
0.116472
0.116446
0.116415
0.116377
0.116331
0.116275
0.116203
0.116113
0.115998
0.115854
0.115673
0.11544
0.115141
0.114758
0.114266
0.113635
0.112824
0.111793
0.110457
0.108802
0.116626
0.11662
0.116608
0.116593
0.11658
0.116567
0.116554
0.116538
0.116522
0.116504
0.116484
0.11646
0.116433
0.1164
0.116361
0.116312
0.116251
0.116174
0.116078
0.115955
0.1158
0.1156
0.115342
0.115008
0.114575
0.114012
0.113277
0.112328
0.11107
0.109492
0.116617
0.116613
0.116604
0.116592
0.116581
0.116569
0.116557
0.116543
0.116529
0.116513
0.116496
0.116476
0.116453
0.116426
0.116394
0.116355
0.116307
0.116246
0.11617
0.116073
0.115949
0.115789
0.115581
0.115308
0.114948
0.114472
0.113838
0.113
0.111854
0.110392
0.11661
0.116608
0.116601
0.116592
0.116582
0.116572
0.116561
0.11655
0.116538
0.116524
0.11651
0.116494
0.116477
0.116456
0.116432
0.116404
0.116369
0.116327
0.116273
0.116205
0.116118
0.116004
0.115854
0.115652
0.11538
0.11501
0.1145
0.113806
0.112812
0.111512
0.116606
0.116604
0.116599
0.116592
0.116584
0.116575
0.116566
0.116556
0.116546
0.116536
0.116525
0.116513
0.116501
0.116487
0.116472
0.116455
0.116436
0.116412
0.116383
0.116347
0.1163
0.116237
0.116151
0.116031
0.115859
0.115614
0.115253
0.114736
0.113942
0.112861
0.116604
0.116602
0.116598
0.116592
0.116586
0.116579
0.116571
0.116563
0.116555
0.116548
0.11654
0.116533
0.116526
0.116519
0.116514
0.116508
0.116504
0.1165
0.116497
0.116494
0.116489
0.116481
0.116465
0.116433
0.116374
0.116269
0.116084
0.115779
0.115235
0.114441
0.116602
0.116601
0.116598
0.116593
0.116588
0.116582
0.116576
0.11657
0.116564
0.116559
0.116555
0.116552
0.11655
0.116551
0.116554
0.116561
0.116572
0.116588
0.11661
0.11664
0.116679
0.116727
0.116783
0.116846
0.116908
0.116958
0.116969
0.116911
0.11667
0.116239
0.116602
0.116601
0.116598
0.116595
0.11659
0.116586
0.116581
0.116577
0.116573
0.11657
0.116569
0.11657
0.116574
0.116581
0.116593
0.11661
0.116636
0.116671
0.116718
0.116781
0.116862
0.116966
0.117096
0.117254
0.117442
0.117656
0.117881
0.118099
0.118214
0.118222
0.116602
0.116602
0.116599
0.116596
0.116593
0.11659
0.116586
0.116583
0.116581
0.116581
0.116582
0.116587
0.116595
0.116608
0.116628
0.116656
0.116694
0.116747
0.116817
0.11691
0.117032
0.117188
0.117389
0.117641
0.117954
0.118336
0.118784
0.119298
0.119812
0.12033
0.116603
0.116603
0.116601
0.116599
0.116596
0.116593
0.116591
0.116589
0.116589
0.11659
0.116594
0.116601
0.116613
0.116632
0.116658
0.116694
0.116744
0.116812
0.116903
0.117022
0.117179
0.117384
0.117649
0.117989
0.118421
0.118964
0.119635
0.120453
0.12139
0.122472
0.116605
0.116604
0.116603
0.116601
0.116598
0.116596
0.116595
0.116594
0.116595
0.116598
0.116604
0.116613
0.116628
0.116651
0.116682
0.116725
0.116784
0.116864
0.116971
0.117112
0.117299
0.117544
0.117864
0.11828
0.118817
0.119508
0.120386
0.121495
0.122857
0.12452
0.116606
0.116606
0.116605
0.116603
0.116601
0.116599
0.116599
0.116598
0.1166
0.116604
0.116611
0.116622
0.116639
0.116664
0.116699
0.116747
0.116812
0.116901
0.117019
0.117176
0.117384
0.117659
0.118021
0.118496
0.119119
0.119932
0.120988
0.122353
0.124104
0.12632
0.116609
0.116608
0.116607
0.116605
0.116604
0.116602
0.116602
0.116602
0.116604
0.116608
0.116616
0.116628
0.116646
0.116672
0.116708
0.116759
0.116827
0.11692
0.117044
0.117209
0.11743
0.117723
0.118111
0.118625
0.119305
0.120204
0.121391
0.122955
0.12502
0.127702
0.116611
0.116611
0.11661
0.116608
0.116606
0.116604
0.116604
0.116604
0.116606
0.11661
0.116618
0.11663
0.116648
0.116674
0.11671
0.11676
0.116828
0.116921
0.117045
0.117211
0.117433
0.11773
0.118126
0.118654
0.119359
0.120299
0.121558
0.123238
0.125504
0.128502
0.116614
0.116614
0.116612
0.11661
0.116608
0.116606
0.116606
0.116606
0.116607
0.116611
0.116618
0.116629
0.116646
0.11667
0.116704
0.116751
0.116815
0.116903
0.117021
0.11718
0.117394
0.11768
0.118063
0.118578
0.11927
0.120202
0.121459
0.123156
0.125478
0.128589
0.116618
0.116617
0.116615
0.116613
0.116611
0.116608
0.116607
0.116606
0.116607
0.11661
0.116615
0.116624
0.116639
0.11666
0.11669
0.116732
0.116789
0.116868
0.116974
0.117118
0.117311
0.117572
0.117923
0.118398
0.119038
0.119906
0.121087
0.122691
0.124903
0.127891
0.116621
0.11662
0.116618
0.116616
0.116613
0.11661
0.116608
0.116606
0.116606
0.116607
0.11661
0.116617
0.116628
0.116645
0.116669
0.116703
0.116751
0.116816
0.116905
0.117026
0.11719
0.117411
0.117711
0.118118
0.11867
0.119422
0.120449
0.121854
0.123789
0.126406
0.116625
0.116624
0.116622
0.116619
0.116615
0.116611
0.116608
0.116605
0.116603
0.116603
0.116604
0.116608
0.116615
0.116626
0.116643
0.116667
0.116702
0.116751
0.116818
0.116909
0.117034
0.117204
0.117436
0.117751
0.118181
0.118769
0.119574
0.12067
0.122197
0.12424
0.11663
0.116629
0.116626
0.116622
0.116617
0.116612
0.116608
0.116604
0.1166
0.116597
0.116596
0.116596
0.116598
0.116603
0.116612
0.116626
0.116646
0.116675
0.116716
0.116773
0.116852
0.116961
0.11711
0.117316
0.117597
0.117983
0.118513
0.119237
0.120228
0.121535
0.116636
0.116635
0.116631
0.116625
0.116619
0.116613
0.116608
0.116602
0.116597
0.116592
0.116587
0.116583
0.11658
0.116579
0.116578
0.11658
0.116584
0.116592
0.116605
0.116624
0.116652
0.116693
0.116751
0.116833
0.116947
0.117107
0.117327
0.117624
0.11801
0.118488
0.116643
0.116641
0.116636
0.116629
0.116621
0.116614
0.116607
0.1166
0.116593
0.116586
0.116578
0.11657
0.116562
0.116553
0.116544
0.116533
0.116521
0.116507
0.11649
0.11647
0.116445
0.116415
0.116377
0.116331
0.116269
0.116191
0.116084
0.115933
0.115691
0.115318
0.116652
0.116649
0.116642
0.116632
0.116623
0.116615
0.116607
0.116598
0.116589
0.116579
0.116569
0.116557
0.116544
0.116528
0.116509
0.116487
0.116458
0.116422
0.116376
0.116317
0.11624
0.116139
0.116007
0.11583
0.115597
0.115283
0.114854
0.114264
0.113414
0.11223
0.116663
0.116659
0.116648
0.116636
0.116626
0.116617
0.116607
0.116597
0.116586
0.116574
0.116561
0.116546
0.116528
0.116506
0.116478
0.116444
0.116401
0.116344
0.116271
0.116175
0.116049
0.115883
0.115661
0.115366
0.11497
0.114435
0.113707
0.112715
0.111315
0.109406
0.116678
0.116671
0.116654
0.116638
0.116627
0.116617
0.116606
0.116595
0.116582
0.116569
0.116553
0.116534
0.116512
0.116485
0.11645
0.116406
0.116349
0.116274
0.116177
0.116049
0.11588
0.115655
0.115356
0.114956
0.114418
0.113691
0.112703
0.111366
0.109505
0.106991
0.116699
0.116685
0.116661
0.116643
0.116632
0.116621
0.116608
0.116595
0.116582
0.116567
0.116549
0.116527
0.116502
0.11647
0.116429
0.116376
0.116308
0.11622
0.116103
0.115948
0.115743
0.115472
0.115112
0.114627
0.113975
0.113093
0.111897
0.110286
0.108074
0.105102
0.11673
0.116691
0.116657
0.116642
0.116632
0.11662
0.116608
0.116594
0.11658
0.116563
0.116544
0.116521
0.116493
0.116457
0.116412
0.116354
0.116278
0.116178
0.116047
0.115873
0.115642
0.115335
0.114929
0.114389
0.11366
0.11267
0.111326
0.109524
0.107088
0.103819
0.116799
0.11671
0.116661
0.116645
0.116635
0.116623
0.116609
0.116595
0.11658
0.116563
0.116543
0.116519
0.11649
0.116452
0.116405
0.116344
0.116264
0.116158
0.116019
0.115836
0.115591
0.115267
0.114834
0.114257
0.113479
0.112423
0.111002
0.109097
0.10655
0.103127
0.106267
0.105434
0.104965
0.10471
0.10443
0.104051
0.103659
0.103275
0.102886
0.102482
0.102061
0.101623
0.101162
0.10067
0.100137
0.0995478
0.0988873
0.098134
0.0972606
0.0962306
0.0949947
0.0934845
0.0916018
0.089211
0.0860899
0.0819811
0.0762766
0.0681985
0.0587053
0.0329126
0.106811
0.10628
0.105868
0.10555
0.105256
0.10493
0.104551
0.104197
0.103866
0.103537
0.103201
0.102857
0.102499
0.102122
0.101717
0.101273
0.100779
0.10022
0.0995748
0.0988164
0.0979067
0.0967934
0.0954005
0.0936235
0.0912885
0.0881989
0.0838231
0.0778814
0.0695158
0.0508401
0.106904
0.106562
0.106289
0.106032
0.105767
0.105511
0.105255
0.105015
0.104788
0.104563
0.104335
0.104104
0.10387
0.103629
0.103375
0.103104
0.102807
0.102475
0.102093
0.101645
0.101103
0.100431
0.0995752
0.0984601
0.0969559
0.0949194
0.0919196
0.0878749
0.0812561
0.0686666
0.107355
0.1072
0.10709
0.106911
0.106711
0.106529
0.106364
0.106212
0.106072
0.105941
0.105821
0.105712
0.105613
0.105523
0.10544
0.105361
0.105283
0.105202
0.105112
0.105002
0.104858
0.104658
0.104369
0.10394
0.103281
0.102293
0.100632
0.0983215
0.093666
0.0861343
0.108047
0.108023
0.10803
0.107922
0.107788
0.107689
0.107624
0.107578
0.10755
0.107541
0.107554
0.10759
0.107649
0.107733
0.107844
0.107983
0.108151
0.10835
0.108579
0.108837
0.109121
0.109423
0.109724
0.109998
0.110187
0.110225
0.109851
0.109138
0.106468
0.103025
0.108974
0.109071
0.109199
0.109183
0.109137
0.109142
0.10919
0.109262
0.109357
0.109481
0.109639
0.109833
0.110066
0.110343
0.110667
0.111045
0.111482
0.111983
0.112555
0.113205
0.113937
0.114754
0.115655
0.116629
0.117644
0.11866
0.119485
0.120205
0.119386
0.119091
0.110155
0.110375
0.110627
0.110711
0.110764
0.110879
0.111049
0.111249
0.111481
0.111753
0.112072
0.112443
0.112869
0.113358
0.113917
0.114554
0.115279
0.116102
0.117035
0.11809
0.11928
0.120617
0.12211
0.123761
0.125558
0.127477
0.129382
0.131339
0.132151
0.134142
0.111614
0.111959
0.112339
0.112534
0.112697
0.112933
0.113236
0.113579
0.113961
0.114396
0.114891
0.115452
0.116087
0.116803
0.11761
0.118521
0.119546
0.120702
0.122003
0.123467
0.125111
0.126954
0.129013
0.131297
0.133806
0.136524
0.139357
0.142324
0.144487
0.14802
0.113368
0.11384
0.114352
0.114666
0.114947
0.115314
0.11576
0.116255
0.1168
0.117408
0.11809
0.118854
0.119707
0.12066
0.121725
0.122916
0.124248
0.125737
0.127402
0.129263
0.131342
0.133661
0.136238
0.139089
0.142216
0.145607
0.149188
0.152928
0.156137
0.160548
0.115421
0.11602
0.116662
0.1171
0.117509
0.118015
0.118611
0.119265
0.119979
0.120768
0.121644
0.122615
0.123692
0.124885
0.126208
0.127677
0.129308
0.131118
0.133129
0.135362
0.137839
0.140583
0.143612
0.14694
0.15057
0.154484
0.158615
0.162888
0.166821
0.171526
0.11775
0.118472
0.119238
0.119804
0.120346
0.120995
0.121743
0.122559
0.123444
0.124415
0.125484
0.126661
0.127957
0.129383
0.130954
0.132687
0.134597
0.136704
0.139028
0.14159
0.144411
0.147511
0.150906
0.154605
0.158604
0.162875
0.167344
0.171903
0.176193
0.180682
0.120299
0.121134
0.122013
0.122703
0.123381
0.124171
0.125068
0.126041
0.127092
0.128238
0.129491
0.130863
0.132364
0.134005
0.135803
0.137773
0.139931
0.142295
0.144884
0.147717
0.150812
0.154185
0.157846
0.161797
0.166022
0.170478
0.17508
0.179682
0.183958
0.187872
0.122966
0.123898
0.124869
0.125678
0.126485
0.127408
0.128443
0.129562
0.130765
0.132069
0.133489
0.135034
0.136715
0.138544
0.140534
0.142702
0.145063
0.147632
0.150427
0.153462
0.156751
0.160305
0.164126
0.168206
0.172518
0.177004
0.181561
0.18601
0.190037
0.193382
0.125595
0.1266
0.12764
0.128552
0.129478
0.130519
0.131672
0.132914
0.134247
0.135686
0.137244
0.138931
0.140758
0.142734
0.144875
0.147193
0.149702
0.152415
0.155346
0.158507
0.161905
0.165545
0.169422
0.173517
0.177792
0.182174
0.186549
0.190715
0.194387
0.197123
0.127979
0.129033
0.130113
0.131106
0.13213
0.133266
0.134511
0.135848
0.13728
0.13882
0.14048
0.14227
0.144199
0.146278
0.148518
0.15093
0.153527
0.156318
0.159315
0.162523
0.165947
0.169583
0.173419
0.177427
0.181557
0.185725
0.189803
0.193568
0.196739
0.198676
0.129882
0.130955
0.132046
0.133093
0.134188
0.135388
0.136693
0.13809
0.139583
0.141184
0.142905
0.144753
0.146737
0.148866
0.15115
0.153598
0.156221
0.159025
0.162017
0.165199
0.168571
0.172121
0.175832
0.179664
0.18356
0.18742
0.191098
0.194351
0.196891
0.19808
0.131064
0.13213
0.133206
0.134274
0.135404
0.136634
0.13796
0.139378
0.140892
0.142511
0.144247
0.146105
0.148093
0.15022
0.152494
0.154921
0.157509
0.160264
0.163186
0.166276
0.169527
0.172922
0.176434
0.180018
0.183605
0.187084
0.190302
0.192999
0.194911
0.195302
0.131327
0.132361
0.1334
0.134456
0.135583
0.136803
0.138112
0.13951
0.141001
0.142595
0.144299
0.146119
0.148063
0.150136
0.152346
0.154698
0.157197
0.159844
0.162639
0.165578
0.168649
0.171832
0.175094
0.178382
0.181617
0.18468
0.187411
0.189525
0.19082
0.190029
0.130557
0.131535
0.13252
0.133532
0.134613
0.135782
0.137035
0.138373
0.1398
0.141324
0.142952
0.144689
0.146542
0.148515
0.150614
0.152842
0.155202
0.157695
0.160316
0.163058
0.165906
0.168834
0.171805
0.174758
0.177607
0.180221
0.182435
0.183915
0.184603
0.18244
0.128749
0.129655
0.130572
0.131507
0.132504
0.133583
0.134743
0.135983
0.137307
0.138721
0.140232
0.141845
0.143564
0.145394
0.147338
0.149399
0.151578
0.153872
0.156275
0.158777
0.161359
0.16399
0.166626
0.169203
0.171626
0.173753
0.175424
0.176237
0.17637
0.172903
0.126034
0.126845
0.127679
0.128508
0.129382
0.130334
0.131367
0.132474
0.133657
0.134923
0.136278
0.137726
0.13927
0.140915
0.142662
0.144512
0.146465
0.148517
0.150658
0.152876
0.155148
0.15744
0.159703
0.161865
0.163828
0.165433
0.166528
0.166612
0.166136
0.16114
0.122617
0.123311
0.124043
0.124735
0.125452
0.126245
0.127118
0.128058
0.129066
0.130149
0.131311
0.132558
0.133891
0.135313
0.136824
0.138425
0.140113
0.141882
0.143722
0.145615
0.147537
0.149449
0.151296
0.153
0.154454
0.155478
0.155932
0.155171
0.153978
0.147125
0.118771
0.119324
0.119931
0.120461
0.120995
0.121601
0.122286
0.123031
0.123835
0.124704
0.125643
0.126657
0.127745
0.12891
0.130151
0.131467
0.132853
0.134301
0.135799
0.137327
0.138854
0.140339
0.141721
0.14291
0.143791
0.144154
0.143868
0.142107
0.139999
0.131236
0.114794
0.115178
0.115633
0.115978
0.116307
0.116705
0.117177
0.117703
0.118276
0.118905
0.119594
0.120346
0.121162
0.12204
0.122979
0.123977
0.125027
0.126119
0.127237
0.128358
0.129447
0.130456
0.131317
0.131928
0.132162
0.131774
0.130646
0.127755
0.124581
0.113681
0.110957
0.111143
0.111414
0.111557
0.111667
0.11184
0.112081
0.112367
0.112691
0.113058
0.113476
0.113944
0.114461
0.115027
0.115639
0.116291
0.116976
0.117679
0.118382
0.119058
0.119666
0.120151
0.120435
0.120403
0.119913
0.118681
0.116601
0.112444
0.108055
0.0945638
0.107486
0.107446
0.1075
0.107423
0.107304
0.107236
0.107228
0.107255
0.107309
0.107398
0.107526
0.107691
0.107893
0.108128
0.108391
0.108676
0.108971
0.10926
0.10952
0.109718
0.109809
0.109727
0.109384
0.108648
0.10736
0.105189
0.10204
0.0964427
0.0906741
0.0740188
0.104547
0.104253
0.104065
0.103766
0.103421
0.10311
0.102842
0.102598
0.102373
0.102172
0.101995
0.101843
0.101712
0.1016
0.1015
0.101401
0.101289
0.101144
0.100939
0.100634
0.100176
0.0994892
0.0984727
0.0969733
0.0948133
0.0916035
0.0872584
0.0800236
0.0727097
0.0522363
0.102277
0.101653
0.101151
0.100614
0.100042
0.0994823
0.0989248
0.0983852
0.0978715
0.0973742
0.0968863
0.0964078
0.0959379
0.0954712
0.0949983
0.0945066
0.0939788
0.0933908
0.0927092
0.0918881
0.0908648
0.0895521
0.0878329
0.0855305
0.082443
0.078115
0.072469
0.0634076
0.0544611
0.0294399
0.100928
0.0999124
0.0990583
0.0982673
0.0975423
0.0967959
0.095916
0.095044
0.0942188
0.0934083
0.0925938
0.0917765
0.0909568
0.0901273
0.0892758
0.0883864
0.0874375
0.0864001
0.0852342
0.0838854
0.0822803
0.0803171
0.0778605
0.0747062
0.0706238
0.06508
0.0580116
0.0468539
0.0363417
0.00579807
0.0997013
0.0981769
0.0970164
0.0961002
0.0951359
0.0940208
0.0928812
0.0917641
0.0906515
0.0895259
0.0883844
0.0872284
0.0860551
0.0848564
0.0836203
0.0823284
0.0809564
0.0794713
0.0778278
0.0759635
0.0737933
0.0711994
0.0680251
0.064035
0.0589684
0.0521949
0.0437299
0.0301212
0.0187673
-0.0185944
-0.0427161
-0.0677712
-0.0944529
-0.121344
-0.147484
-0.172696
-0.196565
-0.218826
-0.238653
-0.255783
-0.269821
-0.280228
-0.286231
-0.28785
-0.284879
-0.276594
-0.262677
-0.243219
-0.218824
-0.190758
-0.164045
-0.142525
-0.129581
-0.123611
-0.122475
-0.123563
-0.123642
-0.12291
-0.121452
-0.120264
0.00212005
-0.019541
-0.0431768
-0.0665194
-0.0895687
-0.112211
-0.134093
-0.154977
-0.174516
-0.192444
-0.208005
-0.220749
-0.229237
-0.233048
-0.233549
-0.230054
-0.221126
-0.206739
-0.18828
-0.167059
-0.146323
-0.13136
-0.124089
-0.122379
-0.123044
-0.121821
-0.118897
-0.117486
-0.118207
-0.118881
0.0137226
-0.00650807
-0.0287994
-0.051425
-0.0739387
-0.0959254
-0.117547
-0.138527
-0.158555
-0.176829
-0.192595
-0.205231
-0.214063
-0.218727
-0.219633
-0.216288
-0.207946
-0.195051
-0.178828
-0.161455
-0.144252
-0.132038
-0.126148
-0.124697
-0.124095
-0.122094
-0.120278
-0.119132
-0.119895
-0.115299
0.0308452
0.0127788
-0.0076073
-0.0281571
-0.0485485
-0.0691434
-0.0901567
-0.110958
-0.130815
-0.149033
-0.164972
-0.178011
-0.187568
-0.193208
-0.194863
-0.192378
-0.18565
-0.175238
-0.162384
-0.148788
-0.136373
-0.127718
-0.122876
-0.119859
-0.117716
-0.116049
-0.115912
-0.116043
-0.115677
-0.11131
0.0408627
0.0245411
0.00578334
-0.0131163
-0.0321542
-0.051829
-0.0720317
-0.0921323
-0.111475
-0.12949
-0.145573
-0.159068
-0.169346
-0.175911
-0.178551
-0.177233
-0.17206
-0.163587
-0.152968
-0.141787
-0.131746
-0.124224
-0.11925
-0.115951
-0.113774
-0.112175
-0.110858
-0.109984
-0.10859
-0.108006
0.0491473
0.0343991
0.0171729
-0.000337977
-0.018181
-0.036864
-0.0562457
-0.0757399
-0.0947245
-0.112622
-0.128801
-0.142576
-0.153296
-0.160454
-0.163798
-0.163325
-0.159258
-0.152224
-0.143354
-0.134086
-0.125771
-0.119274
-0.114669
-0.111472
-0.109141
-0.107263
-0.105637
-0.104333
-0.10355
-0.104331
0.0553698
0.0419815
0.0261432
0.00993522
-0.0067141
-0.0243353
-0.0428304
-0.0616453
-0.0801685
-0.0978165
-0.113956
-0.127895
-0.138977
-0.146682
-0.150732
-0.151126
-0.148146
-0.142455
-0.135109
-0.127358
-0.120301
-0.114589
-0.110301
-0.107084
-0.104505
-0.102298
-0.100424
-0.0990612
-0.0984317
-0.0991979
0.0603309
0.0481072
0.0335021
0.018452
0.0028563
-0.0138211
-0.0315081
-0.0496762
-0.0677311
-0.0851011
-0.101161
-0.115219
-0.126609
-0.134795
-0.139475
-0.140642
-0.138603
-0.134022
-0.127878
-0.121275
-0.115143
-0.110009
-0.105935
-0.102665
-0.0999002
-0.0974979
-0.0954696
-0.093947
-0.0929026
-0.0926336
0.0643158
0.0530954
0.0395724
0.0255559
0.0109153
-0.00488902
-0.021808
-0.0393452
-0.0569319
-0.0740115
-0.0899643
-0.104098
-0.115733
-0.124321
-0.129543
-0.131382
-0.130151
-0.126497
-0.121331
-0.115639
-0.110226
-0.105532
-0.101617
-0.098308
-0.0954117
-0.092848
-0.0906174
-0.0887861
-0.0872428
-0.0863275
0.0676001
0.0572411
0.0446602
0.0315597
0.0177805
0.00277676
-0.0134247
-0.0303602
-0.0474891
-0.0642717
-0.0800959
-0.0942691
-0.106105
-0.115042
-0.120747
-0.123188
-0.122669
-0.119809
-0.115458
-0.110501
-0.105648
-0.101285
-0.0974795
-0.094125
-0.0910977
-0.0883505
-0.0858722
-0.0837118
-0.0817303
-0.080385
0.0703683
0.0607474
0.0489837
0.036693
0.0236883
0.0094128
-0.00612817
-0.0225012
-0.039193
-0.055683
-0.0713691
-0.0855608
-0.097566
-0.106811
-0.112944
-0.11592
-0.116021
-0.113838
-0.110159
-0.105791
-0.101371
-0.0972497
-0.0935132
-0.0901004
-0.0869348
-0.0839939
-0.0812639
-0.0787931
-0.0764289
-0.0746907
0.0727576
0.0637693
0.0527122
0.041135
0.0288243
0.0152088
0.000272351
-0.0155791
-0.0318591
-0.0480673
-0.0636137
-0.0778106
-0.0899607
-0.0994775
-0.105994
-0.109443
-0.110087
-0.108481
-0.105361
-0.101468
-0.0973841
-0.0934412
-0.089738
-0.0862522
-0.0829439
-0.0798109
-0.0768413
-0.0740916
-0.0713798
-0.069294
0.0748677
0.0664225
0.0559756
0.045026
0.0333358
0.0203165
0.00593084
-0.00944081
-0.0253373
-0.0412795
-0.0566902
-0.0708856
-0.0831634
-0.0929249
-0.0997854
-0.103657
-0.104777
-0.103667
-0.101013
-0.0975033
-0.0936796
-0.0898598
-0.0861576
-0.0825838
-0.079129
-0.0758082
-0.0726135
-0.0696124
-0.0666013
-0.0642386
0.0767723
0.0687955
0.0588753
0.048477
0.0373405
0.0248583
0.010972
-0.00396159
-0.0195052
-0.0352007
-0.0504846
-0.0646773
-0.0770718
-0.0870568
-0.0942295
-0.0984793
-0.100018
-0.0993334
-0.0970696
-0.0938666
-0.090239
-0.0864964
-0.0827686
-0.0790955
-0.0754936
-0.0719943
-0.0685956
-0.0653802
-0.0621278
-0.0595689
0.0785262
0.0709559
0.06149
0.0515761
0.040933
0.0289335
0.015498
0.000961767
-0.0142606
-0.0297314
-0.044901
-0.0590942
-0.0715995
-0.0817924
-0.089251
-0.0938417
-0.0957496
-0.0954307
-0.0934902
-0.090531
-0.0870462
-0.0833422
-0.0795663
-0.0757848
-0.0720377
-0.068373
-0.0647971
-0.0614103
-0.0579778
-0.0553034
0.0801696
0.072956
0.0638825
0.0543936
0.0441899
0.0326233
0.0195934
0.00541533
-0.00951758
-0.0247876
-0.0398583
-0.0540592
-0.0666736
-0.0770635
-0.0847868
-0.0896863
-0.0919208
-0.091916
-0.0902424
-0.0874731
-0.0840854
-0.0803869
-0.0765435
-0.072647
-0.0687598
-0.0649472
-0.0612256
-0.0577141
-0.0541642
-0.0514525
0.0817348
0.0748185
0.0660984
0.0569849
0.0471731
0.0359944
0.0233283
0.00947128
-0.00520384
-0.020298
-0.0352878
-0.0495065
-0.0622324
-0.0728125
-0.0807838
-0.0859651
-0.0884891
-0.0887542
-0.0872981
-0.0846719
-0.0813411
-0.0776194
-0.0736924
-0.0696769
-0.0656578
-0.0617183
-0.0578862
-0.0542994
-0.0506942
-0.0480165
0.0832499
0.0766065
0.0681781
0.0593956
0.0499334
0.0391017
0.0267615
0.0131905
-0.00125788
-0.0162022
-0.0311307
-0.0453804
-0.0582233
-0.0689908
-0.0771971
-0.0826371
-0.0854185
-0.0859143
-0.0846329
-0.082108
-0.0787988
-0.0750286
-0.0710046
-0.0668686
-0.0627285
-0.0586864
-0.0547826
-0.0511714
-0.0475711
-0.0449904
0.0847282
0.0783278
0.070155
0.0616639
0.0525127
0.0419912
0.0299423
0.0166248
0.00237287
-0.0124481
-0.0273367
-0.0416327
-0.0546016
-0.0655568
-0.0739886
-0.0796676
-0.0826789
-0.0833704
-0.0822253
-0.0797643
-0.0764446
-0.0726037
-0.0684718
-0.0642162
-0.0599686
-0.0558512
-0.0519173
-0.0483338
-0.0447973
-0.0423659
0.0861821
0.0800018
0.0720554
0.0638211
0.0549458
0.0447012
0.0329125
0.0198184
0.0057336
-0.00899087
-0.0238623
-0.0382222
-0.051329
-0.0624753
-0.071126
-0.0770271
-0.080244
-0.0811
-0.0800572
-0.077625
-0.0742658
-0.0703344
-0.0660858
-0.0617135
-0.0573743
-0.0532117
-0.0492921
-0.0457888
-0.0423719
-0.0401323
0.0876182
0.0816421
0.0738996
0.0658934
0.0572618
0.0472638
0.0357077
0.0228093
0.00886345
-0.00579162
-0.0206697
-0.035113
-0.0483724
-0.0597163
-0.0685823
-0.0746916
-0.0780923
-0.0790851
-0.0781125
-0.0756769
-0.0722507
-0.0682108
-0.0638386
-0.0593546
-0.0549424
-0.050768
-0.04691
-0.0435393
-0.0402924
-0.0382721
0.0890382
0.083258
0.0757048
0.0679027
0.0594852
0.049706
0.0383581
0.0256305
0.0117967
-0.0028163
-0.0177263
-0.0322746
-0.0457039
-0.0572531
-0.0663319
-0.0726357
-0.0761958
-0.0773041
-0.0763714
-0.0739022
-0.0703854
-0.0662224
-0.0617223
-0.0571337
-0.0526699
-0.0485209
-0.0447767
-0.0415942
-0.0385639
-0.0367706
0.0904393
0.0848531
0.0774846
0.069868
0.0616366
0.052051
0.0408896
0.0283104
0.0145635
-3.42985e-05
-0.0150023
-0.0296805
-0.0433036
-0.055072
-0.0643665
-0.0708545
-0.0745668
-0.075767
-0.0748467
-0.07231
-0.0686729
-0.0643666
-0.0597307
-0.0550441
-0.050552
-0.0464687
-0.0428926
-0.0399546
-0.0371878
-0.0356217
0.0918174
0.086427
0.0792485
0.0718043
0.0637334
0.0543191
0.0433254
0.0308728
0.0171885
0.00258026
-0.0124675
-0.0272926
-0.0411292
-0.0531253
-0.0626344
-0.069291
-0.0731147
-0.0743764
-0.0734433
-0.0708244
-0.0670617
-0.0626132
-0.0578469
-0.0530758
-0.0485836
-0.0446104
-0.0412577
-0.0386066
-0.036123
-0.034783
0.0931673
0.0879798
0.0810045
0.0737224
0.0657873
0.0565273
0.0456884
0.0333432
0.0196919
0.00503221
-0.0101412
-0.0251495
-0.0392319
-0.0514878
-0.0612212
-0.0680729
-0.072076
-0.0733632
-0.0723579
-0.0695917
-0.0656456
-0.0610131
-0.0560964
-0.0512401
-0.0467726
-0.0429619
-0.0399033
-0.0375862
-0.0353724
-0.0341873
0.0944743
0.0895133
0.0827638
0.0756347
0.0678066
0.0586817
0.0479949
0.0357648
0.0221605
0.00745784
-0.00784539
-0.0230763
-0.0373841
-0.0499021
-0.0598306
-0.0667142
-0.070832
-0.072226
-0.0711822
-0.0683012
-0.0642074
-0.0594218
-0.0543928
-0.0494976
-0.0451081
-0.0415282
-0.0388507
-0.0369544
-0.0350823
-0.0339634
0.0957054
0.0910138
0.0845355
0.0775561
0.0698077
0.0607607
0.0501517
0.0379544
0.024309
0.009507
-0.00598179
-0.0214904
-0.0360893
-0.0489508
-0.0592185
-0.0664593
-0.0704721
-0.0717431
-0.0705342
-0.067429
-0.0630915
-0.0580734
-0.0528432
-0.047859
-0.0435449
-0.0402376
-0.0379914
-0.0365302
-0.0350947
-0.0342911
0.0968489
0.0924471
0.0863199
0.0795524
0.0719827
0.0631272
0.0526929
0.0405995
0.0269625
0.0120806
-0.00358004
-0.0193113
-0.0341846
-0.0473104
-0.0576701
-0.0650301
-0.0694678
-0.070861
-0.0695568
-0.0662837
-0.0617602
-0.0565656
-0.0511843
-0.0461543
-0.0419698
-0.0390703
-0.037401
-0.0363099
-0.0349784
-0.0342544
0.0978768
0.0937792
0.0878323
0.0810416
0.073407
0.0645714
0.0541631
0.0420395
0.0282839
0.0131974
-0.00272407
-0.0187638
-0.0339608
-0.04743
-0.057946
-0.0651825
-0.0695059
-0.0707552
-0.0692177
-0.0656827
-0.0609138
-0.0555076
-0.0499875
-0.0449447
-0.0409165
-0.0385293
-0.0376908
-0.0373577
-0.0364184
-0.0351795
0.0989521
0.0956226
0.0904252
0.0840264
0.0766285
0.0680082
0.0578139
0.0458388
0.032086
0.0168297
0.00057124
-0.0159531
-0.0317418
-0.0457663
-0.0568938
-0.06461
-0.0691533
-0.0703056
-0.0685245
-0.0646231
-0.0594317
-0.0536313
-0.0478213
-0.0426973
-0.0390069
-0.0373594
-0.0371842
-0.0370254
-0.0361821
-0.0354104
-0.0168146
-0.0230409
-0.0345313
-0.0461648
-0.037538
-0.00777975
0.0170391
0.0344583
0.0480907
0.0587507
0.0671867
0.074035
0.0797523
0.0846681
0.0889847
0.0928353
0.0963166
0.0994898
0.102391
0.105042
0.107463
0.109667
0.111689
0.113526
0.115291
0.116901
0.118637
0.120105
0.122256
0.121732
-0.0186217
-0.0296382
-0.0475192
-0.0614395
-0.0553878
-0.0250965
0.00655362
0.0281579
0.0439854
0.0558439
0.0651189
0.0725228
0.0785941
0.083756
0.0882412
0.0922018
0.0957651
0.0990175
0.102009
0.104768
0.107309
0.109633
0.111758
0.113657
0.115389
0.116876
0.118306
0.119335
0.120623
0.121113
-0.0174761
-0.0319783
-0.0560917
-0.0750858
-0.0743229
-0.0454946
-0.0090494
0.0189921
0.0380978
0.051739
0.0624025
0.0706217
0.0771148
0.0825421
0.087219
0.0913157
0.0949804
0.0983211
0.1014
0.10427
0.106946
0.109437
0.111742
0.11384
0.115748
0.117427
0.11896
0.120257
0.121515
0.122633
-0.0134662
-0.0295838
-0.0577657
-0.0829646
-0.0895954
-0.0664953
-0.026666
0.00874778
0.032327
0.048586
0.0609951
0.0701993
0.0771342
0.082712
0.0874242
0.0915239
0.0951947
0.0985277
0.101627
0.104554
0.107299
0.109911
0.112375
0.114684
0.116834
0.118804
0.120605
0.122213
0.12364
0.124845
-0.00835492
-0.0233874
-0.0525139
-0.0825249
-0.0952692
-0.0822277
-0.0452835
-0.00516502
0.025345
0.0461614
0.060322
0.0705985
0.078085
0.0838662
0.0885479
0.0924922
0.0959692
0.099158
0.102173
0.10499
0.107712
0.110376
0.112916
0.115358
0.117682
0.119867
0.121896
0.123751
0.12543
0.126869
-0.0048774
-0.017083
-0.0419537
-0.0727838
-0.0912993
-0.0868113
-0.0588087
-0.0194225
0.0161345
0.0422369
0.0601925
0.0719641
0.0799737
0.0859383
0.0905597
0.0943059
0.0974949
0.100339
0.102991
0.105582
0.108173
0.110722
0.113247
0.115747
0.118193
0.120564
0.122836
0.124981
0.127
0.128808
-0.00661826
-0.0142152
-0.0321632
-0.0575018
-0.0787855
-0.0809787
-0.0621231
-0.02855
0.00754604
0.0372792
0.0591109
0.0740981
0.0838816
0.0901178
0.0943495
0.0976068
0.100305
0.102693
0.104882
0.106967
0.109086
0.111306
0.113628
0.116029
0.11848
0.120962
0.123439
0.125863
0.128235
0.130433
-0.0162878
-0.0176188
-0.0293222
-0.0462252
-0.0623851
-0.0685777
-0.0575796
-0.0317117
0.00222115
0.033119
0.0584473
0.0765752
0.0885041
0.0962467
0.100956
0.103609
0.105246
0.106636
0.107988
0.109435
0.110971
0.112673
0.114522
0.116544
0.11875
0.121126
0.123624
0.126196
0.12884
0.131385
-0.034498
-0.0287099
-0.0350578
-0.0449342
-0.0545288
-0.0571911
-0.0502842
-0.0316717
-0.00316001
0.0275542
0.0553306
0.0774955
0.0932509
0.103184
0.108929
0.112141
0.113711
0.114088
0.113783
0.113465
0.113535
0.114253
0.115456
0.116991
0.118833
0.120962
0.123242
0.12576
0.128558
0.131386
-0.0615977
-0.0477881
-0.0496211
-0.0541361
-0.0586375
-0.0585679
-0.0509042
-0.0347056
-0.0115269
0.0167427
0.0449624
0.0700634
0.0905631
0.105711
0.115469
0.1207
0.12289
0.123438
0.123197
0.122366
0.120941
0.119328
0.11801
0.117551
0.118533
0.12009
0.121671
0.123832
0.126642
0.129574
-0.0952451
-0.0729243
-0.0717103
-0.0722506
-0.0735551
-0.0714896
-0.0637285
-0.0494491
-0.0283587
-0.00259446
0.0250973
0.0515933
0.0748415
0.0939243
0.108912
0.119824
0.126483
0.129428
0.129804
0.128808
0.127438
0.125865
0.124167
0.122889
0.12167
0.120137
0.119309
0.120259
0.122423
0.124432
-0.130786
-0.101999
-0.0990244
-0.0965927
-0.0959278
-0.092868
-0.085651
-0.0730465
-0.0551666
-0.0324429
-0.00654942
0.0203929
0.046184
0.0690665
0.0879945
0.102841
0.114024
0.122016
0.126764
0.128752
0.128916
0.127633
0.125492
0.123562
0.122078
0.120466
0.119076
0.118823
0.118445
0.117579
-0.166203
-0.13251
-0.129196
-0.12435
-0.122751
-0.119491
-0.113074
-0.102333
-0.0869941
-0.0674731
-0.0445372
-0.019535
0.00593375
0.0302889
0.0522535
0.0710643
0.0864679
0.0985921
0.108001
0.114642
0.118739
0.120607
0.120687
0.119488
0.117555
0.115261
0.112991
0.111499