/*--------------------------------*- C++ -*----------------------------------*\
  =========                 |
  \\      /  F ield         | OpenFOAM: The Open Source CFD Toolbox
   \\    /   O peration     | Website:  https://openfoam.org
    \\  /    A nd           | Version:  11
     \\/     M anipulation  |
\*---------------------------------------------------------------------------*/
FoamFile
{
    format      ascii;
    class       volScalarField;
    location    "5.4";
    object      p;
}
// * * * * * * * * * * * * * * * * * * * * * * * * * * * * * * * * * * * * * //

dimensions      [0 2 -2 0 0 0 0];

internalField   nonuniform List<scalar> 
12600
(
0.798495
0.798361
0.798292
0.798264
0.798234
0.798192
0.798143
0.798087
0.798021
0.797944
0.797852
0.797742
0.79761
0.797452
0.79726
0.797027
0.796743
0.796395
0.795968
0.795445
0.794798
0.793992
0.792999
0.791774
0.790246
0.788328
0.785917
0.782868
0.779017
0.774064
0.798423
0.798353
0.798295
0.798264
0.798233
0.798193
0.798144
0.798088
0.798024
0.797947
0.797857
0.797749
0.797619
0.797462
0.797272
0.797042
0.796762
0.79642
0.795999
0.795485
0.79485
0.794051
0.79307
0.791864
0.790358
0.788467
0.786087
0.783078
0.779251
0.774379
0.798391
0.798356
0.798306
0.798269
0.798236
0.798197
0.79815
0.798096
0.798032
0.797957
0.797868
0.797762
0.797635
0.797481
0.797296
0.79707
0.796797
0.796463
0.796052
0.795549
0.794926
0.794152
0.793201
0.792025
0.790556
0.788713
0.786389
0.783454
0.77969
0.774938
0.798369
0.798347
0.798306
0.798269
0.798237
0.7982
0.798155
0.798102
0.798041
0.797968
0.797882
0.797779
0.797656
0.797508
0.797328
0.797111
0.796846
0.796524
0.796128
0.795642
0.795044
0.794304
0.793389
0.792256
0.790844
0.789072
0.786834
0.784008
0.780362
0.775765
0.798356
0.79834
0.798309
0.798275
0.798243
0.798208
0.798165
0.798114
0.798054
0.797985
0.797902
0.797803
0.797685
0.797543
0.797372
0.797164
0.796912
0.796604
0.796228
0.795766
0.795198
0.794496
0.793629
0.792555
0.791216
0.789537
0.787414
0.78473
0.781249
0.776864
0.798347
0.798336
0.798311
0.79828
0.798249
0.798215
0.798174
0.798126
0.798069
0.798003
0.797925
0.797831
0.79772
0.797585
0.797424
0.797228
0.796991
0.796702
0.796348
0.795916
0.795384
0.794729
0.79392
0.792918
0.791669
0.790103
0.788122
0.785614
0.782346
0.778224
0.798343
0.798334
0.798313
0.798286
0.798257
0.798225
0.798187
0.798141
0.798088
0.798026
0.797952
0.797865
0.797761
0.797636
0.797485
0.797304
0.797084
0.796816
0.79649
0.796091
0.795602
0.795
0.794258
0.793339
0.792196
0.790763
0.78895
0.786651
0.78364
0.779835
0.798342
0.798334
0.798317
0.798293
0.798266
0.798236
0.7982
0.798158
0.798109
0.798051
0.797983
0.797902
0.797806
0.797692
0.797554
0.797389
0.797188
0.796945
0.796649
0.796288
0.795847
0.795305
0.794638
0.793814
0.792789
0.791508
0.789885
0.787827
0.785117
0.781683
0.798343
0.798337
0.798322
0.798301
0.798276
0.798248
0.798215
0.798177
0.798131
0.798079
0.798017
0.797944
0.797857
0.797754
0.797631
0.797483
0.797304
0.797088
0.796825
0.796506
0.796117
0.79564
0.795056
0.794335
0.793442
0.792326
0.790915
0.789127
0.786757
0.783748
0.798346
0.798341
0.798328
0.79831
0.798287
0.798262
0.798232
0.798197
0.798156
0.798109
0.798054
0.797989
0.797913
0.797822
0.797714
0.797584
0.797429
0.797242
0.797015
0.796741
0.796408
0.796001
0.795505
0.794896
0.794143
0.793207
0.792026
0.790531
0.78854
0.786005
0.798351
0.798347
0.798336
0.79832
0.7983
0.798276
0.79825
0.798219
0.798183
0.798141
0.798093
0.798037
0.797972
0.797894
0.797802
0.797693
0.797562
0.797406
0.797217
0.79699
0.796716
0.796384
0.79598
0.795488
0.794884
0.794137
0.7932
0.792017
0.790437
0.788422
0.798358
0.798354
0.798345
0.79833
0.798313
0.798292
0.798269
0.798242
0.798211
0.798176
0.798135
0.798088
0.798033
0.79797
0.797895
0.797807
0.797702
0.797577
0.797429
0.797251
0.797038
0.796782
0.796474
0.796103
0.795652
0.795102
0.794418
0.793563
0.792417
0.790959
0.798366
0.798363
0.798355
0.798342
0.798327
0.798309
0.798289
0.798266
0.79824
0.798211
0.798178
0.798141
0.798098
0.798048
0.797991
0.797924
0.797846
0.797755
0.797647
0.79752
0.797369
0.797192
0.796982
0.796733
0.796438
0.796087
0.79566
0.79514
0.794443
0.793566
0.798375
0.798373
0.798365
0.798355
0.798341
0.798326
0.79831
0.798291
0.79827
0.798247
0.798222
0.798195
0.798164
0.798129
0.79809
0.798045
0.797994
0.797936
0.797869
0.797793
0.797706
0.797607
0.797495
0.797369
0.79723
0.797077
0.796907
0.79672
0.796476
0.796189
0.798386
0.798383
0.798377
0.798368
0.798357
0.798344
0.798331
0.798316
0.798301
0.798285
0.798267
0.798249
0.798231
0.798211
0.798189
0.798167
0.798144
0.798119
0.798094
0.798068
0.798044
0.798023
0.798008
0.798003
0.798016
0.798057
0.798136
0.798275
0.798474
0.798769
0.798397
0.798394
0.798389
0.798381
0.798372
0.798362
0.798352
0.798342
0.798332
0.798322
0.798313
0.798304
0.798298
0.798292
0.798289
0.798289
0.798293
0.798302
0.798317
0.798342
0.79838
0.798435
0.798514
0.798626
0.798786
0.799012
0.799329
0.799775
0.800394
0.801242
0.798408
0.798407
0.798402
0.798395
0.798388
0.798381
0.798374
0.798367
0.798362
0.798359
0.798358
0.798359
0.798364
0.798374
0.798388
0.79841
0.798441
0.798482
0.798538
0.798612
0.798709
0.798838
0.799007
0.799231
0.799529
0.799928
0.800466
0.801195
0.802196
0.803549
0.798421
0.798419
0.798415
0.79841
0.798404
0.798399
0.798395
0.798393
0.798393
0.798395
0.798402
0.798413
0.79843
0.798453
0.798486
0.798529
0.798585
0.798659
0.798753
0.798874
0.799029
0.799228
0.799483
0.799811
0.800237
0.800795
0.801531
0.802511
0.803846
0.805634
0.798434
0.798432
0.798429
0.798424
0.79842
0.798417
0.798416
0.798417
0.798422
0.798431
0.798445
0.798465
0.798493
0.79853
0.79858
0.798643
0.798725
0.798829
0.79896
0.799126
0.799336
0.7996
0.799935
0.800359
0.800902
0.801601
0.80251
0.803703
0.805313
0.807452
0.798447
0.798446
0.798442
0.798438
0.798435
0.798434
0.798436
0.798441
0.79845
0.798465
0.798486
0.798515
0.798554
0.798605
0.79867
0.798753
0.798859
0.798991
0.799158
0.799366
0.799626
0.799952
0.800359
0.800871
0.801517
0.802339
0.803394
0.804759
0.806579
0.808972
0.798461
0.79846
0.798456
0.798452
0.79845
0.798451
0.798455
0.798464
0.798477
0.798497
0.798525
0.798563
0.798612
0.798675
0.798755
0.798857
0.798985
0.799144
0.799343
0.799591
0.799898
0.800279
0.800753
0.801342
0.802079
0.803003
0.804175
0.805671
0.807634
0.810181
0.798476
0.798474
0.79847
0.798465
0.798464
0.798467
0.798474
0.798485
0.798503
0.798528
0.798562
0.798607
0.798665
0.79874
0.798835
0.798954
0.799102
0.799287
0.799516
0.799799
0.800149
0.80058
0.801112
0.801769
0.802582
0.803591
0.804853
0.806439
0.80848
0.811083
0.798491
0.798489
0.798483
0.798478
0.798477
0.798481
0.798491
0.798505
0.798526
0.798556
0.798596
0.798648
0.798715
0.7988
0.798908
0.799042
0.799209
0.799417
0.799673
0.799988
0.800376
0.800852
0.801436
0.802151
0.803027
0.804103
0.805428
0.807066
0.809128
0.8117
0.798507
0.798504
0.798496
0.79849
0.798489
0.798495
0.798506
0.798523
0.798547
0.798581
0.798626
0.798685
0.79876
0.798855
0.798974
0.799122
0.799306
0.799534
0.799814
0.800158
0.800579
0.801094
0.801722
0.802485
0.803413
0.804539
0.805906
0.807565
0.8096
0.81207
0.798525
0.798519
0.798508
0.7985
0.7985
0.798507
0.79852
0.798538
0.798566
0.798603
0.798653
0.798717
0.798799
0.798902
0.799031
0.799192
0.799391
0.799636
0.799937
0.800306
0.800756
0.801304
0.801968
0.802771
0.803739
0.804901
0.806293
0.807949
0.809924
0.812244
0.798545
0.798535
0.798518
0.798509
0.79851
0.798519
0.798532
0.798553
0.798582
0.798623
0.798677
0.798746
0.798833
0.798944
0.799081
0.799253
0.799464
0.799724
0.800043
0.800433
0.800907
0.801481
0.802176
0.803011
0.804009
0.805196
0.806597
0.808235
0.810133
0.812281
0.798568
0.798552
0.798527
0.798515
0.798517
0.798527
0.798541
0.798563
0.798595
0.798638
0.798695
0.798768
0.79886
0.798977
0.799122
0.799301
0.799523
0.799795
0.800128
0.800535
0.801028
0.801625
0.802343
0.803202
0.804223
0.805425
0.806828
0.808438
0.810258
0.812241
0.798597
0.798569
0.798534
0.798522
0.798526
0.798535
0.79855
0.798573
0.798606
0.798651
0.798711
0.798786
0.798882
0.799003
0.799154
0.79934
0.799569
0.799851
0.800195
0.800614
0.801122
0.801736
0.802471
0.803348
0.804385
0.805597
0.806995
0.808576
0.810331
0.812189
0.798634
0.798571
0.798531
0.798524
0.79853
0.798539
0.798554
0.798578
0.798612
0.798659
0.79872
0.798798
0.798897
0.799021
0.799175
0.799366
0.799601
0.799889
0.80024
0.800668
0.801186
0.801811
0.802558
0.803447
0.804494
0.805711
0.807103
0.808656
0.810351
0.812139
0.79871
0.798581
0.79853
0.798527
0.798534
0.798542
0.798557
0.798582
0.798617
0.798664
0.798726
0.798805
0.798906
0.799031
0.799187
0.799381
0.799619
0.799911
0.800267
0.8007
0.801224
0.801856
0.802611
0.803507
0.80456
0.805781
0.807169
0.808706
0.810343
0.811961
0.769473
0.76755
0.766072
0.764871
0.763602
0.76219
0.760693
0.759159
0.757593
0.75599
0.754345
0.752651
0.750899
0.749069
0.747139
0.745077
0.742845
0.740393
0.737657
0.734551
0.730963
0.726745
0.721691
0.715518
0.707852
0.698048
0.685743
0.667238
0.652058
0.601934
0.770521
0.768968
0.767624
0.766441
0.765204
0.763878
0.762524
0.761171
0.759811
0.758428
0.757016
0.755566
0.754067
0.752503
0.750853
0.749092
0.747187
0.745095
0.742761
0.740113
0.737054
0.733457
0.729146
0.723881
0.717336
0.708981
0.698393
0.683193
0.668448
0.627825
0.770872
0.76966
0.768592
0.767541
0.766448
0.765323
0.764193
0.763064
0.761923
0.760763
0.759579
0.758367
0.75712
0.755823
0.75446
0.753012
0.751449
0.749738
0.747832
0.745671
0.743174
0.740234
0.736704
0.732384
0.726997
0.72012
0.711325
0.698988
0.685775
0.653412
0.771758
0.770869
0.770076
0.76918
0.768227
0.767276
0.766336
0.765398
0.764456
0.763506
0.762548
0.761577
0.760584
0.759561
0.758493
0.757364
0.756153
0.754832
0.753363
0.751698
0.749771
0.747497
0.744753
0.741379
0.73714
0.731707
0.724664
0.714904
0.703676
0.678517
0.77298
0.772322
0.771736
0.770986
0.77018
0.769407
0.768665
0.767931
0.767199
0.76647
0.765745
0.76502
0.764289
0.763545
0.762779
0.761979
0.76113
0.76021
0.759191
0.758036
0.756694
0.755095
0.753146
0.750716
0.747615
0.743588
0.738246
0.730869
0.721788
0.702896
0.774509
0.774062
0.77368
0.773094
0.772451
0.771861
0.771314
0.770781
0.770256
0.769746
0.769253
0.768774
0.768306
0.767845
0.767386
0.766921
0.76644
0.765928
0.765365
0.764724
0.763968
0.763045
0.761882
0.760377
0.758381
0.755697
0.751979
0.746782
0.739854
0.726319
0.776337
0.776089
0.775899
0.775476
0.774996
0.774584
0.774229
0.773895
0.773579
0.773289
0.77303
0.7728
0.772599
0.772425
0.772277
0.772151
0.772042
0.77194
0.771835
0.771708
0.771534
0.771275
0.770879
0.770269
0.769329
0.767909
0.765714
0.762486
0.75762
0.748611
0.778454
0.778394
0.778389
0.778129
0.777813
0.77758
0.777415
0.777281
0.777173
0.777103
0.777078
0.777098
0.777163
0.777276
0.777439
0.777651
0.777912
0.778218
0.778565
0.778942
0.779335
0.77972
0.780059
0.780298
0.780348
0.780095
0.779297
0.777806
0.77485
0.769566
0.780847
0.780964
0.781133
0.781035
0.780883
0.780826
0.780849
0.780911
0.781009
0.781157
0.781363
0.78163
0.78196
0.782358
0.782827
0.783373
0.783997
0.784702
0.785488
0.786352
0.787289
0.788284
0.789314
0.790341
0.791298
0.7921
0.79255
0.792555
0.791311
0.78899
0.783492
0.783774
0.784106
0.784165
0.784176
0.784292
0.784499
0.784753
0.785053
0.785415
0.785848
0.786357
0.786945
0.78762
0.788388
0.789255
0.79023
0.791317
0.792521
0.793847
0.795293
0.796856
0.79852
0.800261
0.80203
0.803758
0.805288
0.806545
0.806782
0.806711
0.786355
0.786789
0.787268
0.78748
0.787651
0.787936
0.788319
0.788759
0.789254
0.789822
0.790474
0.791216
0.792052
0.792992
0.794044
0.795218
0.796523
0.797969
0.799563
0.801314
0.803227
0.805303
0.807534
0.809905
0.812378
0.814897
0.817333
0.819606
0.821076
0.822613
0.789389
0.789959
0.790572
0.790929
0.791254
0.791699
0.79225
0.792866
0.793547
0.794311
0.795169
0.79613
0.797199
0.798387
0.799704
0.801162
0.802771
0.804545
0.806492
0.808626
0.810953
0.813478
0.8162
0.819107
0.82217
0.825338
0.828503
0.831577
0.834035
0.836643
0.792536
0.793224
0.793952
0.794445
0.794917
0.795513
0.796219
0.796998
0.797851
0.798795
0.799845
0.801006
0.802288
0.803702
0.805259
0.806972
0.808853
0.810916
0.813173
0.815638
0.818319
0.821223
0.824351
0.827692
0.831222
0.83489
0.838602
0.842258
0.845447
0.848693
0.795724
0.796512
0.797336
0.797953
0.79856
0.799293
0.800139
0.801065
0.802073
0.80318
0.804399
0.805739
0.807209
0.808821
0.810587
0.812521
0.814635
0.816944
0.819461
0.822199
0.825168
0.828374
0.831818
0.835488
0.839357
0.843371
0.847439
0.851436
0.855026
0.858482
0.798872
0.799739
0.80064
0.801365
0.802094
0.802947
0.803915
0.804969
0.80611
0.807357
0.808721
0.810214
0.811843
0.813621
0.815561
0.817675
0.819979
0.822485
0.825207
0.828157
0.831344
0.834773
0.838441
0.842333
0.846418
0.850634
0.854881
0.859
0.86268
0.865918
0.801893
0.80282
0.803776
0.804592
0.805425
0.80638
0.807448
0.808606
0.809857
0.811217
0.8127
0.814313
0.816068
0.817976
0.820051
0.822304
0.824749
0.827401
0.83027
0.833367
0.8367
0.840271
0.844073
0.848087
0.852273
0.856562
0.860846
0.864936
0.86856
0.871509
0.804701
0.805666
0.806657
0.807545
0.808462
0.809495
0.81064
0.811878
0.813211
0.814656
0.816225
0.817926
0.819771
0.821771
0.823937
0.826283
0.828821
0.831563
0.834519
0.837699
0.841107
0.844741
0.84859
0.852628
0.85681
0.861054
0.865247
0.869178
0.872612
0.875101
0.807215
0.808199
0.809205
0.810142
0.811121
0.812209
0.813405
0.814694
0.816081
0.81758
0.819201
0.820955
0.822852
0.824901
0.827116
0.829507
0.832087
0.834864
0.837849
0.841046
0.844458
0.848078
0.851889
0.855859
0.859933
0.864018
0.867987
0.871602
0.874623
0.876385
0.809368
0.810352
0.811355
0.812319
0.813334
0.814453
0.815673
0.816985
0.818394
0.819914
0.821554
0.823323
0.825232
0.82729
0.829509
0.831897
0.834467
0.837225
0.840178
0.84333
0.846677
0.850208
0.8539
0.857712
0.861577
0.865389
0.868998
0.872131
0.874552
0.875518
0.811115
0.812082
0.813064
0.814033
0.815059
0.81618
0.817397
0.818703
0.820104
0.821611
0.823234
0.824982
0.826864
0.828889
0.831066
0.833405
0.835913
0.838598
0.841463
0.844506
0.847721
0.851092
0.854586
0.858153
0.861713
0.865142
0.868277
0.870811
0.872553
0.872349
0.812435
0.813368
0.814313
0.815265
0.816276
0.817375
0.81856
0.819831
0.821193
0.822655
0.824227
0.825917
0.827732
0.829682
0.831774
0.834016
0.836415
0.838974
0.841693
0.844568
0.847587
0.850726
0.853946
0.857185
0.860353
0.863305
0.865868
0.867673
0.868657
0.866732
0.813336
0.814219
0.815115
0.816027
0.816999
0.818049
0.819178
0.820385
0.821677
0.823063
0.82455
0.826145
0.827857
0.829691
0.831656
0.833756
0.835996
0.838378
0.840898
0.843547
0.846308
0.84915
0.852026
0.854862
0.857554
0.859935
0.861825
0.862747
0.862932
0.858925
0.813851
0.814673
0.815505
0.816359
0.817268
0.818245
0.819292
0.82041
0.821605
0.822883
0.824252
0.825719
0.82729
0.82897
0.830766
0.832681
0.834716
0.836871
0.83914
0.841508
0.843952
0.846434
0.848897
0.851253
0.853383
0.855091
0.856205
0.856098
0.855414
0.84925
0.814041
0.81479
0.815548
0.816326
0.81715
0.818033
0.818976
0.81998
0.821051
0.822194
0.823416
0.824723
0.82612
0.827611
0.829199
0.830888
0.832675
0.834557
0.836523
0.838554
0.84062
0.842675
0.84465
0.846444
0.847923
0.848855
0.849083
0.847773
0.846053
0.837257
0.813985
0.814651
0.815323
0.81601
0.816733
0.817503
0.818322
0.819191
0.820113
0.821095
0.822141
0.823257
0.824446
0.825712
0.827056
0.828478
0.829974
0.831537
0.83315
0.83479
0.836419
0.837982
0.839397
0.840546
0.84128
0.841319
0.840525
0.837794
0.834815
0.822923
0.813778
0.814354
0.814928
0.815507
0.816112
0.816755
0.817434
0.81815
0.818907
0.819707
0.820556
0.821455
0.822409
0.823417
0.824479
0.825594
0.826754
0.827948
0.829156
0.830348
0.831477
0.832479
0.833258
0.833675
0.83356
0.832575
0.830609
0.82623
0.821795
0.806378
0.81352
0.814006
0.814471
0.814931
0.815409
0.815909
0.816429
0.816971
0.817538
0.818134
0.81876
0.819419
0.820111
0.820836
0.821589
0.822365
0.823155
0.823941
0.824699
0.82539
0.82596
0.82633
0.826391
0.825978
0.8249
0.822751
0.819456
0.813209
0.807149
0.78765
0.81336
0.8137
0.813994
0.814321
0.814682
0.81505
0.815417
0.815786
0.81616
0.816536
0.816918
0.817312
0.817715
0.818118
0.818519
0.818911
0.819282
0.819608
0.819859
0.819989
0.819933
0.819598
0.818858
0.817519
0.815367
0.811913
0.807143
0.798773
0.790993
0.7667
0.813625
0.813705
0.813716
0.813865
0.814072
0.814275
0.814463
0.814656
0.814846
0.814998
0.815123
0.815256
0.815383
0.815464
0.815501
0.815492
0.815422
0.815259
0.814964
0.814482
0.813736
0.812616
0.810975
0.808588
0.805216
0.800272
0.793855
0.782947
0.773476
0.743426
0.81388
0.813529
0.813338
0.813441
0.813588
0.813667
0.813694
0.81368
0.813625
0.813526
0.81337
0.813163
0.812917
0.812614
0.812235
0.811769
0.811193
0.810474
0.809567
0.808406
0.806901
0.804924
0.802304
0.798783
0.794086
0.78749
0.779439
0.765264
0.754854
0.717398
0.689876
0.659091
0.623659
0.585074
0.543756
0.499137
0.450885
0.399822
0.347203
0.294244
0.242994
0.194151
0.149759
0.115785
0.0974514
0.093628
0.0980682
0.104157
0.108086
0.109621
0.112286
0.116934
0.120992
0.122015
0.120469
0.11837
0.11676
0.117692
0.120004
0.122625
0.735881
0.709131
0.677604
0.643452
0.606225
0.565195
0.519369
0.469355
0.415375
0.358326
0.299797
0.241394
0.185542
0.138021
0.108873
0.0992418
0.100831
0.106437
0.109823
0.111582
0.114689
0.119297
0.122132
0.121225
0.118137
0.115077
0.112966
0.116941
0.122869
0.12959
0.746635
0.722449
0.693213
0.660519
0.624292
0.58345
0.537823
0.488239
0.434731
0.378121
0.319291
0.260206
0.203411
0.153763
0.122136
0.110933
0.111528
0.11602
0.118464
0.119465
0.121219
0.123271
0.124146
0.123219
0.119921
0.116468
0.117407
0.126181
0.135259
0.140317
0.765304
0.743492
0.716946
0.687384
0.653892
0.614736
0.569943
0.519851
0.464783
0.405677
0.344158
0.2825
0.223367
0.171848
0.137789
0.124494
0.124137
0.128595
0.13247
0.135546
0.139044
0.142366
0.143648
0.141749
0.137647
0.135655
0.138279
0.143238
0.144183
0.1441
0.775275
0.756587
0.733002
0.706341
0.675753
0.639473
0.596935
0.548254
0.493675
0.433882
0.370523
0.306159
0.244089
0.189775
0.152635
0.136846
0.135525
0.140476
0.14626
0.151811
0.157611
0.162799
0.165581
0.165493
0.163518
0.163649
0.166797
0.168515
0.165595
0.153893
0.783942
0.767599
0.746504
0.722189
0.693743
0.659555
0.618798
0.571382
0.517442
0.457482
0.392956
0.32653
0.262016
0.20522
0.16552
0.147836
0.146067
0.15198
0.159789
0.167651
0.1754
0.18196
0.185749
0.186481
0.18556
0.185439
0.185868
0.183658
0.17821
0.166906
0.790251
0.776008
0.757365
0.735495
0.709386
0.677431
0.638611
0.592556
0.539234
0.479059
0.413418
0.34508
0.278263
0.219172
0.177277
0.158051
0.156059
0.163095
0.172869
0.182803
0.192213
0.199911
0.204403
0.205476
0.204464
0.202975
0.201179
0.197608
0.194513
0.19121
0.795108
0.782725
0.766278
0.74663
0.722754
0.69305
0.656355
0.611999
0.559669
0.499597
0.433073
0.362947
0.293812
0.232371
0.188337
0.167677
0.165582
0.173905
0.185685
0.197603
0.208549
0.21723
0.222082
0.222833
0.220734
0.217417
0.214214
0.211141
0.212658
0.214924
0.798849
0.788101
0.773584
0.755955
0.73416
0.706597
0.671997
0.629459
0.578382
0.518746
0.451666
0.379987
0.308624
0.244828
0.198709
0.176747
0.174738
0.184559
0.198411
0.212228
0.224543
0.233949
0.238667
0.238333
0.234418
0.22921
0.225479
0.224206
0.23011
0.233682
0.801766
0.792438
0.779631
0.76382
0.743958
0.718434
0.68588
0.645186
0.595485
0.536488
0.469093
0.396083
0.322628
0.256536
0.20844
0.185344
0.18361
0.195138
0.211099
0.226692
0.240177
0.249995
0.254025
0.251894
0.24564
0.238774
0.235264
0.236328
0.244566
0.24552
0.804068
0.795964
0.784675
0.770498
0.752415
0.728823
0.698267
0.659445
0.611222
0.553026
0.485508
0.411345
0.335917
0.267585
0.217609
0.19359
0.192226
0.205652
0.223742
0.240978
0.255419
0.265305
0.268108
0.263768
0.25444
0.24634
0.243541
0.246659
0.253803
0.249768
0.805911
0.79886
0.788869
0.776194
0.759737
0.737959
0.709335
0.672388
0.62573
0.568484
0.501022
0.425871
0.348571
0.278037
0.22625
0.201378
0.200638
0.216113
0.236335
0.255071
0.270242
0.279807
0.280887
0.273959
0.261169
0.251887
0.250154
0.254174
0.256798
0.248523
0.807406
0.801276
0.792449
0.781069
0.766093
0.746012
0.719239
0.684145
0.639105
0.582934
0.51569
0.439704
0.360627
0.287922
0.234373
0.208762
0.208895
0.226539
0.248871
0.268956
0.284631
0.293443
0.292059
0.280594
0.265961
0.255616
0.254894
0.257854
0.254635
0.24658
0.808632
0.803304
0.795497
0.785272
0.771639
0.753134
0.728123
0.694844
0.651452
0.596453
0.529568
0.452886
0.37212
0.29727
0.242
0.215779
0.216998
0.236934
0.261343
0.282629
0.298553
0.306295
0.301064
0.285354
0.267948
0.257429
0.257445
0.257339
0.250218
0.248462
0.809648
0.805023
0.798117
0.788926
0.776504
0.759452
0.73611
0.7046
0.662868
0.609119
0.542715
0.465463
0.383088
0.306113
0.249157
0.222448
0.224951
0.2473
0.273753
0.296099
0.311936
0.318134
0.307962
0.288398
0.267511
0.257683
0.25779
0.254477
0.248928
0.259443
0.810496
0.80649
0.800383
0.792117
0.780796
0.765078
0.743306
0.713509
0.673438
0.621001
0.555186
0.477479
0.39357
0.31448
0.255867
0.228784
0.232769
0.257653
0.286102
0.309346
0.32484
0.327147
0.314126
0.288176
0.265255
0.257511
0.257096
0.253244
0.256063
0.283215
0.811205
0.80775
0.802356
0.79492
0.784598
0.770104
0.749807
0.721658
0.683237
0.632159
0.567029
0.488974
0.403596
0.322396
0.262146
0.234801
0.240467
0.268006
0.298387
0.322262
0.337192
0.335006
0.317104
0.28537
0.262993
0.257878
0.256884
0.256354
0.273122
0.315033
0.811798
0.808833
0.804079
0.797397
0.787978
0.774609
0.755693
0.729126
0.692334
0.642651
0.578288
0.499982
0.413196
0.329883
0.26801
0.240515
0.248063
0.278364
0.310611
0.334845
0.347261
0.342931
0.31631
0.28104
0.261839
0.258557
0.258336
0.265403
0.293684
0.334896
0.812292
0.809765
0.805587
0.799589
0.790995
0.77866
0.761034
0.73598
0.70079
0.652528
0.589005
0.510536
0.422398
0.336963
0.273473
0.245939
0.255565
0.288733
0.322727
0.347309
0.356328
0.347266
0.312527
0.277133
0.261747
0.259653
0.26294
0.279491
0.312008
0.342917
0.812704
0.810567
0.80691
0.801535
0.7937
0.782317
0.765892
0.742281
0.708661
0.661837
0.599219
0.520669
0.431227
0.343653
0.278548
0.251086
0.262984
0.299128
0.334667
0.358694
0.365277
0.347415
0.307072
0.274355
0.261786
0.261819
0.271184
0.294807
0.324804
0.345277
0.813043
0.811258
0.808072
0.803266
0.79613
0.78563
0.770324
0.748084
0.715997
0.670621
0.608965
0.530409
0.439707
0.349972
0.283248
0.255967
0.270331
0.309546
0.346484
0.368038
0.371322
0.344188
0.301568
0.272205
0.262338
0.265583
0.281693
0.308058
0.332298
0.34538
0.813315
0.811847
0.80909
0.804806
0.798313
0.788637
0.774374
0.753437
0.722842
0.67892
0.618275
0.539784
0.447864
0.355936
0.287586
0.260591
0.277624
0.319915
0.357717
0.376746
0.373268
0.339112
0.296307
0.27027
0.263702
0.271646
0.292977
0.317985
0.335625
0.3443
0.813526
0.812345
0.80998
0.806177
0.800287
0.79137
0.778081
0.758382
0.729237
0.686769
0.627178
0.548816
0.455714
0.361557
0.291568
0.264962
0.284887
0.330171
0.366825
0.384502
0.371836
0.333085
0.291321
0.268793
0.266085
0.279717
0.304035
0.325448
0.337732
0.343255
0.813684
0.812761
0.810754
0.807396
0.802066
0.793857
0.781483
0.762957
0.735219
0.694203
0.635709
0.557538
0.463288
0.366857
0.295227
0.269093
0.292127
0.340311
0.37509
0.388786
0.368251
0.326397
0.286749
0.268054
0.2697
0.288311
0.313659
0.331495
0.340078
0.342781
0.813795
0.813103
0.811424
0.80848
0.803666
0.796122
0.78461
0.767194
0.740813
0.701232
0.643866
0.565944
0.470577
0.371832
0.298488
0.272955
0.299277
0.349921
0.383151
0.389641
0.36331
0.319493
0.282709
0.26814
0.274713
0.297247
0.321725
0.335931
0.34133
0.342783
0.813855
0.813373
0.811999
0.809444
0.805111
0.798179
0.787484
0.771139
0.746096
0.707954
0.651749
0.574129
0.477675
0.376574
0.30172
0.276666
0.306273
0.35807
0.389037
0.388499
0.357491
0.312857
0.279343
0.269087
0.280851
0.305914
0.328246
0.338836
0.341766
0.343203
0.813867
0.81357
0.81248
0.810293
0.806438
0.800038
0.790077
0.774687
0.75091
0.714193
0.659176
0.581901
0.48438
0.380835
0.303786
0.279836
0.313121
0.365267
0.392059
0.386278
0.351214
0.306893
0.276855
0.270942
0.287113
0.313734
0.333188
0.340496
0.342196
0.343796
0.813857
0.8137
0.812864
0.811001
0.807595
0.801936
0.792751
0.778339
0.755777
0.720466
0.666698
0.589889
0.491489
0.385918
0.30718
0.283393
0.319814
0.371195
0.393329
0.38319
0.345011
0.301298
0.27502
0.274067
0.294379
0.320496
0.337038
0.341533
0.342478
0.344293
0.813866
0.813789
0.813181
0.811568
0.808388
0.802961
0.794334
0.780826
0.759361
0.725243
0.672412
0.595674
0.495957
0.387795
0.307327
0.285358
0.324684
0.375202
0.394048
0.380292
0.338785
0.295255
0.272664
0.275631
0.299562
0.326208
0.339587
0.341433
0.342613
0.344776
0.813907
0.81389
0.81357
0.812434
0.809904
0.805265
0.797563
0.785227
0.765338
0.73318
0.682422
0.606885
0.506276
0.395278
0.311384
0.288631
0.328637
0.378076
0.393332
0.375444
0.330655
0.290614
0.274531
0.283395
0.308858
0.332062
0.341755
0.342448
0.343903
0.345028
0.491795
0.457272
0.419471
0.388038
0.375407
0.394046
0.455212
0.522584
0.561072
0.575165
0.578684
0.578201
0.575218
0.571611
0.568624
0.566525
0.565483
0.565707
0.56725
0.570038
0.573958
0.578877
0.584743
0.59098
0.598187
0.60564
0.614235
0.622888
0.634548
0.638695
0.463868
0.430091
0.405232
0.394287
0.390821
0.413845
0.466146
0.530582
0.572882
0.589462
0.592205
0.589553
0.58381
0.577463
0.57214
0.567928
0.564968
0.563529
0.563662
0.565241
0.56814
0.572186
0.577312
0.583306
0.590111
0.597271
0.60505
0.612199
0.620938
0.626925
0.421435
0.394193
0.382406
0.387131
0.403897
0.433557
0.481584
0.538793
0.583858
0.606081
0.610364
0.605931
0.59692
0.586566
0.577814
0.570672
0.565109
0.561323
0.559478
0.559469
0.561092
0.564158
0.568528
0.573999
0.580409
0.587473
0.595211
0.603054
0.61183
0.620788
0.37376
0.358762
0.356079
0.368685
0.39818
0.439651
0.491968
0.543616
0.588397
0.617641
0.62748
0.624032
0.613245
0.599302
0.585989
0.574659
0.565551
0.559053
0.554925
0.553079
0.553248
0.555349
0.559296
0.564628
0.571144
0.578625
0.586955
0.595837
0.605216
0.614638
0.332856
0.328911
0.330287
0.346641
0.379398
0.425365
0.48018
0.535601
0.580674
0.612173
0.629293
0.632398
0.624482
0.610414
0.59446
0.579312
0.566415
0.556196
0.54937
0.546213
0.54431
0.54466
0.547474
0.55216
0.558468
0.566025
0.574597
0.583931
0.593809
0.603758
0.30713
0.307238
0.309835
0.326732
0.35808
0.402463
0.454126
0.506926
0.554063
0.59097
0.615322
0.626043
0.624469
0.614279
0.598961
0.581903
0.565679
0.551742
0.541602
0.534229
0.530348
0.530885
0.532279
0.535886
0.541533
0.548841
0.55747
0.567145
0.577694
0.588604
0.292839
0.298604
0.299502
0.312606
0.338703
0.3774
0.423768
0.472254
0.517511
0.555255
0.583
0.600042
0.607432
0.605433
0.595745
0.580879
0.563416
0.546054
0.531144
0.519534
0.512896
0.50905
0.509114
0.513543
0.518578
0.526024
0.534937
0.545164
0.556486
0.568244
0.288935
0.302315
0.299973
0.306624
0.32496
0.355187
0.393653
0.435521
0.476265
0.512145
0.540686
0.560719
0.572161
0.5757
0.572864
0.564507
0.551639
0.536078
0.519674
0.504443
0.4924
0.48412
0.481205
0.481326
0.48628
0.494664
0.503342
0.51439
0.526999
0.539904
0.290439
0.310502
0.307128
0.307593
0.317787
0.338314
0.367323
0.40085
0.434917
0.466226
0.492476
0.512403
0.525568
0.532071
0.53239
0.527417
0.518712
0.507098
0.493806
0.480005
0.466959
0.456031
0.448579
0.445145
0.446621
0.451849
0.460957
0.472611
0.486165
0.500804
0.291412
0.315754
0.314226
0.311924
0.315721
0.327309
0.346604
0.37091
0.396875
0.421625
0.44312
0.460143
0.472083
0.478701
0.480049
0.476508
0.468884
0.458333
0.446217
0.433788
0.422119
0.412005
0.404205
0.399395
0.398165
0.401029
0.408038
0.418857
0.432904
0.449113
0.289335
0.315116
0.316608
0.315111
0.315549
0.320406
0.331182
0.346577
0.36406
0.381273
0.396497
0.408642
0.417043
0.421259
0.421016
0.416305
0.407581
0.395792
0.382232
0.368356
0.355525
0.344526
0.336662
0.332223
0.331314
0.334049
0.340436
0.350546
0.364923
0.382053
0.283386
0.309043
0.312985
0.314296
0.314165
0.315026
0.319391
0.327204
0.336887
0.346681
0.35522
0.361568
0.365064
0.365156
0.361383
0.35346
0.341513
0.326302
0.30904
0.29119
0.274275
0.25992
0.248814
0.242032
0.240092
0.242894
0.250114
0.262013
0.277805
0.295501
0.272485
0.298348
0.303734
0.308423
0.309425
0.30877
0.309081
0.311266
0.314654
0.31809
0.320554
0.32125
0.319538
0.314801
0.306442
0.294113
0.277779
0.257914
0.235671
0.212582
0.190205
0.170058
0.153345
0.141047
0.134069
0.133084
0.137977
0.148702
0.164691
0.185692
0.255923
0.28302
0.289297
0.297375
0.300154
0.299908
0.298329
0.297057
0.296119
0.294872
0.292618
0.288686
0.282447
0.273248
0.260343
0.243195
0.221991
0.197324
0.169869
0.141217
0.113037
0.0867483
0.0636279
0.0447426
0.0309254
0.0229685
0.0216046
0.0271977
0.0392654
0.0584313
0.233511
0.262484
0.270099
0.281295
0.285984
0.287472
0.285793
0.283192
0.28003
0.276047
0.270813
0.263779
0.25435
0.241882
0.22561
0.204714
0.178959
0.149647
0.117613
0.0839072
0.0503443
0.0184172
-0.0106388
-0.0357976
-0.0562187
-0.0712602
-0.0802195
-0.0821821
-0.0768026
-0.0635288
0.205717
0.236876
0.24574
0.259998
0.266644
0.270801
0.270635
0.268749
0.265426
0.260695
0.254335
0.245897
0.234862
0.22063
0.202475
0.179721
0.151719
0.118815
0.0828984
0.0451457
0.00710042
-0.0297096
-0.0639997
-0.0947381
-0.121107
-0.142415
-0.158068
-0.167398
-0.169618
-0.16411
0.172884
0.206122
0.216923
0.232287
0.241293
0.249288
0.252431
0.253286
0.251778
0.248191
0.242503
0.234384
0.22341
0.209064
0.190591
0.167182
0.138682
0.104921
0.0671432
0.0271149
-0.0137648
-0.0540077
-0.0923002
-0.127575
-0.158964
-0.185726
-0.207135
-0.222555
-0.231169
-0.232604
0.136116
0.170719
0.181622
0.197894
0.210531
0.223191
0.231347
0.236857
0.239034
0.238302
0.234888
0.228652
0.219317
0.206498
0.189547
0.167419
0.139778
0.107144
0.070017
0.0298974
-0.0117136
-0.053313
-0.09357
-0.13141
-0.16598
-0.196513
-0.22215
-0.242151
-0.255679
-0.262482
0.097151
0.131589
0.141072
0.157377
0.173427
0.192489
0.207763
0.219843
0.227501
0.231154
0.231368
0.228302
0.221881
0.211881
0.197829
0.178874
0.154272
0.124263
0.0895642
0.0512993
0.0109246
-0.0300155
-0.0701434
-0.108297
-0.14357
-0.175226
-0.202532
-0.224779
-0.241131
-0.251155
0.0593326
0.0913158
0.0972576
0.111804
0.130125
0.157683
0.18247
0.202912
0.217709
0.227106
0.232067
0.233191
0.23066
0.224417
0.214138
0.199155
0.178798
0.152931
0.122132