/*--------------------------------*- C++ -*----------------------------------*\
  =========                 |
  \\      /  F ield         | OpenFOAM: The Open Source CFD Toolbox
   \\    /   O peration     | Website:  https://openfoam.org
    \\  /    A nd           | Version:  11
     \\/     M anipulation  |
\*---------------------------------------------------------------------------*/
FoamFile
{
    format      ascii;
    class       surfaceScalarField;
    location    "5.4";
    object      phi;
}
// * * * * * * * * * * * * * * * * * * * * * * * * * * * * * * * * * * * * * //

dimensions      [0 3 -1 0 0 0 0];

internalField   nonuniform List<scalar> 
24840
(
1.57973e-05
1.36426e-08
1.57788e-05
1.85418e-08
1.57615e-05
1.72989e-08
1.57443e-05
1.71814e-08
1.57268e-05
1.7504e-08
1.57092e-05
1.76035e-08
1.56916e-05
1.75457e-08
1.56742e-05
1.74278e-08
1.5657e-05
1.72531e-08
1.564e-05
1.7011e-08
1.56233e-05
1.6699e-08
1.56069e-05
1.63105e-08
1.55911e-05
1.5834e-08
1.55759e-05
1.52536e-08
1.55613e-05
1.4545e-08
1.55476e-05
1.36686e-08
1.55351e-05
1.25791e-08
1.55238e-05
1.12789e-08
1.55141e-05
9.66475e-09
1.55065e-05
7.61842e-09
1.55014e-05
5.10159e-09
1.54994e-05
2.04255e-09
1.55011e-05
-1.74865e-09
1.55075e-05
-6.43829e-09
1.55199e-05
-1.23215e-08
1.55395e-05
-1.95922e-08
1.55685e-05
-2.90756e-08
1.56102e-05
-4.16906e-08
1.56728e-05
-6.25498e-08
-1.37109e-07
1.58099e-05
1.5817e-05
7.59126e-09
1.58208e-05
1.47911e-08
1.58234e-05
1.4624e-08
1.58257e-05
1.49453e-08
1.58277e-05
1.54339e-08
1.58298e-05
1.56007e-08
1.58318e-05
1.54966e-08
1.5834e-05
1.52756e-08
1.58363e-05
1.49343e-08
1.58388e-05
1.4461e-08
1.58417e-05
1.38539e-08
1.58449e-05
1.30981e-08
1.58485e-05
1.21724e-08
1.58527e-05
1.10478e-08
1.58576e-05
9.682e-09
1.58633e-05
7.99426e-09
1.587e-05
5.88908e-09
1.58779e-05
3.3862e-09
1.58872e-05
2.90995e-10
1.58985e-05
-3.60804e-09
1.5912e-05
-8.3898e-09
1.59282e-05
-1.42178e-08
1.59479e-05
-2.13974e-08
1.59717e-05
-3.02543e-08
1.60005e-05
-4.11648e-08
1.60357e-05
-5.48125e-08
1.60781e-05
-7.14214e-08
1.61316e-05
-9.51549e-08
1.61879e-05
-1.18879e-07
-1.54852e-07
1.62056e-05
1.58137e-05
4.90518e-09
1.58171e-05
1.13629e-08
1.58193e-05
1.24421e-08
1.58215e-05
1.27094e-08
1.58237e-05
1.32128e-08
1.58258e-05
1.3533e-08
1.58279e-05
1.34242e-08
1.583e-05
1.31247e-08
1.58323e-05
1.26304e-08
1.58348e-05
1.19331e-08
1.58377e-05
1.10319e-08
1.58409e-05
9.90453e-09
1.58445e-05
8.53286e-09
1.58487e-05
6.88414e-09
1.58534e-05
4.92265e-09
1.58589e-05
2.5167e-09
1.58653e-05
-5.1439e-10
1.58728e-05
-4.07673e-09
1.58816e-05
-8.56478e-09
1.58922e-05
-1.41549e-08
1.59048e-05
-2.1037e-08
1.59201e-05
-2.94806e-08
1.59385e-05
-3.98662e-08
1.59609e-05
-5.2651e-08
1.59881e-05
-6.83722e-08
1.60212e-05
-8.78407e-08
1.60615e-05
-1.11731e-07
1.61081e-05
-1.4178e-07
1.61665e-05
-1.77298e-07
-2.09073e-07
1.62208e-05
1.58125e-05
3.33184e-09
1.58154e-05
8.53217e-09
1.58175e-05
1.03067e-08
1.58195e-05
1.07409e-08
1.58215e-05
1.11712e-08
1.58235e-05
1.15159e-08
1.58255e-05
1.14174e-08
1.58276e-05
1.10352e-08
1.58299e-05
1.03837e-08
1.58323e-05
9.46426e-09
1.58351e-05
8.28006e-09
1.58382e-05
6.79357e-09
1.58417e-05
4.99079e-09
1.58458e-05
2.82358e-09
1.58504e-05
2.9998e-10
1.58558e-05
-2.81832e-09
1.58619e-05
-6.67522e-09
1.58692e-05
-1.13386e-08
1.58778e-05
-1.71493e-08
1.5888e-05
-2.4369e-08
1.59002e-05
-3.32785e-08
1.5915e-05
-4.4237e-08
1.59328e-05
-5.77029e-08
1.59544e-05
-7.42512e-08
1.59806e-05
-9.45783e-08
1.60124e-05
-1.19598e-07
1.60509e-05
-1.50271e-07
1.60967e-05
-1.87588e-07
1.6153e-05
-2.33587e-07
-2.74457e-07
1.62184e-05
1.58119e-05
2.35056e-09
1.58141e-05
6.40268e-09
1.5816e-05
8.3437e-09
1.58178e-05
8.93606e-09
1.58197e-05
9.29753e-09
1.58217e-05
9.55989e-09
1.58236e-05
9.4589e-09
1.58257e-05
8.99187e-09
1.58279e-05
8.18915e-09
1.58303e-05
7.05643e-09
1.5833e-05
5.59436e-09
1.5836e-05
3.77139e-09
1.58394e-05
1.57415e-09
1.58433e-05
-1.09464e-09
1.58478e-05
-4.17401e-09
1.58529e-05
-7.96462e-09
1.58589e-05
-1.26193e-08
1.58659e-05
-1.83234e-08
1.58741e-05
-2.5398e-08
1.58839e-05
-3.41677e-08
1.58956e-05
-4.49962e-08
1.59097e-05
-5.83283e-08
1.59267e-05
-7.47123e-08
1.59473e-05
-9.48326e-08
1.59723e-05
-1.19532e-07
1.60025e-05
-1.49843e-07
1.60392e-05
-1.86994e-07
1.60835e-05
-2.31878e-07
1.61376e-05
-2.87612e-07
-3.41776e-07
1.62049e-05
1.58116e-05
1.69175e-09
1.58133e-05
4.77517e-09
1.5815e-05
6.56258e-09
1.58167e-05
7.22924e-09
1.58185e-05
7.53203e-09
1.58204e-05
7.69993e-09
1.58223e-05
7.55484e-09
1.58243e-05
7.00466e-09
1.58264e-05
6.05856e-09
1.58287e-05
4.72293e-09
1.58313e-05
2.98967e-09
1.58343e-05
8.44684e-10
1.58375e-05
-1.72228e-09
1.58413e-05
-4.82269e-09
1.58456e-05
-8.45983e-09
1.58505e-05
-1.28799e-08
1.58562e-05
-1.82922e-08
1.58628e-05
-2.49532e-08
1.58706e-05
-3.32042e-08
1.58798e-05
-4.34279e-08
1.58909e-05
-5.60594e-08
1.59042e-05
-7.16174e-08
1.59202e-05
-9.07344e-08
1.59396e-05
-1.14198e-07
1.5963e-05
-1.4299e-07
1.59915e-05
-1.78291e-07
1.60261e-05
-2.21579e-07
1.60682e-05
-2.73972e-07
1.61197e-05
-3.39103e-07
-4.07367e-07
1.61853e-05
1.58114e-05
1.21189e-09
1.58127e-05
3.49612e-09
1.58143e-05
4.98892e-09
1.58159e-05
5.63537e-09
1.58175e-05
5.88216e-09
1.58193e-05
5.95122e-09
1.58211e-05
5.72899e-09
1.5823e-05
5.08915e-09
1.58251e-05
4.00484e-09
1.58273e-05
2.47655e-09
1.58298e-05
4.97125e-10
1.58326e-05
-1.9507e-09
1.58358e-05
-4.8754e-09
1.58393e-05
-8.37186e-09
1.58434e-05
-1.2514e-08
1.5848e-05
-1.75167e-08
1.58534e-05
-2.36353e-08
1.58596e-05
-3.11772e-08
1.58669e-05
-4.0517e-08
1.58756e-05
-5.20849e-08
1.58859e-05
-6.63753e-08
1.58982e-05
-8.39757e-08
1.59131e-05
-1.05601e-07
1.5931e-05
-1.3214e-07
1.59527e-05
-1.64704e-07
1.59791e-05
-2.04639e-07
1.60112e-05
-2.53659e-07
1.60505e-05
-3.13276e-07
1.60987e-05
-3.87342e-07
-4.69405e-07
1.61608e-05
1.58113e-05
8.40033e-10
1.58124e-05
2.46331e-09
1.58137e-05
3.61102e-09
1.58152e-05
4.15688e-09
1.58168e-05
4.33111e-09
1.58184e-05
4.2982e-09
1.58202e-05
3.98123e-09
1.5822e-05
3.24498e-09
1.5824e-05
2.02854e-09
1.58262e-05
3.19473e-10
1.58285e-05
-1.88609e-09
1.58312e-05
-4.60653e-09
1.58342e-05
-7.85714e-09
1.58375e-05
-1.172e-08
1.58413e-05
-1.63119e-08
1.58457e-05
-2.18464e-08
1.58506e-05
-2.86083e-08
1.58564e-05
-3.69438e-08
1.58631e-05
-4.72646e-08
1.58711e-05
-6.00453e-08
1.58806e-05
-7.58331e-08
1.58919e-05
-9.52762e-08
1.59054e-05
-1.19164e-07
1.59218e-05
-1.48477e-07
1.59415e-05
-1.8445e-07
1.59655e-05
-2.28596e-07
1.59947e-05
-2.82859e-07
1.60306e-05
-3.49195e-07
1.60748e-05
-4.31572e-07
-5.26712e-07
1.61321e-05
1.58113e-05
5.38844e-10
1.58121e-05
1.60591e-09
1.58133e-05
2.40071e-09
1.58147e-05
2.79096e-09
1.58162e-05
2.87119e-09
1.58177e-05
2.73585e-09
1.58194e-05
2.31799e-09
1.58211e-05
1.48158e-09
1.5823e-05
1.4063e-10
1.58251e-05
-1.73194e-09
1.58273e-05
-4.14338e-09
1.58298e-05
-7.10635e-09
1.58326e-05
-1.06458e-08
1.58358e-05
-1.484e-08
1.58393e-05
-1.98279e-08
1.58433e-05
-2.58341e-08
1.58478e-05
-3.31665e-08
1.58531e-05
-4.22034e-08
1.58592e-05
-5.33909e-08
1.58664e-05
-6.7242e-08
1.58749e-05
-8.43487e-08
1.58851e-05
-1.05412e-07
1.58972e-05
-1.31287e-07
1.59117e-05
-1.63038e-07
1.59293e-05
-2.0201e-07
1.59506e-05
-2.49879e-07
1.59765e-05
-3.08801e-07
1.60085e-05
-3.81181e-07
1.6048e-05
-4.71049e-07
-5.78247e-07
1.60995e-05
1.58112e-05
2.85552e-10
1.5812e-05
8.75648e-10
1.5813e-05
1.3294e-09
1.58143e-05
1.53213e-09
1.58157e-05
1.49869e-09
1.58171e-05
1.25947e-09
1.58187e-05
7.3947e-10
1.58204e-05
-1.97359e-10
1.58222e-05
-1.6549e-09
1.58241e-05
-3.67376e-09
1.58262e-05
-6.26587e-09
1.58286e-05
-9.44157e-09
1.58312e-05
-1.32308e-08
1.5834e-05
-1.77137e-08
1.58373e-05
-2.3042e-08
1.58409e-05
-2.94543e-08
1.5845e-05
-3.72776e-08
1.58497e-05
-4.69162e-08
1.58552e-05
-5.88453e-08
1.58615e-05
-7.3611e-08
1.5869e-05
-9.1843e-08
1.58779e-05
-1.14286e-07
1.58885e-05
-1.41851e-07
1.59011e-05
-1.75672e-07
1.59163e-05
-2.17194e-07
1.59346e-05
-2.68233e-07
1.5957e-05
-3.31139e-07
1.59845e-05
-4.08729e-07
1.60185e-05
-5.0508e-07
-6.23006e-07
1.60633e-05
1.58112e-05
6.51772e-11
1.58118e-05
2.39061e-10
1.58128e-05
3.71917e-10
1.58139e-05
3.71993e-10
1.58152e-05
2.09664e-10
1.58166e-05
-1.35739e-10
1.58181e-05
-7.55858e-10
1.58197e-05
-1.79058e-09
1.58214e-05
-3.35385e-09
1.58232e-05
-5.49999e-09
1.58252e-05
-8.24559e-09
1.58274e-05
-1.1601e-08
1.58297e-05
-1.55985e-08
1.58324e-05
-2.03223e-08
1.58352e-05
-2.5933e-08
1.58385e-05
-3.26814e-08
1.58421e-05
-4.09105e-08
1.58462e-05
-5.10449e-08
1.5851e-05
-6.35836e-08
1.58565e-05
-7.90989e-08
1.58629e-05
-9.82505e-08
1.58704e-05
-1.21818e-07
1.58793e-05
-1.50755e-07
1.58899e-05
-1.86252e-07
1.59025e-05
-2.29833e-07
1.59177e-05
-2.83433e-07
1.59361e-05
-3.4956e-07
1.59588e-05
-4.3139e-07
1.59868e-05
-5.33026e-07
-6.60002e-07
1.60237e-05
1.58112e-05
-1.30831e-10
1.58117e-05
-3.26932e-10
1.58126e-05
-4.94366e-10
1.58137e-05
-7.01121e-10
1.58149e-05
-1.00122e-09
1.58162e-05
-1.45425e-09
1.58176e-05
-2.17095e-09
1.58191e-05
-3.2968e-09
1.58207e-05
-4.95348e-09
1.58224e-05
-7.20598e-09
1.58243e-05
-1.00764e-08
1.58262e-05
-1.35762e-08
1.58284e-05
-1.77393e-08
1.58307e-05
-2.26533e-08
1.58333e-05
-2.84857e-08
1.58361e-05
-3.54969e-08
1.58392e-05
-4.40421e-08
1.58427e-05
-5.45615e-08
1.58467e-05
-6.75713e-08
1.58513e-05
-8.36635e-08
1.58565e-05
-1.03519e-07
1.58627e-05
-1.27943e-07
1.58698e-05
-1.57918e-07
1.58782e-05
-1.94676e-07
1.58882e-05
-2.39796e-07
1.59001e-05
-2.953e-07
1.59143e-05
-3.63813e-07
1.59317e-05
-4.48791e-07
1.5953e-05
-5.54338e-07
-6.88341e-07
1.59814e-05
1.58111e-05
-3.07192e-10
1.58117e-05
-8.39254e-10
1.58124e-05
-1.28843e-09
1.58134e-05
-1.70024e-09
1.58146e-05
-2.14139e-09
1.58158e-05
-2.70113e-09
1.58172e-05
-3.50904e-09
1.58186e-05
-4.71695e-09
1.58201e-05
-6.45228e-09
1.58217e-05
-8.78843e-09
1.58234e-05
-1.17534e-08
1.58251e-05
-1.53606e-08
1.5827e-05
-1.9645e-08
1.58291e-05
-2.46969e-08
1.58313e-05
-3.0688e-08
1.58337e-05
-3.78861e-08
1.58363e-05
-4.66545e-08
1.58392e-05
-5.74438e-08
1.58424e-05
-7.07816e-08
1.5846e-05
-8.72719e-08
1.58501e-05
-1.07609e-07
1.58547e-05
-1.32612e-07
1.58601e-05
-1.6328e-07
1.58663e-05
-2.00868e-07
1.58735e-05
-2.46984e-07
1.58819e-05
-3.03701e-07
1.58918e-05
-3.73709e-07
1.59036e-05
-4.60648e-07
1.59179e-05
-5.68583e-07
-7.07255e-07
1.59368e-05
1.58111e-05
-4.68442e-10
1.58116e-05
-1.31073e-09
1.58123e-05
-2.02535e-09
1.58133e-05
-2.63751e-09
1.58144e-05
-3.21943e-09
1.58155e-05
-3.88261e-09
1.58168e-05
-4.77403e-09
1.58181e-05
-6.0524e-09
1.58195e-05
-7.8496e-09
1.5821e-05
-1.02456e-08
1.58225e-05
-1.32738e-08
1.58241e-05
-1.69503e-08
1.58258e-05
-2.13105e-08
1.58275e-05
-2.64461e-08
1.58294e-05
-3.25318e-08
1.58313e-05
-3.98389e-08
1.58334e-05
-4.87356e-08
1.58356e-05
-5.96773e-08
1.5838e-05
-7.31969e-08
1.58407e-05
-8.99035e-08
1.58436e-05
-1.10496e-07
1.58467e-05
-1.35796e-07
1.58503e-05
-1.66806e-07
1.58542e-05
-2.04784e-07
1.58585e-05
-2.51341e-07
1.58634e-05
-3.08558e-07
1.58688e-05
-3.79135e-07
1.5875e-05
-4.66787e-07
1.58819e-05
-5.7548e-07
-7.16197e-07
1.58908e-05
1.58111e-05
-6.18743e-10
1.58116e-05
-1.75268e-09
1.58123e-05
-2.71932e-09
1.58131e-05
-3.52483e-09
1.58142e-05
-4.24371e-09
1.58153e-05
-5.00467e-09
1.58165e-05
-5.97008e-09
1.58177e-05
-7.30549e-09
1.5819e-05
-9.14638e-09
1.58204e-05
-1.15777e-08
1.58217e-05
-1.46376e-08
1.58231e-05
-1.83441e-08
1.58245e-05
-2.27333e-08
1.5826e-05
-2.78974e-08
1.58275e-05
-3.40122e-08
1.5829e-05
-4.13498e-08
1.58305e-05
-5.02788e-08
1.58321e-05
-6.12543e-08
1.58337e-05
-7.48087e-08
1.58354e-05
-9.15488e-08
1.5837e-05
-1.12169e-07
1.58387e-05
-1.37484e-07
1.58404e-05
-1.68485e-07
1.5842e-05
-2.06412e-07
1.58435e-05
-2.52851e-07
1.58448e-05
-3.09852e-07
1.58458e-05
-3.80061e-07
1.58461e-05
-4.67153e-07
1.58456e-05
-5.74923e-07
-7.14896e-07
1.58443e-05
1.58111e-05
-7.62102e-10
1.58115e-05
-2.17565e-09
1.58122e-05
-3.38419e-09
1.5813e-05
-4.37451e-09
1.5814e-05
-5.22254e-09
1.58151e-05
-6.07282e-09
1.58162e-05
-7.10182e-09
1.58174e-05
-8.48046e-09
1.58186e-05
-1.03461e-08
1.58198e-05
-1.27871e-08
1.5821e-05
-1.58458e-08
1.58222e-05
-1.95422e-08
1.58234e-05
-2.3913e-08
1.58245e-05
-2.90502e-08
1.58257e-05
-3.51284e-08
1.58267e-05
-4.24178e-08
1.58277e-05
-5.12832e-08
1.58287e-05
-6.21748e-08
1.58295e-05
-7.56179e-08
1.58301e-05
-9.221e-08
1.58306e-05
-1.12633e-07
1.58308e-05
-1.37683e-07
1.58306e-05
-1.68327e-07
1.583e-05
-2.05768e-07
1.58287e-05
-2.51542e-07
1.58265e-05
-3.07623e-07
1.58229e-05
-3.76546e-07
1.58176e-05
-4.61824e-07
1.58097e-05
-5.67005e-07
-7.03414e-07
1.57982e-05
1.58111e-05
-9.02548e-10
1.58115e-05
-2.59052e-09
1.58122e-05
-4.034e-09
1.5813e-05
-5.19899e-09
1.58139e-05
-6.16483e-09
1.5815e-05
-7.09385e-09
1.5816e-05
-8.17538e-09
1.58171e-05
-9.58265e-09
1.58182e-05
-1.14527e-08
1.58193e-05
-1.38768e-08
1.58204e-05
-1.69008e-08
1.58214e-05
-2.05469e-08
1.58223e-05
-2.4852e-08
1.58232e-05
-2.99068e-08
1.58239e-05
-3.58834e-08
1.58246e-05
-4.30468e-08
1.5825e-05
-5.17544e-08
1.58253e-05
-6.24461e-08
1.58253e-05
-7.56343e-08
1.5825e-05
-9.19005e-08
1.58243e-05
-1.11905e-07
1.5823e-05
-1.36418e-07
1.58211e-05
-1.66367e-07
1.58182e-05
-2.02903e-07
1.58141e-05
-2.47483e-07
1.58085e-05
-3.01971e-07
1.58007e-05
-3.68733e-07
1.57899e-05
-4.51012e-07
1.57749e-05
-5.52028e-07
-6.82182e-07
1.57537e-05
1.58111e-05
-1.04448e-09
1.58115e-05
-3.00932e-09
1.58122e-05
-4.6839e-09
1.5813e-05
-6.01165e-09
1.58139e-05
-7.08061e-09
1.58149e-05
-8.07577e-09
1.58159e-05
-9.19763e-09
1.58169e-05
-1.06176e-08
1.5818e-05
-1.24706e-08
1.58189e-05
-1.48504e-08
1.58198e-05
-1.78065e-08
1.58207e-05
-2.13626e-08
1.58214e-05
-2.55552e-08
1.58219e-05
-3.04733e-08
1.58223e-05
-3.62845e-08
1.58225e-05
-4.3246e-08
1.58225e-05
-5.17036e-08
1.58221e-05
-6.20824e-08
1.58214e-05
-7.48764e-08
1.58201e-05
-9.06441e-08
1.58182e-05
-1.10018e-07
1.58155e-05
-1.33731e-07
1.58118e-05
-1.62662e-07
1.58068e-05
-1.97892e-07
1.58001e-05
-2.40781e-07
1.57912e-05
-2.93048e-07
1.57793e-05
-3.56845e-07
1.57633e-05
-4.35051e-07
1.57418e-05
-5.3049e-07
-6.51996e-07
1.57116e-05
1.58111e-05
-1.19317e-09
1.58116e-05
-3.44649e-09
1.58122e-05
-5.35134e-09
1.5813e-05
-6.82675e-09
1.58139e-05
-7.98006e-09
1.58149e-05
-9.02683e-09
1.58159e-05
-1.01758e-08
1.58168e-05
-1.15913e-08
1.58178e-05
-1.34049e-08
1.58186e-05
-1.57131e-08
1.58194e-05
-1.85684e-08
1.582e-05
-2.19954e-08
1.58205e-05
-2.60301e-08
1.58208e-05
-3.07587e-08
1.58208e-05
-3.63427e-08
1.58206e-05
-4.30289e-08
1.58201e-05
-5.11477e-08
1.58191e-05
-6.11049e-08
1.58176e-05
-7.33706e-08
1.58154e-05
-8.8475e-08
1.58124e-05
-1.07015e-07
1.58084e-05
-1.2968e-07
1.5803e-05
-1.57288e-07
1.57959e-05
-1.9084e-07
1.57867e-05
-2.3158e-07
1.57748e-05
-2.81058e-07
1.57591e-05
-3.41177e-07
1.57384e-05
-4.14385e-07
1.5711e-05
-5.03063e-07
-6.13986e-07
1.5673e-05
1.58111e-05
-1.35549e-09
1.58116e-05
-3.92055e-09
1.58123e-05
-6.05687e-09
1.58131e-05
-7.65902e-09
1.5814e-05
-8.87316e-09
1.5815e-05
-9.95584e-09
1.58159e-05
-1.1118e-08
1.58168e-05
-1.25105e-08
1.58177e-05
-1.42615e-08
1.58184e-05
-1.64711e-08
1.58191e-05
-1.91936e-08
1.58195e-05
-2.24537e-08
1.58198e-05
-2.62864e-08
1.58198e-05
-3.07747e-08
1.58195e-05
-3.60724e-08
1.58189e-05
-4.24131e-08
1.58179e-05
-5.01085e-08
1.58163e-05
-5.95407e-08
1.58141e-05
-7.11513e-08
1.5811e-05
-8.54364e-08
1.5807e-05
-1.02952e-07
1.58016e-05
-1.24336e-07
1.57947e-05
-1.5034e-07
1.57857e-05
-1.81874e-07
1.57742e-05
-2.20053e-07
1.57594e-05
-2.66242e-07
1.57403e-05
-3.22075e-07
1.57154e-05
-3.89536e-07
1.56829e-05
-4.70549e-07
-5.69531e-07
1.56385e-05
1.58112e-05
-1.54105e-09
1.58117e-05
-4.45643e-09
1.58125e-05
-6.82506e-09
1.58133e-05
-8.52328e-09
1.58142e-05
-9.76977e-09
1.58151e-05
-1.08725e-08
1.5816e-05
-1.20327e-08
1.58169e-05
-1.33819e-08
1.58177e-05
-1.50468e-08
1.58184e-05
-1.71314e-08
1.58189e-05
-1.96905e-08
1.58192e-05
-2.27474e-08
1.58192e-05
-2.63362e-08
1.5819e-05
-3.05361e-08
1.58184e-05
-3.54917e-08
1.58174e-05
-4.14209e-08
1.58159e-05
-4.86135e-08
1.58138e-05
-5.74238e-08
1.58109e-05
-6.82608e-08
1.5807e-05
-8.15814e-08
1.5802e-05
-9.7896e-08
1.57954e-05
-1.17786e-07
1.5787e-05
-1.4193e-07
1.57763e-05
-1.71139e-07
1.57626e-05
-2.06394e-07
1.57453e-05
-2.48867e-07
1.57231e-05
-2.99921e-07
1.56946e-05
-3.61076e-07
1.56579e-05
-4.33821e-07
-5.20175e-07
1.56086e-05
1.58112e-05
-1.76409e-09
1.58118e-05
-5.08918e-09
1.58127e-05
-7.68502e-09
1.58136e-05
-9.43311e-09
1.58145e-05
-1.06795e-08
1.58154e-05
-1.17875e-08
1.58163e-05
-1.29291e-08
1.58171e-05
-1.42127e-08
1.58179e-05
-1.57678e-08
1.58184e-05
-1.77021e-08
1.58188e-05
-2.00679e-08
1.5819e-05
-2.28869e-08
1.58188e-05
-2.61923e-08
1.58183e-05
-3.0059e-08
1.58175e-05
-3.46206e-08
1.58161e-05
-4.00771e-08
1.58142e-05
-4.66932e-08
1.58116e-05
-5.47923e-08
1.58081e-05
-6.47465e-08
1.58034e-05
-7.69695e-08
1.57975e-05
-9.19219e-08
1.57898e-05
-1.10125e-07
1.57801e-05
-1.3218e-07
1.57677e-05
-1.58796e-07
1.57521e-05
-1.90816e-07
1.57325e-05
-2.29222e-07
1.57077e-05
-2.75117e-07
1.56762e-05
-3.29588e-07
1.56361e-05
-3.93766e-07
-4.67397e-07
1.55834e-05
1.58112e-05
-2.04718e-09
1.5812e-05
-5.86964e-09
1.5813e-05
-8.66987e-09
1.5814e-05
-1.03993e-08
1.58149e-05
-1.16122e-08
1.58158e-05
-1.27123e-08
1.58167e-05
-1.38152e-08
1.58175e-05
-1.50096e-08
1.58182e-05
-1.64327e-08
1.58187e-05
-1.81933e-08
1.58189e-05
-2.03383e-08
1.58189e-05
-2.28873e-08
1.58186e-05
-2.58729e-08
1.58179e-05
-2.93649e-08
1.58168e-05
-3.34848e-08
1.58151e-05
-3.84119e-08
1.58128e-05
-4.43841e-08
1.58097e-05
-5.16909e-08
1.58056e-05
-6.06642e-08
1.58003e-05
-7.16699e-08
1.57935e-05
-8.5115e-08
1.57849e-05
-1.01459e-07
1.57739e-05
-1.21224e-07
1.57601e-05
-1.45016e-07
1.57429e-05
-1.73542e-07
1.57212e-05
-2.07598e-07
1.56942e-05
-2.48055e-07
1.56602e-05
-2.95622e-07
1.56176e-05
-3.51201e-07
-4.12685e-07
1.55629e-05
1.58113e-05
-2.42864e-09
1.58124e-05
-6.87177e-09
1.58135e-05
-9.81267e-09
1.58145e-05
-1.14299e-08
1.58155e-05
-1.25813e-08
1.58164e-05
-1.36584e-08
1.58173e-05
-1.46959e-08
1.58181e-05
-1.57756e-08
1.58187e-05
-1.7046e-08
1.58191e-05
-1.8611e-08
1.58193e-05
-2.05094e-08
1.58192e-05
-2.2759e-08
1.58187e-05
-2.53918e-08
1.58178e-05
-2.84723e-08
1.58164e-05
-3.21082e-08
1.58145e-05
-3.6457e-08
1.58118e-05
-4.17259e-08
1.58083e-05
-4.81681e-08
1.58037e-05
-5.6072e-08
1.57978e-05
-6.57534e-08
1.57902e-05
-7.75645e-08
1.57807e-05
-9.19019e-08
1.57686e-05
-1.09206e-07
1.57536e-05
-1.29979e-07
1.57349e-05
-1.54802e-07
1.57116e-05
-1.84291e-07
1.56826e-05
-2.19117e-07
1.56467e-05
-2.5967e-07
1.56023e-05
-3.06821e-07
-3.57136e-07
1.55467e-05
1.58115e-05
-2.98048e-09
1.58128e-05
-8.20145e-09
1.58142e-05
-1.11308e-08
1.58153e-05
-1.25289e-08
1.58163e-05
-1.36094e-08
1.58173e-05
-1.46435e-08
1.58182e-05
-1.55822e-08
1.58189e-05
-1.65235e-08
1.58195e-05
-1.76227e-08
1.58198e-05
-1.89714e-08
1.58199e-05
-2.05985e-08
1.58197e-05
-2.25215e-08
1.58191e-05
-2.47715e-08
1.5818e-05
-2.74064e-08
1.58164e-05
-3.052e-08
1.58142e-05
-3.42462e-08
1.58112e-05
-3.87598e-08
1.58074e-05
-4.42749e-08
1.58023e-05
-5.10345e-08
1.57959e-05
-5.92996e-08
1.57877e-05
-6.9367e-08
1.57773e-05
-8.15723e-08
1.57644e-05
-9.62721e-08
1.57483e-05
-1.13869e-07
1.57283e-05
-1.34823e-07
1.57036e-05
-1.59582e-07
1.56731e-05
-1.88655e-07
1.56356e-05
-2.22125e-07
1.55899e-05
-2.61128e-07
-3.0148e-07
1.55343e-05
1.58118e-05
-3.84642e-09
1.58136e-05
-1.00168e-08
1.58151e-05
-1.26051e-08
1.58163e-05
-1.36875e-08
1.58174e-05
-1.47025e-08
1.58184e-05
-1.56593e-08
1.58193e-05
-1.64648e-08
1.582e-05
-1.72522e-08
1.58205e-05
-1.81663e-08
1.58209e-05
-1.9281e-08
1.58209e-05
-2.06156e-08
1.58205e-05
-2.21888e-08
1.58198e-05
-2.4031e-08
1.58186e-05
-2.61932e-08
1.58168e-05
-2.87536e-08
1.58144e-05
-3.18208e-08
1.58112e-05
-3.55348e-08
1.5807e-05
-4.00695e-08
1.58015e-05
-4.56213e-08
1.57946e-05
-5.23925e-08
1.57859e-05
-6.06242e-08
1.57749e-05
-7.05931e-08
1.57612e-05
-8.25748e-08
1.57442e-05
-9.68778e-08
1.57233e-05
-1.13846e-07
1.56974e-05
-1.33761e-07
1.56658e-05
-1.57002e-07
1.5627e-05
-1.83303e-07
1.55803e-05
-2.14458e-07
-2.45291e-07
1.55241e-05
1.58124e-05
-5.2936e-09
1.58149e-05
-1.25231e-08
1.58165e-05
-1.42313e-08
1.58178e-05
-1.49804e-08
1.5819e-05
-1.59035e-08
1.58201e-05
-1.67047e-08
1.5821e-05
-1.73412e-08
1.58217e-05
-1.7968e-08
1.58222e-05
-1.86854e-08
1.58225e-05
-1.95506e-08
1.58224e-05
-2.05734e-08
1.5822e-05
-2.17763e-08
1.58212e-05
-2.31878e-08
1.58198e-05
-2.48522e-08
1.58179e-05
-2.68334e-08
1.58153e-05
-2.92121e-08
1.58119e-05
-3.20927e-08
1.58074e-05
-3.56089e-08
1.58017e-05
-3.99063e-08
1.57944e-05
-4.51205e-08
1.57852e-05
-5.14463e-08
1.57737e-05
-5.91006e-08
1.57594e-05
-6.82702e-08
1.57417e-05
-7.91851e-08
1.572e-05
-9.20913e-08
1.56933e-05
-1.07119e-07
1.56608e-05
-1.24502e-07
1.5621e-05
-1.43431e-07
1.55738e-05
-1.67238e-07
-1.8663e-07
1.55151e-05
1.58135e-05
-7.83978e-09
1.58166e-05
-1.56321e-08
1.58183e-05
-1.58898e-08
1.58198e-05
-1.65094e-08
1.58211e-05
-1.7237e-08
1.58222e-05
-1.77891e-08
1.58231e-05
-1.82371e-08
1.58238e-05
-1.86938e-08
1.58244e-05
-1.92014e-08
1.58246e-05
-1.97983e-08
1.58245e-05
-2.04937e-08
1.58241e-05
-2.13104e-08
1.58232e-05
-2.22741e-08
1.58217e-05
-2.34223e-08
1.58197e-05
-2.48051e-08
1.5817e-05
-2.64721e-08
1.58133e-05
-2.84868e-08
1.58087e-05
-3.09471e-08
1.58027e-05
-3.39571e-08
1.57952e-05
-3.75631e-08
1.57857e-05
-4.1919e-08
1.57738e-05
-4.72061e-08
1.5759e-05
-5.35112e-08
1.57408e-05
-6.09866e-08
1.57185e-05
-6.97795e-08
1.56913e-05
-7.99384e-08
1.56583e-05
-9.15045e-08
1.56178e-05
-1.02875e-07
1.55696e-05
-1.19101e-07
-1.1947e-07
1.55025e-05
1.5817e-05
-1.38382e-08
1.58203e-05
-1.89695e-08
1.58223e-05
-1.78518e-08
1.58237e-05
-1.79649e-08
1.58249e-05
-1.8428e-08
1.58259e-05
-1.87331e-08
1.58266e-05
-1.89457e-08
1.5827e-05
-1.91657e-08
1.58273e-05
-1.94195e-08
1.58272e-05
-1.97197e-08
1.58268e-05
-2.00724e-08
1.58259e-05
-2.04888e-08
1.58246e-05
-2.0982e-08
1.58228e-05
-2.15712e-08
1.58203e-05
-2.22831e-08
1.58169e-05
-2.31407e-08
1.58126e-05
-2.41762e-08
1.58071e-05
-2.54464e-08
1.58002e-05
-2.7009e-08
1.57915e-05
-2.88697e-08
1.57807e-05
-3.11215e-08
1.57673e-05
-3.38708e-08
1.5751e-05
-3.71393e-08
1.5731e-05
-4.10109e-08
1.57068e-05
-4.55631e-08
1.56776e-05
-5.07592e-08
1.56427e-05
-5.66431e-08
1.56008e-05
-6.09038e-08
1.55478e-05
-6.61741e-08
-2.47706e-08
1.54531e-05
1.57971e-05
1.57782e-05
1.57603e-05
1.57423e-05
1.57239e-05
1.57052e-05
1.56862e-05
1.56671e-05
1.56477e-05
1.56279e-05
1.56079e-05
1.55874e-05
1.55664e-05
1.55448e-05
1.55225e-05
1.54994e-05
1.54752e-05
1.54498e-05
1.54228e-05
1.53939e-05
1.53628e-05
1.53289e-05
1.52918e-05
1.52507e-05
1.52052e-05
1.51544e-05
1.50978e-05
1.50369e-05
1.49707e-05
1.49459e-05
1.55244e-05
-9.06848e-06
9.35397e-06
1.51899e-05
-9.15357e-06
9.48804e-06
1.47994e-05
-9.21266e-06
9.60322e-06
1.43639e-05
-9.24616e-06
9.68159e-06
1.39038e-05
-9.27511e-06
9.73527e-06
1.34321e-05
-9.30679e-06
9.77851e-06
1.2955e-05
-9.34198e-06
9.81907e-06
1.24751e-05
-9.38031e-06
9.86016e-06
1.19935e-05
-9.42166e-06
9.90327e-06
1.15103e-05
-9.46597e-06
9.94917e-06
1.10254e-05
-9.5133e-06
9.99821e-06
1.05386e-05
-9.56389e-06
1.00507e-05
1.00499e-05
-9.61828e-06
1.0107e-05
9.55918e-06
-9.67721e-06
1.01679e-05
9.06644e-06
-9.74166e-06
1.02344e-05
8.5716e-06
-9.81284e-06
1.03077e-05
8.07449e-06
-9.8923e-06
1.03894e-05
7.57484e-06
-9.98207e-06
1.04817e-05
7.07224e-06
-1.00848e-05
1.05874e-05
6.56606e-06
-1.02042e-05
1.07104e-05
6.05549e-06
-1.03452e-05
1.08558e-05
5.5388e-06
-1.0515e-05
1.10317e-05
5.0153e-06
-1.07229e-05
1.12464e-05
4.47703e-06
-1.09881e-05
1.15263e-05
3.93191e-06
-1.13183e-05
1.18634e-05
3.33768e-06
-1.18059e-05
1.24002e-05
2.74961e-06
-1.23496e-05
1.29377e-05
1.99836e-06
-1.35391e-05
1.42903e-05
1.22889e-06
-1.44341e-05
1.52036e-05
-1.84953e-05
1.97242e-05
1.58016e-05
-8.66447e-06
1.53488e-05
-8.70074e-06
1.48725e-05
-8.73635e-06
1.43904e-05
-8.76411e-06
1.39092e-05
-8.79387e-06
1.34298e-05
-8.82742e-06
1.29516e-05
-8.86377e-06
1.24734e-05
-8.90207e-06
1.19941e-05
-8.94236e-06
1.15131e-05
-8.985e-06
1.10302e-05
-9.03038e-06
1.05453e-05
-9.07897e-06
1.00584e-05
-9.13138e-06
9.56949e-06
-9.18835e-06
9.07859e-06
-9.25077e-06
8.58554e-06
-9.31979e-06
8.09011e-06
-9.39687e-06
7.59198e-06
-9.48395e-06
7.0907e-06
-9.58356e-06
6.58558e-06
-9.69913e-06
6.07567e-06
-9.83533e-06
5.55939e-06
-9.99877e-06
5.03503e-06
-1.01986e-05
4.49712e-06
-1.04502e-05
3.9468e-06
-1.0768e-05
3.35557e-06
-1.12147e-05
2.75389e-06
-1.17479e-05
2.00978e-06
-1.2795e-05
1.23305e-06
-1.36574e-05
-1.72623e-05
1.57654e-05
-8.20911e-06
1.52996e-05
-8.23494e-06
1.48286e-05
-8.26539e-06
1.43593e-05
-8.29476e-06
1.38899e-05
-8.32452e-06
1.34192e-05
-8.35668e-06
1.29462e-05
-8.39083e-06
1.24709e-05
-8.42671e-06
1.19932e-05
-8.46468e-06
1.15134e-05
-8.50521e-06
1.10317e-05
-8.54868e-06
1.05482e-05
-8.59545e-06
1.00629e-05
-8.64603e-06
9.57561e-06
-8.70109e-06
9.08632e-06
-8.76148e-06
8.59481e-06
-8.82828e-06
8.10083e-06
-8.90289e-06
7.60403e-06
-8.98714e-06
7.10388e-06
-9.08342e-06
6.59968e-06
-9.19493e-06
6.09037e-06
-9.32602e-06
5.57438e-06
-9.48278e-06
5.04955e-06
-9.67373e-06
4.51156e-06
-9.91218e-06
3.95779e-06
-1.02142e-05
3.3683e-06
-1.06252e-05
2.75642e-06
-1.1136e-05
2.01775e-06
-1.20563e-05
1.23152e-06
-1.28712e-05
-1.60308e-05
1.57578e-05
-7.74851e-06
1.52946e-05
-7.77173e-06
1.48273e-05
-7.79812e-06
1.43581e-05
-7.82553e-06
1.38874e-05
-7.85387e-06
1.34149e-05
-7.88413e-06
1.29406e-05
-7.9165e-06
1.24647e-05
-7.95087e-06
1.19875e-05
-7.98742e-06
1.15087e-05
-8.02647e-06
1.10284e-05
-8.06834e-06
1.05463e-05
-8.1134e-06
1.00625e-05
-8.16216e-06
9.57663e-06
-8.21526e-06
9.0887e-06
-8.27355e-06
8.59847e-06
-8.33805e-06
8.10566e-06
-8.41008e-06
7.60988e-06
-8.49135e-06
7.11056e-06
-8.5841e-06
6.60694e-06
-8.6913e-06
6.09789e-06
-8.81697e-06
5.58179e-06
-8.96668e-06
5.05628e-06
-9.14822e-06
4.51743e-06
-9.37334e-06
3.96078e-06
-9.65757e-06
3.3713e-06
-1.00357e-05
2.75093e-06
-1.05157e-05
2.01685e-06
-1.13222e-05
1.22433e-06
-1.20786e-05
-1.48064e-05
1.57417e-05
-7.28533e-06
1.52767e-05
-7.30677e-06
1.48092e-05
-7.33056e-06
1.43401e-05
-7.35643e-06
1.38701e-05
-7.38385e-06
1.33989e-05
-7.41295e-06
1.29263e-05
-7.4439e-06
1.24522e-05
-7.47679e-06
1.19765e-05
-7.51177e-06
1.14992e-05
-7.54915e-06
1.10201e-05
-7.58928e-06
1.05393e-05
-7.63254e-06
1.00566e-05
-7.67943e-06
9.57186e-06
-7.73056e-06
9.08502e-06
-7.78671e-06
8.59581e-06
-7.84884e-06
8.10391e-06
-7.91818e-06
7.60889e-06
-7.99633e-06
7.11013e-06
-8.08535e-06
6.60682e-06
-8.18799e-06
6.09778e-06
-8.30793e-06
5.58132e-06
-8.45022e-06
5.05497e-06
-8.62188e-06
4.51492e-06
-8.83328e-06
3.95586e-06
-9.09851e-06
3.36544e-06
-9.44533e-06
2.73862e-06
-9.88885e-06
2.00816e-06
-1.05918e-05
1.21025e-06
-1.12807e-05
-1.35962e-05
1.57214e-05
-6.82147e-06
1.52563e-05
-6.84169e-06
1.47896e-05
-6.86385e-06
1.43216e-05
-6.88841e-06
1.38525e-05
-6.91472e-06
1.3382e-05
-6.9425e-06
1.29101e-05
-6.97195e-06
1.24366e-05
-7.0033e-06
1.19616e-05
-7.03675e-06
1.1485e-05
-7.07257e-06
1.10068e-05
-7.11106e-06
1.05268e-05
-7.15261e-06
1.00451e-05
-7.19766e-06
9.56129e-06
-7.2468e-06
9.07533e-06
-7.30075e-06
8.5869e-06
-7.36041e-06
8.09565e-06
-7.42693e-06
7.60112e-06
-7.50179e-06
7.10266e-06
-7.58689e-06
6.5994e-06
-7.68473e-06
6.09012e-06
-7.79864e-06
5.57307e-06
-7.93317e-06
5.04572e-06
-8.09453e-06
4.50424e-06
-8.2918e-06
3.94303e-06
-8.53731e-06
3.35113e-06
-8.85342e-06
2.71943e-06
-9.25715e-06
1.99225e-06
-9.86461e-06
1.19094e-06
-1.04794e-05
-1.24053e-05
1.56968e-05
-6.35753e-06
1.52318e-05
-6.37671e-06
1.47656e-05
-6.39756e-06
1.4298e-05
-6.42089e-06
1.38293e-05
-6.44602e-06
1.33593e-05
-6.47253e-06
1.2888e-05
-6.50061e-06
1.24152e-05
-6.53054e-06
1.1941e-05
-6.56254e-06
1.14653e-05
-6.59683e-06
1.09879e-05
-6.63369e-06
1.05088e-05
-6.67349e-06
1.00278e-05
-6.71666e-06
9.54474e-06
-6.76374e-06
9.05941e-06
-6.81541e-06
8.57151e-06
-6.87251e-06
8.08068e-06
-6.9361e-06
7.5864e-06
-7.00752e-06
7.08801e-06
-7.0885e-06
6.58458e-06
-7.1813e-06
6.07484e-06
-7.28891e-06
5.55702e-06
-7.41534e-06
5.02854e-06
-7.56605e-06
4.48556e-06
-7.74882e-06
3.9224e-06
-7.97415e-06
3.32886e-06
-8.25988e-06
2.6937e-06
-8.62199e-06
1.97004e-06
-9.14095e-06
1.16716e-06
-9.67654e-06
-1.12381e-05
1.56682e-05
-5.8936e-06
1.52033e-05
-5.91185e-06
1.47374e-05
-5.9316e-06
1.42703e-05
-5.95378e-06
1.3802e-05
-5.97774e-06
1.33325e-05
-6.00303e-06
1.28617e-05
-6.0298e-06
1.23895e-05
-6.05835e-06
1.19158e-05
-6.0889e-06
1.14407e-05
-6.12165e-06
1.09639e-05
-6.15688e-06
1.04853e-05
-6.19492e-06
1.00048e-05
-6.23618e-06
9.52223e-06
-6.28116e-06
9.03731e-06
-6.33049e-06
8.54973e-06
-6.38494e-06
8.05909e-06
-6.44546e-06
7.56485e-06
-6.51328e-06
7.06631e-06
-6.58996e-06
6.56252e-06
-6.67751e-06
6.05217e-06
-6.77856e-06
5.53344e-06
-6.89662e-06
5.00376e-06
-7.03637e-06
4.45928e-06
-7.20434e-06
3.89437e-06
-7.40923e-06
3.29933e-06
-7.66484e-06
2.66194e-06
-7.9846e-06
1.94215e-06
-8.42116e-06
1.1398e-06
-8.87419e-06
-1.00983e-05
1.56356e-05
-5.42968e-06
1.51709e-05
-5.44711e-06
1.47051e-05
-5.46586e-06
1.42383e-05
-5.48694e-06
1.37703e-05
-5.50976e-06
1.33011e-05
-5.53385e-06
1.28307e-05
-5.55934e-06
1.23588e-05
-5.58654e-06
1.18856e-05
-5.61566e-06
1.14108e-05
-5.64689e-06
1.09344e-05
-5.68048e-06
1.04563e-05
-5.71674e-06
9.97614e-06
-5.75606e-06
9.49387e-06
-5.79889e-06
9.00917e-06
-5.84579e-06
8.52171e-06
-5.89748e-06
8.03107e-06
-5.95482e-06
7.53668e-06
-6.0189e-06
7.03783e-06
-6.0911e-06
6.53352e-06
-6.1732e-06
6.02243e-06
-6.26748e-06
5.50274e-06
-6.37692e-06
4.97185e-06
-6.50548e-06
4.42597e-06
-6.65845e-06
3.85954e-06
-6.84281e-06
3.26332e-06
-7.06862e-06
2.62484e-06
-7.34612e-06
1.90941e-06
-7.70573e-06
1.10986e-06
-8.07464e-06
-8.98844e-06
1.55993e-05
-4.96571e-06
1.51346e-05
-4.98238e-06
1.4669e-05
-5.00023e-06
1.42023e-05
-5.02025e-06
1.37345e-05
-5.04195e-06
1.32655e-05
-5.06486e-06
1.27953e-05
-5.08911e-06
1.23237e-05
-5.11498e-06
1.18507e-05
-5.14268e-06
1.13762e-05
-5.17239e-06
1.09001e-05
-5.20432e-06
1.04221e-05
-5.23878e-06
9.94214e-06
-5.27611e-06
9.45998e-06
-5.31672e-06
8.97532e-06
-5.36113e-06
8.48781e-06
-5.40997e-06
7.99701e-06
-5.46401e-06
7.50233e-06
-5.52422e-06
7.00302e-06
-5.5918e-06
6.4981e-06
-5.66827e-06
5.98621e-06
-5.75559e-06
5.46554e-06
-5.85624e-06
4.9335e-06
-5.97344e-06
4.38637e-06