/*--------------------------------*- C++ -*----------------------------------*\
  =========                 |
  \\      /  F ield         | OpenFOAM: The Open Source CFD Toolbox
   \\    /   O peration     | Website:  https://openfoam.org
    \\  /    A nd           | Version:  11
     \\/     M anipulation  |
\*---------------------------------------------------------------------------*/
FoamFile
{
    format      ascii;
    class       surfaceScalarField;
    location    "5.4";
    object      phi;
}
// * * * * * * * * * * * * * * * * * * * * * * * * * * * * * * * * * * * * * //

dimensions      [0 3 -1 0 0 0 0];

internalField   nonuniform List<scalar> 
24840
(
1.92407e-05
7.46678e-09
1.92291e-05
1.15499e-08
1.92176e-05
1.15267e-08
1.9206e-05
1.16302e-08
1.91942e-05
1.1788e-08
1.91825e-05
1.16817e-08
1.91713e-05
1.11704e-08
1.91611e-05
1.01878e-08
1.91523e-05
8.78646e-09
1.91454e-05
6.9699e-09
1.91407e-05
4.71595e-09
1.91387e-05
1.95038e-09
1.91402e-05
-1.53299e-09
1.91459e-05
-5.65958e-09
1.91563e-05
-1.03611e-08
1.9172e-05
-1.57121e-08
1.91938e-05
-2.18494e-08
1.92225e-05
-2.86498e-08
1.92592e-05
-3.67326e-08
1.93059e-05
-4.67338e-08
1.93645e-05
-5.8609e-08
1.94371e-05
-7.25512e-08
1.95261e-05
-8.90429e-08
1.96347e-05
-1.08568e-07
1.97663e-05
-1.3163e-07
1.99248e-05
-1.58455e-07
2.01149e-05
-1.90148e-07
2.03382e-05
-2.23288e-07
2.06115e-05
-2.73301e-07
-2.72385e-07
2.08839e-05
1.92522e-05
3.42355e-09
1.92552e-05
8.53697e-09
1.92573e-05
9.41496e-09
1.92587e-05
1.02102e-08
1.926e-05
1.05511e-08
1.92612e-05
1.04408e-08
1.92626e-05
9.74537e-09
1.92645e-05
8.2747e-09
1.92673e-05
6.05061e-09
1.92712e-05
3.03519e-09
1.92768e-05
-8.7588e-10
1.92845e-05
-5.75148e-09
1.92947e-05
-1.17243e-08
1.93079e-05
-1.88687e-08
1.93249e-05
-2.73381e-08
1.93466e-05
-3.7402e-08
1.93743e-05
-4.95761e-08
1.941e-05
-6.43718e-08
1.94547e-05
-8.13747e-08
1.95082e-05
-1.0025e-07
1.95715e-05
-1.21964e-07
1.96466e-05
-1.47652e-07
1.97358e-05
-1.78165e-07
1.98416e-05
-2.14385e-07
1.99673e-05
-2.57328e-07
2.01166e-05
-3.07835e-07
2.02941e-05
-3.67553e-07
2.05042e-05
-4.33418e-07
2.07525e-05
-5.21602e-07
-5.54025e-07
2.10341e-05
1.92494e-05
2.12331e-09
1.92519e-05
6.11569e-09
1.92534e-05
7.90517e-09
1.92546e-05
8.96406e-09
1.92557e-05
9.43455e-09
1.92568e-05
9.36751e-09
1.92579e-05
8.61919e-09
1.92594e-05
6.76291e-09
1.92618e-05
3.73245e-09
1.92653e-05
-5.40744e-10
1.92707e-05
-6.19413e-09
1.92783e-05
-1.33546e-08
1.92887e-05
-2.21761e-08
1.93026e-05
-3.2804e-08
1.93207e-05
-4.54128e-08
1.93436e-05
-6.02675e-08
1.93718e-05
-7.77937e-08
1.94059e-05
-9.84421e-08
1.94468e-05
-1.22337e-07
1.94963e-05
-1.4967e-07
1.95556e-05
-1.81349e-07
1.96266e-05
-2.18657e-07
1.97114e-05
-2.62882e-07
1.98124e-05
-3.15421e-07
1.9933e-05
-3.77889e-07
2.00768e-05
-4.51718e-07
2.02487e-05
-5.39386e-07
2.04532e-05
-6.37919e-07
2.06968e-05
-7.652e-07
-8.44705e-07
2.09874e-05
1.92488e-05
1.42771e-09
1.92505e-05
4.42983e-09
1.92519e-05
6.56248e-09
1.92529e-05
7.92823e-09
1.92538e-05
8.55622e-09
1.92546e-05
8.52235e-09
1.92556e-05
7.65316e-09
1.92569e-05
5.41336e-09
1.9259e-05
1.6387e-09
1.92624e-05
-3.86768e-09
1.92674e-05
-1.12045e-08
1.92746e-05
-2.05642e-08
1.92845e-05
-3.21026e-08
1.92977e-05
-4.599e-08
1.93147e-05
-6.24363e-08
1.93362e-05
-8.17364e-08
1.93627e-05
-1.04296e-07
1.93948e-05
-1.30575e-07
1.94335e-05
-1.6099e-07
1.94799e-05
-1.96122e-07
1.95356e-05
-2.37045e-07
1.96022e-05
-2.85231e-07
1.96817e-05
-3.42369e-07
1.97766e-05
-4.10387e-07
1.98903e-05
-4.91537e-07
2.00265e-05
-5.87976e-07
2.01902e-05
-7.03008e-07
2.0387e-05
-8.34727e-07
2.06227e-05
-1.00092e-06
-1.13298e-06
2.0911e-05
1.92486e-05
1.00847e-09
1.92496e-05
3.3878e-09
1.92506e-05
5.5363e-09
1.92515e-05
7.06645e-09
1.92522e-05
7.87908e-09
1.92528e-05
7.87712e-09
1.92536e-05
6.81958e-09
1.92549e-05
4.16891e-09
1.92569e-05
-3.44415e-10
1.92599e-05
-6.94959e-09
1.92646e-05
-1.584e-08
1.92712e-05
-2.72162e-08
1.92804e-05
-4.12531e-08
1.92925e-05
-5.8138e-08
1.93082e-05
-7.81027e-08
1.93279e-05
-1.01457e-07
1.93522e-05
-1.28616e-07
1.93818e-05
-1.601e-07
1.94173e-05
-1.96529e-07
1.94599e-05
-2.38755e-07
1.95109e-05
-2.88052e-07
1.95718e-05
-3.46134e-07
1.96446e-05
-4.15092e-07
1.97316e-05
-4.97395e-07
1.9836e-05
-5.95972e-07
1.99619e-05
-7.13834e-07
2.01141e-05
-8.55199e-07
2.02991e-05
-1.01978e-06
2.05229e-05
-1.2247e-06
-1.41127e-06
2.08012e-05
1.92484e-05
7.46565e-10
1.92491e-05
2.6863e-09
1.92499e-05
4.74362e-09
1.92506e-05
6.39108e-09
1.92511e-05
7.31264e-09
1.92517e-05
7.29391e-09
1.92524e-05
6.10892e-09
1.92535e-05
3.11472e-09
1.92552e-05
-2.06556e-09
1.92579e-05
-9.69405e-09
1.92621e-05
-2.00074e-08
1.92681e-05
-3.32156e-08
1.92764e-05
-4.95084e-08
1.92873e-05
-6.90853e-08
1.93014e-05
-9.21908e-08
1.93191e-05
-1.19149e-07
1.93409e-05
-1.50398e-07
1.93673e-05
-1.86516e-07
1.9399e-05
-2.28266e-07
1.9437e-05
-2.767e-07
1.94822e-05
-3.33301e-07
1.95361e-05
-4.00047e-07
1.96005e-05
-4.79423e-07
1.96775e-05
-5.74446e-07
1.97703e-05
-6.88755e-07
1.98828e-05
-8.26312e-07
2.002e-05
-9.92385e-07
2.01889e-05
-1.1887e-06
2.03959e-05
-1.4317e-06
-1.67465e-06
2.06592e-05
1.92483e-05
5.63681e-10
1.92488e-05
2.19231e-09
1.92494e-05
4.16196e-09
1.92499e-05
5.88125e-09
1.92504e-05
6.85823e-09
1.92508e-05
6.82695e-09
1.92514e-05
5.56892e-09
1.92522e-05
2.24545e-09
1.92537e-05
-3.53769e-09
1.92561e-05
-1.20806e-08
1.92597e-05
-2.3649e-08
1.9265e-05
-3.84673e-08
1.92722e-05
-5.67343e-08
1.92818e-05
-7.86553e-08
1.92941e-05
-1.04479e-07
1.93095e-05
-1.34537e-07
1.93283e-05
-1.69284e-07
1.93512e-05
-2.09347e-07
1.93785e-05
-2.55589e-07
1.9411e-05
-3.09214e-07
1.94496e-05
-3.71891e-07
1.94954e-05
-4.45846e-07
1.95499e-05
-5.33938e-07
1.96152e-05
-6.39716e-07
1.9694e-05
-7.67543e-07
1.97901e-05
-9.22406e-07
1.99084e-05
-1.11076e-06
2.00564e-05
-1.3367e-06
2.0241e-05
-1.61621e-06
-1.91673e-06
2.0483e-05
1.92483e-05
4.2795e-10
1.92486e-05
1.83577e-09
1.9249e-05
3.74105e-09
1.92494e-05
5.51067e-09
1.92498e-05
6.49918e-09
1.92502e-05
6.44492e-09
1.92506e-05
5.17096e-09
1.92512e-05
1.56323e-09
1.92524e-05
-4.74212e-09
1.92544e-05
-1.40725e-08
1.92575e-05
-2.67144e-08
1.92619e-05
-4.2902e-08
1.9268e-05
-6.28376e-08
1.92761e-05
-8.67251e-08
1.92864e-05
-1.14809e-07
1.92993e-05
-1.47416e-07
1.9315e-05
-1.85007e-07
1.93339e-05
-2.28234e-07
1.93564e-05
-2.78025e-07
1.93828e-05
-3.35686e-07
1.9414e-05
-4.03034e-07
1.94506e-05
-4.82511e-07
1.9494e-05
-5.77304e-07
1.95457e-05
-6.91458e-07
1.96082e-05
-8.30039e-07
1.96849e-05
-9.99081e-07
1.97805e-05
-1.20633e-06
1.99023e-05
-1.45854e-06
2.00577e-05
-1.77154e-06
-2.1292e-06
2.02701e-05
1.92482e-05
3.24185e-10
1.92485e-05
1.57272e-09
1.92488e-05
3.43561e-09
1.92491e-05
5.24283e-09
1.92494e-05
6.22171e-09
1.92496e-05
6.15925e-09
1.92499e-05
4.89912e-09
1.92504e-05
1.0644e-09
1.92513e-05
-5.67479e-09
1.92529e-05
-1.56526e-08
1.92554e-05
-2.91707e-08
1.92589e-05
-4.64697e-08
1.92639e-05
-6.7749e-08
1.92703e-05
-9.32021e-08
1.92786e-05
-1.23057e-07
1.92888e-05
-1.57625e-07
1.93011e-05
-1.97353e-07
1.93158e-05
-2.42895e-07
1.9333e-05
-2.95203e-07
1.93529e-05
-3.5564e-07
1.9376e-05
-4.26116e-07
1.94027e-05
-5.09232e-07
1.94339e-05
-6.08436e-07
1.94706e-05
-7.28185e-07
1.95147e-05
-8.74183e-07
1.95691e-05
-1.05346e-06
1.96379e-05
-1.27508e-06
1.9728e-05
-1.54865e-06
1.98465e-05
-1.89008e-06
-2.30167e-06
2.0019e-05
1.92482e-05
2.43482e-10
1.92484e-05
1.3744e-09
1.92486e-05
3.21016e-09
1.92488e-05
5.04563e-09
1.9249e-05
6.01476e-09
1.92492e-05
5.9636e-09
1.92494e-05
4.73e-09
1.92497e-05
7.31161e-10
1.92504e-05
-6.34246e-09
1.92516e-05
-1.6818e-08
1.92534e-05
-3.10068e-08
1.92561e-05
-4.915e-08
1.92598e-05
-7.14362e-08
1.92646e-05
-9.80387e-08
1.92707e-05
-1.29159e-07
1.92782e-05
-1.65075e-07
1.9287e-05
-2.06201e-07
1.92973e-05
-2.53165e-07
1.9309e-05
-3.06902e-07
1.93221e-05
-3.68777e-07
1.93367e-05
-4.4073e-07
1.93529e-05
-5.25441e-07
1.9371e-05
-6.26519e-07
1.93916e-05
-7.48716e-07
1.94156e-05
-8.98237e-07
1.94451e-05
-1.08297e-06
1.94832e-05
-1.31321e-06
1.95359e-05
-1.60135e-06
1.96095e-05
-1.96364e-06
-2.42185e-06
1.97297e-05
1.92482e-05
1.80016e-10
1.92483e-05
1.22129e-09
1.92485e-05
3.03739e-09
1.92487e-05
4.89241e-09
1.92488e-05
5.8634e-09
1.9249e-05
5.83638e-09
1.9249e-05
4.64592e-09
1.92492e-05
5.42412e-10
1.92496e-05
-6.76128e-09
1.92504e-05
-1.75805e-08
1.92516e-05
-3.22303e-08
1.92534e-05
-5.09456e-08
1.92559e-05
-7.38963e-08
1.92591e-05
-1.01226e-07
1.9263e-05
-1.33097e-07
1.92677e-05
-1.6974e-07
1.9273e-05
-2.11515e-07
1.92788e-05
-2.58991e-07
1.9285e-05
-3.13042e-07
1.92912e-05
-3.7498e-07
1.92971e-05
-4.467e-07
1.93026e-05
-5.3086e-07
1.93071e-05
-6.31104e-07
1.93107e-05
-7.52312e-07
1.93135e-05
-9.00986e-07
1.93161e-05
-1.08562e-06
1.93204e-05
-1.31745e-06
1.93304e-05
-1.61139e-06
1.93508e-05
-1.98401e-06
-2.47623e-06
1.94052e-05
1.92482e-05
1.29044e-10
1.92483e-05
1.09854e-09
1.92484e-05
2.89587e-09
1.92486e-05
4.75903e-09
1.92487e-05
5.75237e-09
1.92488e-05
5.75426e-09
1.92488e-05
4.62036e-09
1.92489e-05
4.70681e-10
1.92491e-05
-6.95655e-09
1.92495e-05
-1.79648e-08
1.92501e-05
-3.28667e-08
1.9251e-05
-5.18838e-08
1.92523e-05
-7.51594e-08
1.92539e-05
-1.02799e-07
1.92557e-05
-1.34913e-07
1.92576e-05
-1.7167e-07
1.92594e-05
-2.13353e-07
1.92609e-05
-2.6044e-07
1.92616e-05
-3.13705e-07
1.92609e-05
-3.7434e-07
1.92583e-05
-4.44112e-07
1.9253e-05
-5.25549e-07
1.92441e-05
-6.22172e-07
1.92306e-05
-7.38782e-07
1.92115e-05
-8.81894e-07
1.91861e-05
-1.06023e-06
1.91542e-05
-1.28555e-06
1.91173e-05
-1.57454e-06
1.90772e-05
-1.94393e-06
-2.45137e-06
1.90524e-05
1.92482e-05
8.66868e-11
1.92483e-05
9.94315e-10
1.92484e-05
2.76695e-09
1.92485e-05
4.6235e-09
1.92486e-05
5.65977e-09
1.92487e-05
5.6949e-09
1.92487e-05
4.62334e-09
1.92487e-05
4.84753e-10
1.92487e-05
-6.96046e-09
1.92487e-05
-1.80076e-08
1.92488e-05
-3.2959e-08
1.92489e-05
-5.20148e-08
1.92491e-05
-7.52857e-08
1.92491e-05
-1.0283e-07
1.92489e-05
-1.34699e-07
1.92482e-05
-1.70981e-07
1.92467e-05
-2.11863e-07
1.9244e-05
-2.57704e-07
1.92394e-05
-3.09129e-07
1.92322e-05
-3.67154e-07
1.92214e-05
-4.33332e-07
1.92058e-05
-5.09935e-07
1.91838e-05
-6.00191e-07
1.91536e-05
-7.08579e-07
1.9113e-05
-8.41288e-07
1.90596e-05
-1.00679e-06
1.89907e-05
-1.21668e-06
1.89046e-05
-1.48842e-06
1.87989e-05
-1.83827e-06
-2.33586e-06
1.86834e-05
1.92482e-05
4.96601e-11
1.92483e-05
8.98676e-10
1.92484e-05
2.63403e-09
1.92486e-05
4.46794e-09
1.92487e-05
5.55763e-09
1.92487e-05
5.63589e-09
1.92487e-05
4.62397e-09
1.92487e-05
5.49563e-10
1.92485e-05
-6.81481e-09
1.92483e-05
-1.7757e-08
1.92479e-05
-3.25637e-08
1.92473e-05
-5.14087e-08
1.92463e-05
-7.43629e-08
1.92449e-05
-1.01432e-07
1.92428e-05
-1.32597e-07
1.92397e-05
-1.67857e-07
1.92351e-05
-2.07283e-07
1.92285e-05
-2.51088e-07
1.92191e-05
-2.99712e-07
1.92059e-05
-3.53933e-07
1.91875e-05
-4.15005e-07
1.91624e-05
-4.84826e-07
1.91284e-05
-5.66152e-07
1.90827e-05
-6.6288e-07
1.90219e-05
-7.80493e-07
1.89418e-05
-9.2664e-07
1.88371e-05
-1.11198e-06
1.87019e-05
-1.35329e-06
1.85291e-05
-1.66547e-06
-2.12297e-06
1.83163e-05
1.92482e-05
1.48579e-11
1.92483e-05
8.00989e-10
1.92484e-05
2.48273e-09
1.92486e-05
4.27696e-09
1.92487e-05
5.41793e-09
1.92488e-05
5.55302e-09
1.92489e-05
4.58705e-09
1.92488e-05
6.26963e-10
1.92485e-05
-6.56419e-09
1.92481e-05
-1.72683e-08
1.92472e-05
-3.17507e-08
1.9246e-05
-5.0153e-08
1.92441e-05
-7.25027e-08
1.92414e-05
-9.87478e-08
1.92376e-05
-1.28793e-07
1.92323e-05
-1.6254e-07
1.9225e-05
-1.99931e-07
1.92149e-05
-2.41009e-07
1.92012e-05
-2.85994e-07
1.91826e-05
-3.35381e-07
1.91577e-05
-3.90048e-07
1.91242e-05
-4.51405e-07
1.90797e-05
-5.2157e-07
1.90204e-05
-6.03604e-07
1.89418e-05
-7.019e-07
1.88378e-05
-8.227e-07
1.87007e-05
-9.74834e-07
1.85202e-05
-1.17281e-06
1.82836e-05
-1.42891e-06
-1.81349e-06
1.79742e-05
1.92482e-05
-2.0861e-11
1.92483e-05
6.92039e-10
1.92485e-05
2.29941e-09
1.92487e-05
4.0363e-09
1.92489e-05
5.212e-09
1.9249e-05
5.41905e-09
1.92492e-05
4.47748e-09
1.92491e-05
6.78226e-10
1.92488e-05
-6.25761e-09
1.92481e-05
-1.66036e-08
1.9247e-05
-3.0599e-08
1.92452e-05
-4.83494e-08
1.92425e-05
-6.9836e-08
1.92387e-05
-9.49474e-08
1.92334e-05
-1.23511e-07
1.92262e-05
-1.55323e-07
1.92165e-05
-1.90189e-07
1.92034e-05
-2.27969e-07
1.91861e-05
-2.68641e-07
1.91631e-05
-3.12374e-07
1.91326e-05
-3.59616e-07
1.90924e-05
-4.11193e-07
1.90393e-05
-4.68444e-07
1.89691e-05
-5.33377e-07
1.88761e-05
-6.08948e-07
1.87529e-05
-6.9945e-07
1.85891e-05
-8.11045e-07
1.83706e-05
-9.54362e-07
1.80795e-05
-1.13774e-06
-1.41794e-06
1.76839e-05
1.92482e-05
-6.09098e-11
1.92483e-05
5.63588e-10
1.92485e-05
2.07031e-09
1.92488e-05
3.72968e-09
1.92491e-05
4.9197e-09
1.92494e-05
5.19813e-09
1.92496e-05
4.2649e-09
1.92496e-05
6.65422e-10
1.92493e-05
-5.94567e-09
1.92485e-05
-1.58293e-08
1.92471e-05
-2.9194e-08
1.92448e-05
-4.61081e-08
1.92415e-05
-6.65072e-08
1.92368e-05
-9.02208e-08
1.92303e-05
-1.16998e-07
1.92215e-05
-1.46533e-07
1.92098e-05
-1.78491e-07
1.91944e-05
-2.12543e-07
1.91741e-05
-2.48412e-07
1.91477e-05
-2.85922e-07
1.91131e-05
-3.2505e-07
1.90679e-05
-3.65982e-07
1.90086e-05
-4.09173e-07
1.89307e-05
-4.55421e-07
1.88277e-05
-5.05985e-07
1.86911e-05
-5.62789e-07
1.85087e-05
-6.28657e-07
1.82633e-05
-7.08997e-07
1.79326e-05
-8.07034e-07
-9.5754e-07
1.74722e-05
1.92482e-05
-1.09855e-10
1.92483e-05
4.08283e-10
1.92486e-05
1.78288e-09
1.9249e-05
3.34003e-09
1.92494e-05
4.52192e-09
1.92498e-05
4.85506e-09
1.92501e-05
3.92382e-09
1.92502e-05
5.47945e-10
1.92499e-05
-5.68115e-09
1.92491e-05
-1.50126e-08
1.92476e-05
-2.76229e-08
1.9245e-05
-4.3544e-08
1.92412e-05
-6.26677e-08
1.92357e-05
-8.47681e-08
1.92282e-05
-1.09521e-07
1.92182e-05
-1.36522e-07
1.9205e-05
-1.65301e-07
1.91878e-05
-1.95347e-07
1.91655e-05
-2.26128e-07
1.91367e-05
-2.5712e-07
1.90995e-05
-2.87819e-07
1.90513e-05
-3.17746e-07
1.89885e-05
-3.46432e-07
1.89065e-05
-3.73381e-07
1.87985e-05
-3.98025e-07
1.86554e-05
-4.19679e-07
1.84642e-05
-4.37454e-07
1.82059e-05
-4.50717e-07
1.78557e-05
-4.56837e-07
-4.62961e-07
1.73612e-05
1.92482e-05
-1.75128e-10
1.92484e-05
2.20703e-10
1.92487e-05
1.42432e-09
1.92492e-05
2.85289e-09
1.92498e-05
3.99489e-09
1.92503e-05
4.35998e-09
1.92507e-05
3.43057e-09
1.9251e-05
2.87523e-10
1.92508e-05
-5.51378e-09
1.925e-05
-1.42183e-08
1.92484e-05
-2.59715e-08
1.92456e-05
-4.07715e-08
1.92414e-05
-5.84702e-08
1.92354e-05
-7.8792e-08
1.92273e-05
-1.01348e-07
1.92164e-05
-1.25646e-07
1.92022e-05
-1.51094e-07
1.91839e-05
-1.77011e-07
1.91604e-05
-2.02628e-07
1.91303e-05
-2.27091e-07
1.90919e-05
-2.49433e-07
1.90427e-05
-2.68531e-07
1.89793e-05
-2.8301e-07
1.8897e-05
-2.91098e-07
1.87894e-05
-2.90407e-07
1.86474e-05
-2.77626e-07
1.8458e-05
-2.48144e-07
1.82026e-05
-1.95236e-07
1.78559e-05
-1.10191e-07
2.8778e-08
1.73642e-05
1.92482e-05
-2.59945e-10
1.92485e-05
-1.10406e-11
1.92489e-05
9.83429e-10
1.92495e-05
2.25157e-09
1.92502e-05
3.31651e-09
1.92509e-05
3.6784e-09
1.92515e-05
2.76295e-09
1.92519e-05
-1.42561e-10
1.92519e-05
-5.48386e-09
1.92512e-05
-1.35046e-08
1.92496e-05
-2.43214e-08
1.92467e-05
-3.79014e-08
1.92423e-05
-5.40629e-08
1.9236e-05
-7.249e-08
1.92274e-05
-9.27417e-08
1.9216e-05
-1.14253e-07
1.92012e-05
-1.3633e-07
1.91823e-05
-1.58146e-07
1.91584e-05
-1.78728e-07
1.91283e-05
-1.96927e-07
1.90902e-05
-2.11365e-07
1.9042e-05
-2.20336e-07
1.89807e-05
-2.21641e-07
1.89019e-05
-2.12347e-07
1.87999e-05
-1.88406e-07
1.86664e-05
-1.44099e-07
1.84896e-05
-7.13568e-08
1.82527e-05
4.16758e-08
1.79331e-05
2.09406e-07
4.79805e-07
1.7482e-05
1.92482e-05
-3.63275e-10
1.92485e-05
-3.06084e-10
1.92491e-05
4.46115e-10
1.92498e-05
1.51845e-09
1.92507e-05
2.46802e-09
1.92515e-05
2.78622e-09
1.92524e-05
1.90204e-09
1.9253e-05
-7.64703e-10
1.92532e-05
-5.62971e-09
1.92526e-05
-1.29265e-08
1.9251e-05
-2.27472e-08
1.92482e-05
-3.50345e-08
1.92437e-05
-4.95816e-08
1.92372e-05
-6.60439e-08
1.92284e-05
-8.39435e-08
1.92168e-05
-1.02663e-07
1.92019e-05
-1.21434e-07
1.91831e-05
-1.39318e-07
1.91596e-05
-1.55178e-07
1.91303e-05
-1.67632e-07
1.90939e-05
-1.74963e-07
1.90485e-05
-1.74985e-07
1.89917e-05
-1.6482e-07
1.89199e-05
-1.40573e-07
1.88284e-05
-9.68465e-08
1.87102e-05
-2.59405e-08
1.85561e-05
8.27429e-08
1.83514e-05
2.46339e-07
1.80791e-05
4.81735e-07
8.56558e-07
1.77024e-05
1.92483e-05
-4.86034e-10
1.92486e-05
-6.84584e-10
1.92493e-05
-2.11456e-10
1.92502e-05
6.34963e-10
1.92512e-05
1.4323e-09
1.92523e-05
1.67338e-09
1.92534e-05
8.27745e-10
1.92542e-05
-1.59948e-09
1.92546e-05
-5.97918e-09
1.92542e-05
-1.25264e-08
1.92527e-05
-2.13114e-08
1.925e-05
-3.22581e-08
1.92455e-05
-4.51454e-08
1.92391e-05
-5.96138e-08
1.92303e-05
-7.51661e-08
1.92188e-05
-9.11579e-08
1.92042e-05
-1.06777e-07
1.91859e-05
-1.21014e-07
1.91633e-05
-1.32625e-07
1.91357e-05
-1.40064e-07
1.91022e-05
-1.41375e-07
1.90612e-05
-1.34024e-07
1.9011e-05
-1.14643e-07
1.89491e-05
-7.86494e-08
1.8872e-05
-1.97421e-08
1.87749e-05
7.11736e-08
1.86507e-05
2.06873e-07
1.84902e-05
4.06882e-07
1.82813e-05
6.90626e-07
1.13479e-06
1.80031e-05
1.92483e-05
-6.30438e-10
1.92488e-05
-1.1723e-09
1.92496e-05
-1.02103e-09
1.92506e-05
-4.2135e-10
1.92519e-05
2.00727e-10
1.92532e-05
3.40642e-10
1.92545e-05
-4.73856e-10
1.92556e-05
-2.66597e-09
1.92561e-05
-6.5578e-09
1.9256e-05
-1.23403e-08
1.92547e-05
-2.00641e-08
1.92521e-05
-2.96429e-08
1.92478e-05
-4.08525e-08
1.92415e-05
-5.33321e-08
1.92329e-05
-6.65854e-08
1.92217e-05
-7.99681e-08
1.92076e-05
-9.26591e-08
1.91902e-05
-1.03626e-07
1.91692e-05
-1.1158e-07
1.9144e-05
-1.14892e-07
1.91141e-05
-1.11482e-07
1.90787e-05
-9.86253e-08
1.90368e-05
-7.26738e-08
1.89868e-05
-2.86773e-08
1.89272e-05
3.98216e-08
1.88547e-05
1.4375e-07
1.87662e-05
2.95321e-07
1.86571e-05
5.15946e-07
1.85219e-05
8.25871e-07
1.30091e-06
1.83558e-05
1.92483e-05
-8.15317e-10
1.92489e-05
-1.80306e-09
1.92499e-05
-2.0175e-09
1.92512e-05
-1.66677e-09
1.92526e-05
-1.23383e-09
1.92542e-05
-1.2143e-09
1.92557e-05
-2.01006e-09
1.9257e-05
-3.9716e-09
1.92578e-05
-7.37818e-09
1.92579e-05
-1.23896e-08
1.92569e-05
-1.90379e-08
1.92545e-05
-2.72367e-08
1.92504e-05
-3.6772e-08
1.92443e-05
-4.72942e-08
1.92361e-05
-5.83283e-08
1.92254e-05
-6.92598e-08
1.9212e-05
-7.9296e-08
1.91958e-05
-8.74303e-08
1.91766e-05
-9.23922e-08
1.91543e-05
-9.25643e-08
1.91287e-05
-8.58584e-08
1.90996e-05
-6.95301e-08
1.90668e-05
-3.98962e-08
1.90303e-05
7.87357e-09
1.89892e-05
8.08948e-08
1.89438e-05
1.89151e-07
1.88936e-05
3.45543e-07
1.88392e-05
5.70346e-07
1.87811e-05
8.83955e-07
1.35268e-06
1.87293e-05
1.92484e-05
-1.07814e-09
1.92492e-05
-2.64665e-09
1.92505e-05
-3.23572e-09
1.92519e-05
-3.10388e-09
1.92535e-05
-2.87719e-09
1.92553e-05
-3.003e-09
1.92571e-05
-3.78643e-09
1.92587e-05
-5.51975e-09
1.92597e-05
-8.44771e-09
1.926e-05
-1.26904e-08
1.92592e-05
-1.82583e-08
1.92571e-05
-2.5078e-08
1.92533e-05
-3.29588e-08
1.92475e-05
-4.15705e-08
1.92397e-05
-5.04805e-08
1.92296e-05
-5.91372e-08
1.92171e-05
-6.68125e-08
1.92022e-05
-7.25738e-08
1.91851e-05
-7.52368e-08
1.91658e-05
-7.32813e-08
1.91447e-05
-6.47349e-08
1.91221e-05
-4.7002e-08
1.90989e-05
-1.66276e-08
1.90757e-05
3.1008e-08
1.90539e-05
1.02721e-07
1.90356e-05
2.07494e-07
1.90235e-05
3.57584e-07
1.90228e-05
5.71034e-07
1.90394e-05
8.67365e-07
1.29688e-06
1.90952e-05
1.92485e-05
-1.48748e-09
1.92497e-05
-3.84256e-09
1.92512e-05
-4.70816e-09
1.92528e-05
-4.71498e-09
1.92547e-05
-4.71084e-09
1.92567e-05
-5.00171e-09
1.92587e-05
-5.78496e-09
1.92604e-05
-7.30177e-09
1.92618e-05
-9.76401e-09
1.92623e-05
-1.32399e-08
1.92618e-05
-1.77185e-08
1.92598e-05
-2.3164e-08
1.92563e-05
-2.94252e-08
1.92509e-05
-3.61846e-08
1.92435e-05
-4.3073e-08
1.9234e-05
-4.96382e-08
1.92225e-05
-5.52473e-08
1.9209e-05
-5.90881e-08
1.91939e-05
-6.01245e-08
1.91776e-05
-5.70149e-08
1.91609e-05
-4.8011e-08
1.91447e-05
-3.08189e-08
1.91305e-05
-2.43953e-09
1.91202e-05
4.13043e-08
1.91166e-05
1.06289e-07
1.91238e-05
2.00309e-07
1.91473e-05
3.34063e-07
1.91959e-05
5.22481e-07
1.92798e-05
7.8346e-07
1.14705e-06
1.94296e-05
1.92488e-05
-2.17627e-09
1.92506e-05
-5.63224e-09
1.92524e-05
-6.47308e-09
1.92542e-05
-6.55454e-09
1.92563e-05
-6.78819e-09
1.92585e-05
-7.22013e-09
1.92607e-05
-7.97218e-09
1.92627e-05
-9.28246e-09
1.92642e-05
-1.13219e-08
1.92651e-05
-1.40542e-08
1.92648e-05
-1.74293e-08
1.92631e-05
-2.15063e-08
1.92599e-05
-2.61902e-08
1.92548e-05
-3.11407e-08
1.92478e-05
-3.60933e-08
1.92389e-05
-4.07372e-08
1.92282e-05
-4.45466e-08
1.9216e-05
-4.68779e-08
1.92028e-05
-4.69008e-08
1.91893e-05
-4.35225e-08
1.91766e-05
-3.53069e-08
1.91662e-05
-2.0383e-08
1.91601e-05
3.60155e-09
1.91613e-05
4.01352e-08
1.91739e-05
9.37044e-08
1.92035e-05
1.70691e-07
1.92579e-05
2.79721e-07
1.93483e-05
4.3207e-07
1.9489e-05
6.42737e-07
9.2015e-07
1.97159e-05
1.92495e-05
-3.50241e-09
1.9252e-05
-8.12848e-09
1.92539e-05
-8.36889e-09
1.92559e-05
-8.64135e-09
1.92582e-05
-9.08188e-09
1.92606e-05
-9.63736e-09
1.92631e-05
-1.03986e-08
1.92653e-05
-1.15143e-08
1.9267e-05
-1.30642e-08
1.9268e-05
-1.49971e-08
1.9268e-05
-1.7412e-08
1.92666e-05
-2.01808e-08
1.92637e-05
-2.32077e-08
1.92589e-05
-2.64201e-08
1.92524e-05
-2.95389e-08
1.92441e-05
-3.24605e-08
1.92343e-05
-3.47418e-08
1.92234e-05
-3.59506e-08
1.9212e-05
-3.55032e-08
1.92011e-05
-3.26087e-08
1.9192e-05
-2.62064e-08
1.91865e-05
-1.49002e-08
1.91874e-05
2.6532e-09
1.91984e-05
2.92227e-08
1.92245e-05
6.75132e-08
1.92729e-05
1.22322e-07
1.93523e-05
2.00284e-07
1.94753e-05
3.09125e-07
1.96597e-05
4.58312e-07
6.36175e-07
1.99437e-05
1.92521e-05
-7.45914e-09
1.92553e-05
-1.13021e-08
1.9258e-05
-1.10787e-08
1.92604e-05
-1.10493e-08
1.92626e-05
-1.12613e-08
1.92645e-05
-1.15849e-08
1.92661e-05
-1.20234e-08
1.92673e-05
-1.26668e-08
1.92678e-05
-1.35738e-08
1.92675e-05
-1.47332e-08
1.92663e-05
-1.6148e-08
1.92638e-05
-1.77481e-08
1.92601e-05
-1.948e-08
1.92549e-05
-2.12559e-08
1.92483e-05
-2.29057e-08
1.92403e-05
-2.44288e-08
1.92311e-05
-2.55409e-08
1.92212e-05
-2.60281e-08
1.92113e-05
-2.56013e-08
1.92025e-05
-2.38759e-08
1.91967e-05
-2.0346e-08
1.9196e-05
-1.42382e-08
1.92033e-05
-4.60704e-09
1.92224e-05
1.0122e-08
1.92576e-05
3.22569e-08
1.93163e-05
6.36228e-08
1.94102e-05
1.06446e-07
1.95547e-05
1.64589e-07
1.97654e-05
2.4763e-07
3.26377e-07
2.00752e-05
1.92407e-05
1.92294e-05
1.92183e-05
1.92072e-05
1.9196e-05
1.91844e-05
1.91724e-05
1.91597e-05
1.91461e-05
1.91314e-05
1.91153e-05
1.90975e-05
1.9078e-05
1.90568e-05
1.90339e-05
1.90094e-05
1.89839e-05
1.89579e-05
1.89323e-05
1.89084e-05
1.8888e-05
1.88738e-05
1.88692e-05
1.88793e-05
1.89116e-05
1.89752e-05
1.90816e-05
1.92462e-05
1.94939e-05
1.98202e-05
2.04371e-05
-9.64628e-06
1.00931e-05
1.99865e-05
-9.73114e-06
1.01817e-05
1.95139e-05
-9.81085e-06
1.02834e-05
1.90162e-05
-9.88037e-06
1.0378e-05
1.85026e-05
-9.95043e-06
1.04641e-05
1.79733e-05
-1.00192e-05
1.05485e-05
1.74309e-05
-1.00886e-05
1.06309e-05
1.68781e-05
-1.01591e-05
1.07119e-05
1.63168e-05
-1.0232e-05
1.07933e-05
1.5748e-05
-1.0308e-05
1.08768e-05
1.51719e-05
-1.03874e-05
1.09636e-05
1.45879e-05
-1.04702e-05
1.10542e-05
1.39954e-05
-1.05567e-05
1.11491e-05
1.33939e-05
-1.06473e-05
1.12488e-05
1.27827e-05
-1.07429e-05
1.13542e-05
1.21609e-05
-1.08445e-05
1.14662e-05
1.15276e-05
-1.09531e-05
1.15864e-05
1.08815e-05
-1.10702e-05
1.17163e-05
1.02208e-05
-1.11974e-05
1.1858e-05
9.5432e-06
-1.13367e-05
1.20143e-05
8.8456e-06
-1.14906e-05
1.21883e-05
8.12384e-06
-1.16623e-05
1.23841e-05
7.37232e-06
-1.18554e-05
1.26069e-05
6.5833e-06
-1.20751e-05
1.28641e-05
5.74588e-06
-1.23262e-05
1.31637e-05
4.8444e-06
-1.26185e-05
1.352e-05
3.86024e-06
-1.29521e-05
1.39363e-05
2.74091e-06
-1.33608e-05
1.44801e-05
1.52114e-06
-1.37433e-05
1.49631e-05
-1.45492e-05
1.60703e-05
2.05639e-05
-9.17608e-06
2.00667e-05
-9.2339e-06
1.95499e-05
-9.29404e-06
1.90222e-05
-9.35273e-06
1.84853e-05
-9.41351e-06
1.79391e-05
-9.47303e-06
1.73871e-05
-9.53655e-06
1.68302e-05
-9.60219e-06
1.62679e-05
-9.66967e-06
1.56992e-05
-9.73936e-06
1.51233e-05
-9.81149e-06
1.45394e-05
-9.88625e-06
1.39467e-05
-9.96406e-06
1.33449e-05
-1.00455e-05
1.27333e-05
-1.01313e-05
1.21111e-05
-1.02222e-05
1.14772e-05
-1.03192e-05
1.08302e-05
-1.04231e-05
1.01681e-05
-1.05353e-05
9.48856e-06
-1.06572e-05
8.78834e-06
-1.07904e-05
8.06326e-06
-1.09372e-05
7.30773e-06
-1.10999e-05
6.51416e-06
-1.12815e-05
5.67234e-06
-1.14844e-05
4.76804e-06
-1.17142e-05
3.78196e-06
-1.1966e-05
2.6841e-06
-1.22629e-05
1.4653e-06
-1.25245e-05
-1.30839e-05
2.04844e-05
-8.67305e-06
1.99705e-05
-8.71998e-06
1.94469e-05
-8.77046e-06
1.89177e-05
-8.82351e-06
1.83824e-05
-8.87817e-06
1.78434e-05
-8.93402e-06
1.72982e-05
-8.99139e-06
1.67462e-05
-9.05023e-06
1.61871e-05
-9.11048e-06
1.56201e-05
-9.17244e-06
1.50451e-05
-9.23647e-06
1.44618e-05
-9.3029e-06
1.38698e-05
-9.37209e-06
1.32688e-05
-9.44449e-06
1.2658e-05
-9.52055e-06
1.20365e-05
-9.60078e-06
1.14031e-05
-9.68578e-06
1.07562e-05
-9.77623e-06
1.00939e-05
-9.87294e-06
9.41357e-06
-9.97684e-06
8.71209e-06
-1.00889e-05
7.98527e-06
-1.02104e-05
7.22766e-06
-1.03423e-05
6.43198e-06
-1.04858e-05
5.58869e-06
-1.06411e-05
4.68462e-06
-1.08101e-05
3.70272e-06
-1.09841e-05
2.61959e-06
-1.11798e-05
1.41049e-06
-1.13154e-05
-1.16734e-05
2.04015e-05
-8.16358e-06
1.98853e-05
-8.2038e-06
1.9362e-05
-8.24713e-06
1.88327e-05
-8.29416e-06
1.82975e-05
-8.34305e-06
1.77562e-05
-8.39273e-06
1.72081e-05
-8.44329e-06
1.6653e-05
-8.4951e-06
1.60909e-05
-8.54833e-06
1.55216e-05
-8.60318e-06
1.4945e-05
-8.65986e-06
1.43607e-05
-8.71856e-06
1.37681e-05
-8.7795e-06
1.31665e-05
-8.84293e-06
1.25551e-05
-8.90915e-06
1.19328e-05
-8.97847e-06
1.12983e-05
-9.05126e-06
1.065e-05
-9.12793e-06
9.98593e-06
-9.20889e-06
9.30363e-06
-9.29453e-06
8.5999e-06
-9.38523e-06
7.87071e-06
-9.4812e-06
7.11085e-06
-9.58243e-06
6.31353e-06
-9.68851e-06
5.47011e-06
-9.79772e-06
4.56881e-06
-9.90884e-06
3.59542e-06
-1.00107e-05
2.52972e-06
-1.01141e-05
1.34654e-06
-1.01322e-05
-1.03269e-05
2.02865e-05
-7.64892e-06
1.97662e-05
-7.68345e-06
1.92395e-05
-7.72048e-06
1.87071e-05
-7.76174e-06
1.81691e-05
-7.80502e-06
1.76251e-05
-7.84881e-06
1.70751e-05
-7.89323e-06
1.65187e-05
-7.93873e-06
1.59559e-05
-7.98547e-06
1.53862e-05
-8.0335e-06
1.48092e-05
-8.08288e-06
1.42244e-05
-8.13375e-06
1.36311e-05
-8.18624e-06
1.30287e-05
-8.24049e-06
1.24162e-05
-8.29666e-06
1.17926e-05
-8.3549e-06
1.11567e-05
-8.41533e-06
1.05068e-05
-8.47806e-06
9.84106e-06
-8.54311e-06
9.15694e-06
-8.61041e-06
8.45142e-06
-8.67971e-06
7.72068e-06
-8.75046e-06
6.95991e-06
-8.82165e-06
6.16297e-06
-8.89157e-06
5.32222e-06
-8.95698e-06
4.42751e-06
-9.01413e-06
3.46729e-06
-9.05052e-06
2.42375e-06
-9.07055e-06
1.27761e-06
-8.98608e-06
-9.04925e-06
2.01405e-05
-7.13015e-06
1.96167e-05
-7.15966e-06
1.90873e-05
-7.19107e-06
1.85525e-05
-7.22694e-06
1.80123e-05
-7.26483e-06
1.74665e-05
-7.30297e-06
1.69147e-05
-7.34144e-06
1.63566e-05
-7.38072e-06
1.57921e-05
-7.42095e-06
1.52207e-05
-7.46209e-06
1.4642e-05
-7.50414e-06
1.40554e-05
-7.54716e-06
1.34603e-05
-7.5912e-06
1.28561e-05
-7.63629e-06
1.22419e-05
-7.68242e-06
1.16165e-05
-7.72955e-06
1.09788e-05
-7.77759e-06
1.03271e-05
-7.82636e-06
9.65953e-06
-7.87556e-06
8.9738e-06
-7.92468e-06
8.26705e-06
-7.97296e-06
7.53578e-06
-8.01919e-06
6.77567e-06
-8.06154e-06
5.98135e-06
-8.09726e-06
5.14632e-06
-8.12195e-06
4.26213e-06
-8.12994e-06
3.31972e-06
-8.10812e-06
2.30426e-06
-8.05508e-06
1.2045e-06
-7.88632e-06
-7.84476e-06
1.99604e-05
-6.60747e-06
1.94331e-05
-6.63237e-06
1.89006e-05
-6.65859e-06
1.83629e-05
-6.6893e-06
1.782e-05
-6.72194e-06
1.72716e-05
-6.75456e-06
1.67174e-05
-6.78721e-06
1.61571e-05
-6.8204e-06
1.55904e-05
-6.85423e-06
1.50169e-05
-6.88859e-06
1.44361e-05
-6.92341e-06
1.38477e-05
-6.95867e-06
1.32508e-05
-6.99432e-06
1.26448e-05
-7.03027e-06
1.20287e-05
-7.06638e-06
1.14016e-05
-7.10245e-06
1.07622e-05
-7.13819e-06
1.0109e-05
-7.17317e-06
9.44027e-06
-7.2068e-06
8.75382e-06
-7.23823e-06
8.0471e-06
-7.26624e-06
7.31703e-06
-7.28912e-06
6.55987e-06
-7.30438e-06
5.77111e-06
-7.3085e-06
4.94543e-06
-7.29627e-06
4.07618e-06
-7.26069e-06
3.15663e-06
-7.18857e-06
2.17523e-06
-7.07368e-06
1.12807e-06
-6.83916e-06
-6.71668e-06
1.97435e-05
-6.08087e-06
1.92127e-05
-6.10152e-06
1.8677e-05
-6.12292e-06
1.81364e-05
-6.14866e-06
1.75906e-05
-6.17619e-06
1.70395e-05
-6.20344e-06
1.64827e-05
-6.23043e-06
1.592e-05
-6.25766e-06
1.5351e-05
-6.2852e-06
1.47753e-05
-6.31288e-06
1.41924e-05
-6.34055e-06
1.36018e-05
-6.36812e-06
1.3003e-05
-6.39546e-06
1.23951e-05
-6.42239e-06
1.17774e-05
-6.44863e-06
1.11487e-05
-6.47384e-06
1.05081e-05
-6.49757e-06
9.85414e-06
-6.51918e-06
9.18518e-06
-6.53784e-06
8.49935e-06
-6.5524e-06
7.79441e-06
-6.56131e-06
7.06775e-06
-6.56246e-06
6.31628e-06
-6.55291e-06
5.5364e-06
-6.52862e-06
4.724e-06
-6.48387e-06
3.87421e-06
-6.4109e-06
2.98249e-06
-6.29685e-06
2.04079e-06
-6.13198e-06
1.0516e-06
-5.84997e-06
-5.66508e-06
1.94885e-05
-5.55039e-06
1.89541e-05
-5.56708e-06
1.84151e-05
-5.584e-06
1.78715e-05
-5.60498e-06
1.73228e-05
-5.62752e-06
1.67689e-05
-5.64954e-06
1.62095e-05
-5.67102e-06
1.56443e-05
-5.69243e-06
1.50729e-05
-5.71382e-06
1.44949e-05
-5.73495e-06
1.391e-05
-5.75563e-06
1.33176e-05
-5.77569e-06
1.27171e-05
-5.79493e-06
1.21077e-05
-5.81308e-06
1.14889e-05
-5.82977e-06
1.08596e-05
-5.84452e-06
1.02187e-05
-5.85675e-06
9.56521e-06
-5.86565e-06
8.89758e-06
-5.87021e-06
8.21424e-06
-5.86906e-06
7.51334e-06
-5.86041e-06
6.79277e-06
-5.84188e-06
6.05013e-06
-5.81026e-06
5.28273e-06
-5.76122e-06
4.48766e-06
-5.6888e-06
3.66173e-06
-5.58497e-06
2.8024e-06
-5.43752e-06
1.905e-06
-5.23459e-06
9.76769e-07
-4.92174e-06
-4.68831e-06
1.91954e-05
-5.01614e-06
1.86575e-05
-5.02919e-06
1.81155e-05
-5.04199e-06
1.75689e-05
-5.05839e-06
1.70175e-05
-5.07607e-06
1.6461e-05
-5.09303e-06
1.58991e-05
-5.10919e-06
1.53317e-05
-5.12497e-06
1.47583e-05
-5.14039e-06
1.41785e-05
-5.1552e-06
1.3592e-05
-5.16912e-06
1.29983e-05
-5.18195e-06
1.23968e-05
-5.19342e-06
1.17869e-05
-5.20318e-06
1.11679e-05
-5.21079e-06
1.0539e-05
-5.21567e-06
9.8994e-06
-5.21712e-06
9.24798e-06
-5.21423e-06
8.58361e-06
-5.20584e-06
7.90501e-06
-5.19046e-06
7.21074e-06
-5.16614e-06
6.4992e-06
-5.13035e-06
5.76869e-06
-5.07975e-06
5.0174e-06
-5.00992e-06
4.24355e-06
-4.91496e-06
3.44545e-06
-4.78687e-06
2.62232e-06
-4.61438e-06
1.77241e-06
-4.38467e-06
9.05867e-07
-4.0552e-06