/*--------------------------------*- C++ -*----------------------------------*\
  =========                 |
  \\      /  F ield         | OpenFOAM: The Open Source CFD Toolbox
   \\    /   O peration     | Website:  https://openfoam.org
    \\  /    A nd           | Version:  11
     \\/     M anipulation  |
\*---------------------------------------------------------------------------*/
FoamFile
{
    format      ascii;
    class       volVectorField;
    location    "5.4";
    object      U;
}
// * * * * * * * * * * * * * * * * * * * * * * * * * * * * * * * * * * * * * //

dimensions      [0 1 -1 0 0 0 0];

internalField   nonuniform List<vector> 
12600
(
(0.412113 0.000106728 0)
(0.411843 0.000181261 0)
(0.411431 0.000191704 0)
(0.41096 0.000194928 0)
(0.410492 0.000199251 0)
(0.410033 0.000202199 0)
(0.409576 0.000203695 0)
(0.40912 0.000204474 0)
(0.408667 0.000204751 0)
(0.40822 0.000204467 0)
(0.407779 0.000203564 0)
(0.407348 0.000201983 0)
(0.406929 0.000199655 0)
(0.406523 0.000196482 0)
(0.406133 0.00019231 0)
(0.405764 0.000186957 0)
(0.405421 0.00017998 0)
(0.405108 0.000171195 0)
(0.404834 0.000160328 0)
(0.404606 0.000146994 0)
(0.404438 0.000130638 0)
(0.404341 0.000111757 0)
(0.404334 8.58693e-05 0)
(0.404436 5.351e-05 0)
(0.404674 9.707e-06 0)
(0.405082 -4.2494e-05 0)
(0.405706 -0.000109065 0)
(0.406607 -0.000193615 0)
(0.407963 -0.000331781 0)
(0.408694 -0.000870981 0)
(0.412492 0.000153772 0)
(0.412639 0.000280718 0)
(0.412776 0.000262411 0)
(0.412827 0.000254974 0)
(0.412871 0.000258427 0)
(0.412922 0.00025924 0)
(0.412976 0.000257219 0)
(0.413031 0.000253877 0)
(0.413089 0.000249379 0)
(0.413152 0.000243655 0)
(0.413222 0.000236655 0)
(0.413301 0.00022822 0)
(0.41339 0.00021811 0)
(0.413492 0.000206009 0)
(0.41361 0.000191453 0)
(0.413747 0.000173478 0)
(0.413907 0.00015125 0)
(0.414096 0.000125355 0)
(0.41432 9.2879e-05 0)
(0.414587 5.24872e-05 0)
(0.414907 3.41402e-06 0)
(0.415292 -5.68254e-05 0)
(0.415758 -0.00013096 0)
(0.41632 -0.000222403 0)
(0.417004 -0.000334984 0)
(0.417826 -0.000476076 0)
(0.418856 -0.000650821 0)
(0.419985 -0.00090147 0)
(0.421655 -0.00117053 0)
(0.422082 -0.00212227 0)
(0.41248 8.35078e-05 0)
(0.412555 0.000149973 0)
(0.412648 0.00015525 0)
(0.412715 0.000157908 0)
(0.412768 0.000164623 0)
(0.412819 0.000167792 0)
(0.412873 0.000166634 0)
(0.412928 0.000163272 0)
(0.412986 0.000157857 0)
(0.413049 0.000150233 0)
(0.413118 0.000140436 0)
(0.413196 0.000128243 0)
(0.413285 0.000113305 0)
(0.413386 9.51437e-05 0)
(0.413502 7.33018e-05 0)
(0.413635 4.66383e-05 0)
(0.41379 1.4026e-05 0)
(0.413969 -2.77411e-05 0)
(0.414181 -8.00226e-05 0)
(0.414432 -0.000143475 0)
(0.414732 -0.000221203 0)
(0.415094 -0.00031668 0)
(0.415531 -0.000434217 0)
(0.41606 -0.000578833 0)
(0.416703 -0.000756384 0)
(0.417482 -0.000977065 0)
(0.418432 -0.00124702 0)
(0.41956 -0.00160383 0)
(0.420906 -0.00204273 0)
(0.422451 -0.00243111 0)
(0.412473 5.43039e-05 0)
(0.412523 0.000128996 0)
(0.412598 0.00015625 0)
(0.412662 0.000166364 0)
(0.412713 0.000174571 0)
(0.412761 0.000181592 0)
(0.412813 0.000180506 0)
(0.412867 0.000176561 0)
(0.412923 0.000169669 0)
(0.412984 0.00015949 0)
(0.413052 0.000145803 0)
(0.413128 0.000128491 0)
(0.413215 0.000107298 0)
(0.413313 8.15913e-05 0)
(0.413426 5.0897e-05 0)
(0.413556 1.42468e-05 0)
(0.413705 -3.00205e-05 0)
(0.413879 -8.55741e-05 0)
(0.414084 -0.000154197 0)
(0.414328 -0.000239495 0)
(0.414619 -0.000344765 0)
(0.414968 -0.000474246 0)
(0.415391 -0.000633387 0)
(0.415901 -0.00082915 0)
(0.41652 -0.00106999 0)
(0.417271 -0.00136752 0)
(0.418181 -0.00173333 0)
(0.41928 -0.00218534 0)
(0.420587 -0.00273447 0)
(0.422227 -0.00317148 0)
(0.412468 3.82179e-05 0)
(0.412503 9.77558e-05 0)
(0.412561 0.000122929 0)
(0.412618 0.000129142 0)
(0.412667 0.000132414 0)
(0.412714 0.000134227 0)
(0.412764 0.000132227 0)
(0.412817 0.000125675 0)
(0.412872 0.000114918 0)
(0.412931 0.000100348 0)
(0.412997 8.22713e-05 0)
(0.413071 5.96465e-05 0)
(0.413155 3.26752e-05 0)
(0.413251 7.04126e-07 0)
(0.41336 -3.82208e-05 0)
(0.413484 -8.49031e-05 0)
(0.413628 -0.000141966 0)
(0.413796 -0.000211667 0)
(0.413993 -0.000298075 0)
(0.414227 -0.000404976 0)
(0.414506 -0.000536813 0)
(0.414841 -0.00069913 0)
(0.415243 -0.0008987 0)
(0.41573 -0.00114388 0)
(0.41632 -0.00144489 0)
(0.417036 -0.00181465 0)
(0.417901 -0.00226799 0)
(0.418959 -0.00281674 0)
(0.420212 -0.00349313 0)
(0.421863 -0.00412532 0)
(0.412466 2.72449e-05 0)
(0.412491 7.31416e-05 0)
(0.412537 9.76348e-05 0)
(0.412589 0.000106875 0)
(0.412636 0.000112032 0)
(0.412681 0.000115753 0)
(0.412729 0.00011523 0)
(0.41278 0.000109365 0)
(0.412834 9.84805e-05 0)
(0.412892 8.27101e-05 0)
(0.412956 6.18801e-05 0)
(0.413028 3.58336e-05 0)
(0.413109 4.40737e-06 0)
(0.4132 -3.26577e-05 0)
(0.413304 -7.74917e-05 0)
(0.413423 -0.000131932 0)
(0.413561 -0.000198581 0)
(0.41372 -0.000280644 0)
(0.413908 -0.000382582 0)
(0.414129 -0.00050922 0)
(0.414392 -0.000665901 0)
(0.414708 -0.000858931 0)
(0.415087 -0.00109609 0)
(0.415546 -0.00138719 0)
(0.4161 -0.00174445 0)
(0.416774 -0.00218271 0)
(0.417588 -0.00272019 0)
(0.418589 -0.00336961 0)
(0.419778 -0.00417673 0)
(0.421381 -0.00499161 0)
(0.412464 1.95677e-05 0)
(0.412483 5.43287e-05 0)
(0.412521 7.59075e-05 0)
(0.412567 8.5277e-05 0)
(0.412611 8.93243e-05 0)
(0.412655 9.08134e-05 0)
(0.4127 8.8078e-05 0)
(0.412749 7.98015e-05 0)
(0.412801 6.58456e-05 0)
(0.412857 4.6266e-05 0)
(0.412918 2.10324e-05 0)
(0.412987 -1.01243e-05 0)
(0.413064 -4.7634e-05 0)
(0.413151 -9.20096e-05 0)
(0.41325 -0.000144375 0)
(0.413363 -0.00020766 0)
(0.413493 -0.000285098 0)
(0.413643 -0.000380433 0)
(0.413818 -0.000498382 0)
(0.414025 -0.000644273 0)
(0.414271 -0.000824277 0)
(0.414565 -0.00104584 0)
(0.414918 -0.00131807 0)
(0.415343 -0.00165221 0)
(0.415856 -0.00206228 0)
(0.41648 -0.0025651 0)
(0.417234 -0.00318196 0)
(0.418167 -0.00393023 0)
(0.419277 -0.00485943 0)
(0.420793 -0.00586381 0)
(0.412463 1.38293e-05 0)
(0.412479 3.92584e-05 0)
(0.41251 5.65549e-05 0)
(0.41255 6.47357e-05 0)
(0.412592 6.77456e-05 0)
(0.412633 6.79589e-05 0)
(0.412677 6.43482e-05 0)
(0.412724 5.52936e-05 0)
(0.412773 4.01109e-05 0)
(0.412827 1.86803e-05 0)
(0.412886 -9.05779e-06 0)
(0.412952 -4.32032e-05 0)
(0.413025 -8.41703e-05 0)
(0.413107 -0.000132962 0)
(0.4132 -0.000191007 0)
(0.413306 -0.00026112 0)
(0.413427 -0.000346856 0)
(0.413566 -0.000452564 0)
(0.413728 -0.000583555 0)
(0.413919 -0.00074593 0)
(0.414145 -0.000946668 0)
(0.414414 -0.00119401 0)
(0.414736 -0.00149799 0)
(0.415123 -0.00187106 0)
(0.415591 -0.00232886 0)
(0.416158 -0.00289049 0)
(0.416844 -0.0035804 0)
(0.417695 -0.00442166 0)
(0.418709 -0.0054666 0)
(0.420112 -0.00664989 0)
(0.412463 9.2901e-06 0)
(0.412475 2.683e-05 0)
(0.412502 3.95092e-05 0)
(0.412538 4.58204e-05 0)
(0.412576 4.76884e-05 0)
(0.412616 4.66331e-05 0)
(0.412657 4.17571e-05 0)
(0.412702 3.13137e-05 0)
(0.41275 1.427e-05 0)
(0.412801 -9.67294e-06 0)
(0.412857 -4.061e-05 0)
(0.412919 -7.86475e-05 0)
(0.412987 -0.000124144 0)
(0.413064 -0.000178123 0)
(0.413151 -0.000242279 0)
(0.413248 -0.000319546 0)
(0.413359 -0.000413878 0)
(0.413486 -0.00053012 0)
(0.413634 -0.000674005 0)
(0.413807 -0.000852108 0)
(0.414011 -0.00107202 0)
(0.414252 -0.00134275 0)
(0.414541 -0.00167531 0)
(0.414887 -0.00208337 0)
(0.415303 -0.0025842 0)
(0.415807 -0.00319909 0)
(0.416417 -0.00395544 0)
(0.417174 -0.0048824 0)
(0.418077 -0.00603316 0)
(0.41934 -0.00738585 0)
(0.412462 5.58175e-06 0)
(0.412473 1.63335e-05 0)
(0.412496 2.44418e-05 0)
(0.412528 2.84063e-05 0)
(0.412564 2.88337e-05 0)
(0.412601 2.63971e-05 0)
(0.412641 2.01451e-05 0)
(0.412683 8.30584e-06 0)
(0.412728 -1.03568e-05 0)
(0.412777 -3.63419e-05 0)
(0.41283 -6.97537e-05 0)
(0.412888 -0.000110726 0)
(0.412952 -0.00015964 0)
(0.413023 -0.000217544 0)
(0.413102 -0.000286368 0)
(0.413191 -0.000369229 0)
(0.413291 -0.000470366 0)
(0.413406 -0.000595001 0)
(0.413538 -0.000749293 0)
(0.413691 -0.000940331 0)
(0.413871 -0.00117629 0)
(0.414083 -0.00146683 0)
(0.414335 -0.00182375 0)
(0.414636 -0.00226174 0)
(0.414997 -0.00279944 0)
(0.415432 -0.00346018 0)
(0.415957 -0.00427409 0)
(0.41661 -0.00527609 0)
(0.417387 -0.00652033 0)
(0.418487 -0.0080251 0)
(0.412462 2.40799e-06 0)
(0.412471 7.29181e-06 0)
(0.412492 1.10105e-05 0)
(0.412521 1.23445e-05 0)
(0.412554 1.11175e-05 0)
(0.412589 7.26759e-06 0)
(0.412627 -3.34117e-07 0)
(0.412667 -1.34987e-05 0)
(0.41271 -3.36402e-05 0)
(0.412756 -6.14379e-05 0)
(0.412805 -9.70791e-05 0)
(0.412859 -0.000140699 0)
(0.412918 -0.00019271 0)
(0.412983 -0.000254219 0)
(0.413054 -0.000327305 0)
(0.413134 -0.000415239 0)
(0.413223 -0.000522495 0)
(0.413324 -0.000654613 0)
(0.413439 -0.000818102 0)
(0.413571 -0.00102044 0)
(0.413726 -0.00127022 0)
(0.413907 -0.00157765 0)
(0.41412 -0.00195517 0)
(0.414373 -0.00241832 0)
(0.414674 -0.00298695 0)
(0.415036 -0.00368614 0)
(0.41547 -0.00454837 0)
(0.416008 -0.00561377 0)
(0.416646 -0.00693688 0)
(0.417558 -0.00857457 0)
(0.412462 -4.39333e-07 0)
(0.41247 -7.00632e-07 0)
(0.412488 -1.0326e-06 0)
(0.412515 -2.4596e-06 0)
(0.412545 -5.51939e-06 0)
(0.412579 -1.08108e-05 0)
(0.412614 -1.97203e-05 0)
(0.412652 -3.4138e-05 0)
(0.412693 -5.56278e-05 0)
(0.412736 -8.49951e-05 0)
(0.412782 -0.000122503 0)
(0.412832 -0.000168294 0)
(0.412885 -0.000222805 0)
(0.412943 -0.000287182 0)
(0.413007 -0.000363611 0)
(0.413077 -0.000455509 0)
(0.413154 -0.000567539 0)
(0.413241 -0.00070548 0)
(0.413338 -0.000876113 0)
(0.413449 -0.00108722 0)
(0.413577 -0.00134776 0)
(0.413725 -0.00166831 0)
(0.413897 -0.00206183 0)
(0.4141 -0.0025445 0)
(0.414338 -0.00313707 0)
(0.414622 -0.00386599 0)
(0.41496 -0.00476558 0)
(0.415375 -0.00588026 0)
(0.415863 -0.00726479 0)
(0.416567 -0.00901005 0)
(0.412462 -2.89959e-06 0)
(0.412469 -7.86096e-06 0)
(0.412486 -1.20578e-05 0)
(0.41251 -1.62136e-05 0)
(0.412539 -2.11438e-05 0)
(0.41257 -2.78827e-05 0)
(0.412604 -3.80526e-05 0)
(0.41264 -5.36318e-05 0)
(0.412678 -7.62792e-05 0)
(0.412718 -0.000106923 0)
(0.412761 -0.0001459 0)
(0.412806 -0.000193371 0)
(0.412854 -0.000249793 0)
(0.412905 -0.000316355 0)
(0.412961 -0.000395324 0)
(0.41302 -0.00049023 0)
(0.413085 -0.000605872 0)
(0.413157 -0.000748203 0)
(0.413236 -0.000924197 0)
(0.413325 -0.00114184 0)
(0.413425 -0.00141033 0)
(0.413539 -0.00174051 0)
(0.413669 -0.00214563 0)
(0.413819 -0.00264231 0)
(0.413993 -0.00325185 0)
(0.414196 -0.00400163 0)
(0.414433 -0.0049272 0)
(0.41472 -0.00607611 0)
(0.415048 -0.0075028 0)
(0.415528 -0.00932659 0)
(0.412462 -5.14486e-06 0)
(0.412468 -1.43815e-05 0)
(0.412484 -2.22083e-05 0)
(0.412506 -2.90745e-05 0)
(0.412533 -3.58976e-05 0)
(0.412563 -4.40454e-05 0)
(0.412595 -5.53861e-05 0)
(0.412629 -7.19907e-05 0)
(0.412665 -9.55817e-05 0)
(0.412702 -0.000127184 0)
(0.412741 -0.000167211 0)
(0.412781 -0.000215862 0)
(0.412824 -0.000273604 0)
(0.412868 -0.000341651 0)
(0.412915 -0.000422316 0)
(0.412965 -0.0005192 0)
(0.413017 -0.000637188 0)
(0.413073 -0.000782335 0)
(0.413134 -0.000961726 0)
(0.4132 -0.00118346 0)
(0.413271 -0.00145685 0)
(0.41335 -0.00179286 0)
(0.413438 -0.00220487 0)
(0.413535 -0.00270965 0)
(0.413643 -0.00332875 0)
(0.413763 -0.00408991 0)
(0.413897 -0.00502921 0)
(0.414051 -0.00619592 0)
(0.414216 -0.00764355 0)
(0.414457 -0.00951228 0)
(0.412461 -7.22756e-06 0)
(0.412468 -2.04549e-05 0)
(0.412482 -3.17038e-05 0)
(0.412503 -4.11807e-05 0)
(0.412529 -4.98673e-05 0)
(0.412557 -5.93758e-05 0)
(0.412588 -7.17768e-05 0)
(0.41262 -8.92339e-05 0)
(0.412653 -0.000113531 0)
(0.412688 -0.000145771 0)
(0.412723 -0.000186437 0)
(0.412759 -0.000235754 0)
(0.412795 -0.000294197 0)
(0.412833 -0.000362993 0)
(0.412871 -0.000444482 0)
(0.41291 -0.000542296 0)
(0.41295 -0.000661355 0)
(0.412991 -0.000807744 0)
(0.413032 -0.000988578 0)
(0.413075 -0.00121198 0)
(0.413118 -0.00148726 0)
(0.413162 -0.00182534 0)
(0.413206 -0.00223956 0)
(0.41325 -0.0027466 0)
(0.413291 -0.00336783 0)
(0.413329 -0.00413087 0)
(0.413359 -0.00507147 0)
(0.413379 -0.00623914 0)
(0.413377 -0.00768557 0)
(0.413376 -0.00956297 0)
(0.412461 -9.195e-06 0)
(0.412467 -2.62037e-05 0)
(0.412481 -4.07236e-05 0)
(0.412502 -5.27166e-05 0)
(0.412526 -6.31876e-05 0)
(0.412553 -7.39534e-05 0)
(0.412582 -8.72725e-05 0)
(0.412612 -0.000105396 0)
(0.412643 -0.000130152 0)
(0.412675 -0.0001627 0)
(0.412706 -0.000203574 0)
(0.412738 -0.000253026 0)
(0.412769 -0.000311542 0)
(0.412799 -0.00038035 0)
(0.412829 -0.00046179 0)
(0.412858 -0.000559486 0)
(0.412885 -0.000678334 0)
(0.41291 -0.000824385 0)
(0.412933 -0.0010047 0)
(0.412952 -0.00122733 0)
(0.412967 -0.00150147 0)
(0.412976 -0.00183788 0)
(0.412977 -0.00224963 0)
(0.412968 -0.00275306 0)
(0.412943 -0.00336903 0)
(0.412899 -0.00412442 0)
(0.412826 -0.00505389 0)
(0.412714 -0.00620558 0)
(0.412548 -0.00762835 0)
(0.412305 -0.0094767 0)
(0.412461 -1.10992e-05 0)
(0.412467 -3.17714e-05 0)
(0.412481 -4.9444e-05 0)
(0.412501 -6.38229e-05 0)
(0.412524 -7.59473e-05 0)
(0.41255 -8.78466e-05 0)
(0.412578 -0.000101949 0)
(0.412606 -0.000120559 0)
(0.412635 -0.000145516 0)
(0.412664 -0.000178019 0)
(0.412692 -0.000218654 0)
(0.412719 -0.000267704 0)
(0.412745 -0.000325658 0)
(0.412768 -0.000393735 0)
(0.412789 -0.00047425 0)
(0.412807 -0.000570781 0)
(0.412822 -0.000688148 0)
(0.412832 -0.000832301 0)
(0.412836 -0.00101017 0)
(0.412832 -0.00122963 0)
(0.412819 -0.00149965 0)
(0.412794 -0.00183069 0)
(0.412753 -0.0022354 0)
(0.412691 -0.00272951 0)
(0.412602 -0.00333302 0)
(0.412478 -0.00407157 0)
(0.412306 -0.00497793 0)
(0.412066 -0.00609732 0)
(0.411742 -0.00747475 0)
(0.411268 -0.00925703 0)
(0.412461 -1.29958e-05 0)
(0.412467 -3.73065e-05 0)
(0.412481 -5.8056e-05 0)
(0.412501 -7.46795e-05 0)
(0.412524 -8.82924e-05 0)
(0.412549 -0.000101172 0)
(0.412575 -0.000115898 0)
(0.412602 -0.000134784 0)
(0.412629 -0.000159659 0)
(0.412655 -0.000191757 0)
(0.41268 -0.00023171 0)
(0.412703 -0.000279823 0)
(0.412723 -0.000336589 0)
(0.412739 -0.000403205 0)
(0.412752 -0.000481939 0)
(0.41276 -0.00057628 0)
(0.412762 -0.000690922 0)
(0.412757 -0.000831646 0)
(0.412743 -0.00100517 0)
(0.412717 -0.00121912 0)
(0.412677 -0.00148212 0)
(0.412618 -0.00180421 0)
(0.412536 -0.00219745 0)
(0.412424 -0.00267675 0)
(0.412273 -0.00326094 0)
(0.412072 -0.00397393 0)
(0.411805 -0.00484593 0)
(0.411445 -0.00591787 0)
(0.410973 -0.00722996 0)
(0.410286 -0.00891198 0)
(0.412461 -1.49499e-05 0)
(0.412468 -4.29836e-05 0)
(0.412482 -6.67742e-05 0)
(0.412502 -8.54663e-05 0)
(0.412525 -0.000100348 0)
(0.41255 -0.000114026 0)
(0.412575 -0.000129205 0)
(0.4126 -0.000148151 0)
(0.412625 -0.000172657 0)
(0.412649 -0.000203986 0)
(0.41267 -0.000242813 0)
(0.412689 -0.000289461 0)
(0.412703 -0.000344417 0)
(0.412713 -0.000408851 0)
(0.412718 -0.000484961 0)
(0.412716 -0.000576114 0)
(0.412707 -0.000686829 0)
(0.412687 -0.000822653 0)
(0.412655 -0.000990029 0)
(0.412608 -0.00119623 0)
(0.412541 -0.00144946 0)
(0.41245 -0.00175921 0)
(0.412329 -0.00213682 0)
(0.412169 -0.0025962 0)
(0.411959 -0.00315472 0)
(0.411686 -0.00383422 0)
(0.411331 -0.00466175 0)
(0.41086 -0.00567292 0)
(0.410253 -0.00690234 0)
(0.409379 -0.00845509 0)
(0.412462 -1.70443e-05 0)
(0.412468 -4.90168e-05 0)
(0.412483 -7.58415e-05 0)
(0.412504 -9.63725e-05 0)
(0.412528 -0.000112256 0)
(0.412552 -0.000126531 0)
(0.412576 -0.000141978 0)
(0.412601 -0.000160742 0)
(0.412624 -0.000184573 0)
(0.412646 -0.000214772 0)
(0.412664 -0.000252047 0)
(0.412678 -0.000296726 0)
(0.412688 -0.000349283 0)
(0.412691 -0.000410844 0)
(0.412688 -0.000483513 0)
(0.412677 -0.000570499 0)
(0.412656 -0.000676093 0)
(0.412622 -0.000805558 0)
(0.412574 -0.000964984 0)
(0.412506 -0.00116122 0)
(0.412414 -0.00140198 0)
(0.412293 -0.00169611 0)
(0.412134 -0.00205409 0)
(0.411929 -0.00248869 0)
(0.411664 -0.00301564 0)
(0.411324 -0.00365441 0)
(0.410888 -0.00442858 0)
(0.410318 -0.00536775 0)
(0.409592 -0.00650052 0)
(0.408561 -0.00790192 0)
(0.412462 -1.93911e-05 0)
(0.412469 -5.56862e-05 0)
(0.412486 -8.55479e-05 0)
(0.412509 -0.000107596 0)
(0.412533 -0.00012415 0)
(0.412557 -0.000138811 0)
(0.412581 -0.000154331 0)
(0.412604 -0.000172655 0)
(0.412626 -0.00019549 0)
(0.412645 -0.000224184 0)
(0.41266 -0.000259472 0)
(0.412671 -0.000301684 0)
(0.412675 -0.000351285 0)
(0.412673 -0.000409356 0)
(0.412663 -0.000477888 0)
(0.412643 -0.000559893 0)
(0.412611 -0.000659388 0)
(0.412564 -0.00078129 0)
(0.4125 -0.000931279 0)
(0.412413 -0.00111572 0)
(0.412298 -0.00134172 0)
(0.412148 -0.00161742 0)
(0.411954 -0.00195237 0)
(0.411707 -0.00235805 0)
(0.411392 -0.00284843 0)
(0.410991 -0.00344045 0)
(0.410482 -0.00415407 0)
(0.409825 -0.00501262 0)
(0.408997 -0.00603877 0)
(0.407845 -0.00727514 0)
(0.412462 -2.2152e-05 0)
(0.412471 -6.33755e-05 0)
(0.412491 -9.624e-05 0)
(0.412515 -0.000119328 0)
(0.412541 -0.000136151 0)
(0.412565 -0.000150982 0)
(0.412588 -0.000166381 0)
(0.41261 -0.00018402 0)
(0.412631 -0.000205573 0)
(0.412648 -0.000232421 0)
(0.412661 -0.000265282 0)
(0.412668 -0.000304466 0)
(0.412668 -0.000350427 0)
(0.41266 -0.000404195 0)
(0.412643 -0.000467632 0)
(0.412614 -0.000543537 0)
(0.412572 -0.00063562 0)
(0.412513 -0.000748407 0)
(0.412434 -0.000887115 0)
(0.412329 -0.00105756 0)
(0.412193 -0.00126624 0)
(0.412016 -0.00152049 0)
(0.411791 -0.00182885 0)
(0.411506 -0.00220149 0)
(0.411145 -0.00265054 0)
(0.410689 -0.00319038 0)
(0.410116 -0.00383743 0)
(0.409385 -0.00460903 0)
(0.408473 -0.00552258 0)
(0.407233 -0.00658903 0)
(0.412463 -2.55747e-05 0)
(0.412474 -7.26197e-05 0)
(0.412497 -0.000108325 0)
(0.412525 -0.000131777 0)
(0.412552 -0.000148408 0)
(0.412576 -0.000163139 0)
(0.412599 -0.000178118 0)
(0.412621 -0.000194763 0)
(0.41264 -0.000214806 0)
(0.412656 -0.000239663 0)
(0.412666 -0.000269999 0)
(0.41267 -0.000306083 0)
(0.412666 -0.000348346 0)
(0.412653 -0.000397746 0)
(0.412629 -0.000455978 0)
(0.412593 -0.000525567 0)
(0.412542 -0.000609864 0)
(0.412472 -0.000712961 0)
(0.412379 -0.000839558 0)
(0.412258 -0.000994865 0)
(0.412102 -0.00118467 0)
(0.411902 -0.00141552 0)
(0.411648 -0.00169489 0)
(0.411328 -0.00203156 0)
(0.410926 -0.00243585 0)
(0.410423 -0.0029196 0)
(0.409794 -0.00349591 0)
(0.409002 -0.00417672 0)
(0.408022 -0.00497559 0)
(0.406726 -0.00587542 0)
(0.412463 -3.0071e-05 0)
(0.412478 -8.41604e-05 0)
(0.412507 -0.000122176 0)
(0.412539 -0.000145133 0)
(0.412567 -0.000161295 0)
(0.412591 -0.00017575 0)
(0.412614 -0.000189832 0)
(0.412636 -0.000204755 0)
(0.412655 -0.000222396 0)
(0.412668 -0.000244214 0)
(0.412676 -0.000270823 0)
(0.412677 -0.00030248 0)
(0.412669 -0.000339613 0)
(0.412652 -0.000383124 0)
(0.412622 -0.000434557 0)
(0.412579 -0.000496171 0)
(0.41252 -0.000570942 0)
(0.41244 -0.000662497 0)
(0.412335 -0.00077497 0)
(0.412199 -0.000912901 0)
(0.412025 -0.00108135 0)
(0.411804 -0.00128604 0)
(0.411525 -0.00153338 0)
(0.411175 -0.00183073 0)
(0.410738 -0.00218669 0)
(0.410193 -0.00261072 0)
(0.409518 -0.00311305 0)
(0.408676 -0.00370097 0)
(0.407643 -0.00438636 0)
(0.406316 -0.00513068 0)
(0.412465 -3.63929e-05 0)
(0.412485 -9.91447e-05 0)
(0.412522 -0.000137932 0)
(0.412559 -0.0001589 0)
(0.412588 -0.000174538 0)
(0.412613 -0.000189404 0)
(0.412636 -0.000203527 0)
(0.412658 -0.000217913 0)
(0.412676 -0.000234499 0)
(0.412688 -0.000254634 0)
(0.412694 -0.000278808 0)
(0.412693 -0.000307262 0)
(0.412682 -0.000340411 0)
(0.41266 -0.000379064 0)
(0.412626 -0.000424552 0)
(0.412577 -0.000478822 0)
(0.41251 -0.000544433 0)
(0.412421 -0.000624514 0)
(0.412306 -0.000722629 0)
(0.412157 -0.000842656 0)
(0.411968 -0.000988913 0)
(0.411728 -0.00116627 0)
(0.411427 -0.00138009 0)
(0.411051 -0.00163638 0)
(0.410584 -0.00194194 0)
(0.410005 -0.00230379 0)
(0.409291 -0.00272979 0)
(0.408409 -0.00322344 0)
(0.407335 -0.00379799 0)
(0.405993 -0.00440189 0)
(0.412467 -4.58839e-05 0)
(0.412497 -0.000119677 0)
(0.412545 -0.000156902 0)
(0.412587 -0.000172938 0)
(0.412616 -0.000184868 0)
(0.412641 -0.000196459 0)
(0.412665 -0.000207052 0)
(0.412687 -0.000217723 0)
(0.412704 -0.000230349 0)
(0.412715 -0.000246082 0)
(0.41272 -0.00026525 0)
(0.412716 -0.000288072 0)
(0.412702 -0.000314942 0)
(0.412677 -0.000346596 0)
(0.412638 -0.000384193 0)
(0.412584 -0.000429344 0)
(0.412511 -0.00048414 0)
(0.412415 -0.000551155 0)
(0.412291 -0.000633266 0)
(0.412132 -0.000733555 0)
(0.411929 -0.000855666 0)
(0.411674 -0.00100362 0)
(0.411355 -0.00118157 0)
(0.410957 -0.00139442 0)
(0.410465 -0.00164767 0)
(0.409859 -0.00194605 0)
(0.409114 -0.00229513 0)
(0.408201 -0.00269389 0)
(0.407095 -0.00316309 0)
(0.405735 -0.00364046 0)
(0.412471 -6.03533e-05 0)
(0.412517 -0.000146553 0)
(0.412581 -0.000183315 0)
(0.412629 -0.000200943 0)
(0.41266 -0.000216193 0)
(0.412685 -0.000229355 0)
(0.412709 -0.000239971 0)
(0.412731 -0.000250109 0)
(0.412748 -0.000261655 0)
(0.412758 -0.000275342 0)
(0.412761 -0.000291455 0)
(0.412755 -0.00031027 0)
(0.412739 -0.000332202 0)
(0.412711 -0.000357872 0)
(0.412669 -0.000388225 0)
(0.41261 -0.000424544 0)
(0.412532 -0.000468447 0)
(0.41243 -0.000522055 0)
(0.412299 -0.00058779 0)
(0.412131 -0.000667816 0)
(0.411918 -0.00076491 0)
(0.41165 -0.000882598 0)
(0.411316 -0.00102388 0)
(0.410902 -0.00119192 0)
(0.41039 -0.00139061 0)
(0.409763 -0.0016229 0)
(0.408997 -0.00189281 0)
(0.408058 -0.00219315 0)
(0.40693 -0.0025551 0)
(0.405533 -0.00292114 0)
(0.412479 -8.78826e-05 0)
(0.412549 -0.00016279 0)
(0.41263 -0.000176009 0)
(0.412682 -0.000183943 0)
(0.412713 -0.000194801 0)
(0.412739 -0.000204334 0)
(0.412765 -0.000211897 0)
(0.412788 -0.000219244 0)
(0.412804 -0.00022735 0)
(0.412814 -0.000237304 0)
(0.412817 -0.000249009 0)
(0.41281 -0.000262755 0)
(0.412792 -0.000278892 0)
(0.412762 -0.000297973 0)
(0.412717 -0.000320743 0)
(0.412655 -0.000348156 0)
(0.412573 -0.00038138 0)
(0.412467 -0.000421651 0)
(0.412329 -0.000470446 0)
(0.412155 -0.000529842 0)
(0.411934 -0.000601812 0)
(0.411656 -0.00068816 0)
(0.411311 -0.000791566 0)
(0.410884 -0.000914946 0)
(0.410359 -0.00106077 0)
(0.409716 -0.00122973 0)
(0.408937 -0.00142312 0)
(0.407977 -0.00162461 0)
(0.40684 -0.00186992 0)
(0.405307 -0.0020263 0)
(0.41249 -0.000156627 0)
(0.412638 -0.000290429 0)
(0.412753 -0.000274645 0)
(0.412786 -0.000270627 0)
(0.41281 -0.000276215 0)
(0.412835 -0.000281377 0)
(0.412858 -0.000284931 0)
(0.412875 -0.000288584 0)
(0.412884 -0.000293058 0)
(0.412886 -0.000298375 0)
(0.412879 -0.000304657 0)
(0.412863 -0.000312162 0)
(0.412836 -0.000321219 0)
(0.412795 -0.000332293 0)
(0.412739 -0.000345974 0)
(0.412663 -0.000362572 0)
(0.412565 -0.000382618 0)
(0.412438 -0.000407651 0)
(0.412277 -0.000438927 0)
(0.412074 -0.000475158 0)
(0.411822 -0.000518866 0)
(0.411509 -0.000573351 0)
(0.411124 -0.000637821 0)
(0.410653 -0.000713511 0)
(0.410079 -0.000802134 0)
(0.409386 -0.000904619 0)
(0.408554 -0.00102154 0)
(0.407547 -0.00112899 0)
(0.40634 -0.00127099 0)
(0.404068 -0.000894 0)
(0.412111 -0.000108178 0)
(0.411833 -0.000183355 0)
(0.411408 -0.000195405 0)
(0.41092 -0.000200017 0)
(0.41043 -0.000205799 0)
(0.409944 -0.000210068 0)
(0.409454 -0.000213161 0)
(0.408958 -0.000216042 0)
(0.408455 -0.000219013 0)
(0.407944 -0.000222184 0)
(0.407425 -0.000225649 0)
(0.406896 -0.000229513 0)
(0.406356 -0.000233845 0)
(0.405801 -0.000238719 0)
(0.40523 -0.000244246 0)
(0.404638 -0.000250662 0)
(0.404022 -0.000258275 0)
(0.403376 -0.000267154 0)
(0.402693 -0.000277493 0)
(0.401966 -0.000290365 0)
(0.401186 -0.000306074 0)
(0.40034 -0.000324549 0)
(0.399417 -0.000346771 0)
(0.3984 -0.000373961 0)
(0.397274 -0.00040661 0)
(0.396021 -0.00044276 0)
(0.394623 -0.00048692 0)
(0.393081 -0.000504481 0)
(0.391449 -0.000609815 0)
(0.388256 -6.10598e-06 0)
(0.414461 -0.00185628 -1.35896e-18)
(0.419726 -0.00248296 -1.0447e-20)
(0.423486 -0.00291576 1.3979e-18)
(0.42541 -0.0034941 2.80306e-18)
(0.426479 -0.00425954 1.42784e-18)
(0.427226 -0.00518682 -1.41659e-18)
(0.427827 -0.00625366 1.44025e-18)
(0.428356 -0.007456 0)
(0.428864 -0.00879257 1.45587e-18)
(0.429375 -0.0102617 -8.28958e-21)
(0.42989 -0.011868 1.02201e-19)
(0.430404 -0.0136255 0)
(0.430916 -0.0155567 -1.70928e-18)
(0.431427 -0.0176909 0)
(0.431943 -0.0200654 0)
(0.432471 -0.0227281 -1.86729e-18)
(0.43302 -0.0257415 -1.78325e-18)
(0.433597 -0.029189 -8.29053e-22)
(0.434213 -0.0331822 1.75897e-18)
(0.43488 -0.0378739 2.60039e-19)
(0.435614 -0.0434745 -2.39233e-18)
(0.436434 -0.0502971 2.74454e-19)
(0.437368 -0.0587331 -1.41664e-19)
(0.438429 -0.069678 2.12329e-18)
(0.439728 -0.0833322 2.88765e-19)
(0.44109 -0.104297 -1.4644e-19)
(0.443346 -0.126794 0)
(0.444807 -0.180624 -1.76154e-18)
(0.450895 -0.216058 -1.79625e-18)
(0.452788 -0.403729 0)
(0.423729 -0.00246561 1.36299e-18)
(0.425377 -0.00277217 -3.21232e-20)
(0.426294 -0.00338139 2.74073e-20)
(0.426375 -0.0042128 -1.41913e-18)
(0.426491 -0.00518634 -4.53245e-20)
(0.426779 -0.00626564 1.52814e-18)
(0.42718 -0.00744681 1.42569e-18)
(0.427628 -0.00873467 1.93918e-19)
(0.428094 -0.0101328 -9.94438e-20)
(0.428562 -0.0116486 1.62173e-18)
(0.429022 -0.0132971 1.77691e-18)
(0.429466 -0.0151001 1.60972e-18)
(0.429897 -0.0170835 1.87298e-18)
(0.430319 -0.0192778 1.69977e-18)
(0.430737 -0.0217216 1.86515e-18)
(0.431153 -0.0244647 3.94108e-18)
(0.431569 -0.0275725 1.85583e-18)
(0.431987 -0.0311314 -2.16732e-18)
(0.43241 -0.0352567 2.23695e-18)
(0.432837 -0.0401056 -1.34303e-19)
(0.433267 -0.0458951 1.39543e-19)
(0.433696 -0.0529376 2.31542e-18)
(0.434102 -0.0616596 0)
(0.434474 -0.0728572 -1.49728e-19)
(0.434732 -0.0870668 2.66575e-18)
(0.434733 -0.107948 0)
(0.43463 -0.131951 2.55644e-18)
(0.432683 -0.183867 -2.17978e-18)
(0.432211 -0.222323 -3.83985e-20)
(0.424181 -0.402108 7.7821e-20)
(0.42341 -0.0027237 -1.06346e-20)
(0.424079 -0.00326163 -1.07573e-20)
(0.424615 -0.00420959 -1.39116e-18)
(0.42501 -0.00527782 -4.51102e-20)
(0.425428 -0.00635943 4.62565e-20)
(0.425936 -0.00747119 -4.71165e-20)
(0.426446 -0.00865213 -1.49322e-18)
(0.426908 -0.00992738 0)
(0.427327 -0.0113129 0)
(0.427718 -0.012824 0)
(0.428087 -0.0144783 -1.69916e-18)
(0.428439 -0.0162958 -9.56097e-20)
(0.428775 -0.0183002 -1.56795e-18)
(0.429095 -0.0205217 -1.84463e-18)
(0.429399 -0.0229998 -2.01801e-18)
(0.429684 -0.0257858 -1.95622e-18)
(0.429947 -0.0289468 1.50521e-19)
(0.430185 -0.0325708 1.95066e-18)
(0.430388 -0.036775 -2.01492e-18)
(0.430546 -0.0417183 -1.40224e-19)
(0.430638 -0.0476205 0)
(0.430635 -0.054792 -4.94132e-18)
(0.430477 -0.0636807 1.55295e-19)
(0.430087 -0.0749957 -2.59227e-18)
(0.429308 -0.0895741 9.0714e-20)
(0.427791 -0.1101 0)
(0.425482 -0.13554 -5.50782e-18)
(0.4199 -0.18455 5.01262e-18)
(0.413261 -0.227388 -2.68789e-18)
(0.394434 -0.396732 -1.12408e-19)
(0.423351 -0.00396827 0)
(0.423875 -0.00470607 -1.43432e-18)
(0.424346 -0.00563389 7.28399e-23)
(0.424732 -0.00659489 2.30191e-20)
(0.425093 -0.00757333 0)
(0.42546 -0.00862616 0)
(0.425811 -0.00979047 -1.57994e-18)
(0.426136 -0.0110741 0)
(0.426444 -0.0124792 1.03286e-19)
(0.426742 -0.0140144 -2.1235e-19)
(0.427027 -0.0156943 3.27014e-22)
(0.427293 -0.0175384 -1.67478e-18)
(0.427534 -0.0195718 1.15267e-19)
(0.427748 -0.0218268 1.79389e-18)
(0.427929 -0.0243449 1.22484e-19)
(0.428072 -0.0271788 1.91208e-18)
(0.428169 -0.0303969 -2.08136e-18)
(0.428209 -0.0340882 -2.1831e-18)
(0.428174 -0.0383715 0)
(0.428039 -0.0434068 2.20333e-18)
(0.427765 -0.0494152 1.5119e-19)
(0.427296 -0.0567069 2.63746e-18)
(0.426531 -0.0657319 -1.63156e-19)
(0.425338 -0.0771665 2.66483e-18)
(0.423432 -0.0919578 -2.75352e-18)
(0.420398 -0.112263 0)
(0.415638 -0.138526 2.97377e-18)
(0.406647 -0.184964 -2.79448e-18)
(0.39342 -0.230823 2.74973e-18)
(0.364726 -0.388415 6.06456e-20)
(0.422981 -0.00505131 0)
(0.423353 -0.00575855 1.42956e-18)
(0.423668 -0.00661456 0)
(0.423973 -0.00755227 0)
(0.424279 -0.00856255 0)
(0.424585 -0.00966612 0)
(0.424881 -0.0108739 1.60232e-18)
(0.425158 -0.0121866 5.14458e-20)
(0.425412 -0.0136097 -5.2946e-20)
(0.425643 -0.0151578 0)
(0.425846 -0.0168506 0)
(0.426016 -0.0187105 1.14919e-19)
(0.42615 -0.0207642 -2.56195e-22)
(0.426242 -0.023045 -2.06946e-18)
(0.426286 -0.0255945 0)
(0.426272 -0.0284659 -2.07804e-18)
(0.426186 -0.0317281 0)
(0.426008 -0.0354707 2.36888e-18)
(0.425711 -0.0398129 -2.91415e-19)
(0.425256 -0.0449147 -2.25074e-18)
(0.424584 -0.0509964 1.27605e-18)
(0.423611 -0.0583653 0)
(0.422196 -0.0674668 0)
(0.420148 -0.0789525 0)
(0.417064 -0.093809 1.52963e-18)
(0.412448 -0.11384 -1.60127e-18)
(0.405165 -0.140462 0)
(0.39284 -0.184315 -1.69258e-18)
(0.372928 -0.232335 -1.77751e-18)
(0.334665 -0.377203 1.13632e-18)
(0.422452 -0.00603402 7.02754e-19)
(0.422734 -0.0067734 7.41271e-19)
(0.422963 -0.00764696 7.70269e-19)
(0.423218 -0.00860492 7.17075e-19)
(0.423481 -0.00963438 8.56427e-19)
(0.423725 -0.0107453 7.52869e-19)
(0.423944 -0.0119503 8.23821e-19)
(0.424137 -0.0132589 -8.46005e-19)
(0.424302 -0.0146827 5.40586e-20)
(0.424438 -0.0162376 7.83405e-19)
(0.42454 -0.0179419 9.21646e-19)
(0.424603 -0.0198171 8.91312e-19)
(0.42462 -0.0218891 1.22006e-19)
(0.424582 -0.024191 -1.01407e-18)
(0.424479 -0.0267648 1.30274e-19)
(0.424295 -0.0296642 -2.70077e-19)
(0.42401 -0.0329582 -9.89582e-19)
(0.423596 -0.0367365 -1.17495e-18)
(0.423016 -0.0411177 0)
(0.422217 -0.0462605 -1.58206e-19)
(0.421119 -0.052382 2.93484e-20)
(0.41961 -0.0597844 1.72866e-19)
(0.417508 -0.0689028 1.29249e-18)
(0.414561 -0.0803656 2.86349e-19)
(0.410259 -0.09515 -3.74069e-20)
(0.404012 -0.11483 1.76479e-18)
(0.394172 -0.141356 -1.11476e-19)
(0.378599 -0.182634 1.77121e-18)
(0.351997 -0.23174 1.97651e-18)
(0.305073 -0.363108 -1.32258e-18)
(0.421796 -0.0069864 -7.2239e-19)
(0.422004 -0.00773766 -7.27279e-19)
(0.422153 -0.00860957 -7.68328e-19)
(0.422343 -0.00956433 2.9362e-20)
(0.422541 -0.0105945 -1.56831e-18)
(0.422712 -0.0117091 -8.1413e-19)
(0.422851 -0.0129199 -1.78277e-18)
(0.422962 -0.0142368 1.00328e-19)
(0.423043 -0.0156705 -5.54596e-20)
(0.423089 -0.0172352 -1.82662e-18)
(0.423093 -0.0189487 9.87313e-21)
(0.423046 -0.0208328 -9.05626e-19)
(0.42294 -0.0229145 9.47517e-19)
(0.422764 -0.0252273 -1.33692e-20)
(0.422501 -0.0278137 1.34609e-19)
(0.422133 -0.0307272 -1.39695e-19)
(0.421634 -0.0340362 1.15315e-18)
(0.420967 -0.0378296 1.20046e-18)
(0.420084 -0.0422241 1.58184e-19)
(0.418918 -0.0473754 1.00621e-18)