/*--------------------------------*- C++ -*----------------------------------*\
  =========                 |
  \\      /  F ield         | OpenFOAM: The Open Source CFD Toolbox
   \\    /   O peration     | Website:  https://openfoam.org
    \\  /    A nd           | Version:  11
     \\/     M anipulation  |
\*---------------------------------------------------------------------------*/
FoamFile
{
    format      ascii;
    class       surfaceScalarField;
    location    "8.7";
    object      phi;
}
// * * * * * * * * * * * * * * * * * * * * * * * * * * * * * * * * * * * * * //

dimensions      [0 3 -1 0 0 0 0];

internalField   nonuniform List<scalar> 
24840
(
1.532e-05
1.33268e-08
1.53024e-05
1.75703e-08
1.52865e-05
1.59352e-08
1.52715e-05
1.4995e-08
1.52571e-05
1.43726e-08
1.52436e-05
1.3498e-08
1.52313e-05
1.2309e-08
1.52204e-05
1.08923e-08
1.52113e-05
9.1806e-09
1.52042e-05
7.02352e-09
1.51998e-05
4.46055e-09
1.51984e-05
1.36825e-09
1.52008e-05
-2.43682e-09
1.5208e-05
-7.1558e-09
1.5221e-05
-1.29738e-08
1.52411e-05
-2.01536e-08
1.527e-05
-2.89042e-08
1.53099e-05
-3.98956e-08
1.53634e-05
-5.34642e-08
1.54327e-05
-6.93239e-08
1.55215e-05
-8.88244e-08
1.56352e-05
-1.13621e-07
1.57793e-05
-1.44168e-07
1.59609e-05
-1.81604e-07
1.61884e-05
-2.2744e-07
1.64714e-05
-2.82999e-07
1.68226e-05
-3.51192e-07
1.72513e-05
-4.2874e-07
1.77965e-05
-5.4516e-07
-5.54775e-07
1.83512e-05
1.53394e-05
7.28928e-09
1.53437e-05
1.32812e-08
1.53479e-05
1.17352e-08
1.53523e-05
1.05324e-08
1.53573e-05
9.36429e-09
1.53632e-05
7.59567e-09
1.53702e-05
5.32249e-09
1.53785e-05
2.60654e-09
1.53883e-05
-6.61355e-10
1.54001e-05
-4.7379e-09
1.54141e-05
-9.55831e-09
1.54309e-05
-1.53987e-08
1.5451e-05
-2.25154e-08
1.5475e-05
-3.12299e-08
1.55039e-05
-4.18506e-08
1.55386e-05
-5.47904e-08
1.55803e-05
-7.06765e-08
1.56304e-05
-8.99906e-08
1.56907e-05
-1.13694e-07
1.57657e-05
-1.44335e-07
1.58596e-05
-1.82761e-07
1.59751e-05
-2.29118e-07
1.61166e-05
-2.85656e-07
1.62901e-05
-3.55152e-07
1.65033e-05
-4.40579e-07
1.67654e-05
-5.45107e-07
1.70876e-05
-6.73392e-07
1.74833e-05
-8.24453e-07
1.79688e-05
-1.0307e-06
-1.14914e-06
1.85632e-05
1.53363e-05
4.36823e-09
1.53402e-05
9.35834e-09
1.53434e-05
8.51086e-09
1.53473e-05
6.62122e-09
1.53519e-05
4.73185e-09
1.53574e-05
2.09886e-09
1.53639e-05
-1.16678e-09
1.53717e-05
-5.16994e-09
1.53811e-05
-1.00056e-08
1.53922e-05
-1.5864e-08
1.54055e-05
-2.28907e-08
1.54215e-05
-3.13942e-08
1.54407e-05
-4.17397e-08
1.54639e-05
-5.43764e-08
1.54918e-05
-6.98245e-08
1.55258e-05
-8.87223e-08
1.5567e-05
-1.11936e-07
1.56175e-05
-1.40426e-07
1.56793e-05
-1.7551e-07
1.57544e-05
-2.19451e-07
1.58457e-05
-2.74097e-07
1.59576e-05
-3.40961e-07
1.60948e-05
-4.22855e-07
1.62632e-05
-5.23603e-07
1.64703e-05
-6.47633e-07
1.6725e-05
-7.99801e-07
1.70388e-05
-9.87226e-07
1.74246e-05
-1.21029e-06
1.79003e-05
-1.50639e-06
-1.74219e-06
1.84934e-05
1.53351e-05
2.62255e-09
1.53385e-05
5.96515e-09
1.53416e-05
5.33756e-09
1.53452e-05
3.02306e-09
1.53496e-05
3.8152e-10
1.53549e-05
-3.1661e-09
1.53611e-05
-7.43318e-09
1.53687e-05
-1.27009e-08
1.53777e-05
-1.90352e-08
1.53885e-05
-2.66435e-08
1.54014e-05
-3.57956e-08
1.54168e-05
-4.68653e-08
1.54354e-05
-6.0326e-08
1.54578e-05
-7.67617e-08
1.54849e-05
-9.68762e-08
1.55177e-05
-1.21528e-07
1.55575e-05
-1.51816e-07
1.56062e-05
-1.89054e-07
1.56656e-05
-2.34929e-07
1.5738e-05
-2.91828e-07
1.58261e-05
-3.62263e-07
1.5934e-05
-4.48816e-07
1.60663e-05
-5.55121e-07
1.62287e-05
-6.86012e-07
1.64283e-05
-8.47314e-07
1.66742e-05
-1.04561e-06
1.69772e-05
-1.29025e-06
1.73513e-05
-1.5844e-06
1.78117e-05
-1.96677e-06
-2.32282e-06
1.83923e-05
1.53345e-05
1.48673e-09
1.53371e-05
3.30587e-09
1.534e-05
2.43903e-09
1.53434e-05
-3.1786e-10
1.53476e-05
-3.82091e-09
1.53526e-05
-8.17913e-09
1.53586e-05
-1.34766e-08
1.53659e-05
-1.99323e-08
1.53745e-05
-2.76864e-08
1.53848e-05
-3.69784e-08
1.53972e-05
-4.81545e-08
1.5412e-05
-6.167e-08
1.54298e-05
-7.81021e-08
1.54512e-05
-9.81636e-08
1.5477e-05
-1.22725e-07
1.55084e-05
-1.52849e-07
1.55464e-05
-1.89863e-07
1.55927e-05
-2.35388e-07
1.56493e-05
-2.91454e-07
1.57181e-05
-3.60709e-07
1.58021e-05
-4.46219e-07
1.59047e-05
-5.5146e-07
1.60306e-05
-6.80939e-07
1.6185e-05
-8.40483e-07
1.6375e-05
-1.03726e-06
1.6609e-05
-1.27962e-06
1.68977e-05
-1.57896e-06
1.72552e-05
-1.9419e-06
1.76953e-05
-2.4069e-06
-2.88117e-06
1.82537e-05
1.53341e-05
6.84346e-10
1.53363e-05
1.18578e-09
1.53389e-05
-2.54294e-10
1.53421e-05
-3.48736e-09
1.5346e-05
-7.74995e-09
1.53508e-05
-1.29333e-08
1.53565e-05
-1.92082e-08
1.53634e-05
-2.67892e-08
1.53716e-05
-3.58808e-08
1.53814e-05
-4.67649e-08
1.53931e-05
-5.98475e-08
1.54071e-05
-7.5664e-08
1.54238e-05
-9.48889e-08
1.5444e-05
-1.18357e-07
1.54684e-05
-1.47092e-07
1.54979e-05
-1.82345e-07
1.55337e-05
-2.25659e-07
1.55772e-05
-2.78928e-07
1.56303e-05
-3.44497e-07
1.56949e-05
-4.25329e-07
1.57737e-05
-5.2499e-07
1.58699e-05
-6.47715e-07
1.59878e-05
-7.98854e-07
1.61326e-05
-9.85207e-07
1.63105e-05
-1.21522e-06
1.65299e-05
-1.49895e-06
1.68007e-05
-1.84979e-06
1.71368e-05
-2.27806e-06
1.75514e-05
-2.8215e-06
-3.41086e-06
1.80811e-05
1.5334e-05
6.1726e-11
1.53357e-05
-5.50987e-10
1.53381e-05
-2.68154e-09
1.53411e-05
-6.4434e-09
1.53447e-05
-1.1389e-08
1.53492e-05
-1.73763e-08
1.53545e-05
-2.45706e-08
1.53609e-05
-3.32087e-08
1.53686e-05
-4.35449e-08
1.53777e-05
-5.59079e-08
1.53887e-05
-7.07584e-08
1.54017e-05
-8.87049e-08
1.54173e-05
-1.10514e-07
1.54361e-05
-1.37132e-07
1.54587e-05
-1.69723e-07
1.54861e-05
-2.09708e-07
1.55193e-05
-2.58828e-07
1.55596e-05
-3.19219e-07
1.56086e-05
-3.93516e-07
1.56682e-05
-4.85003e-07
1.5741e-05
-5.977e-07
1.58297e-05
-7.36497e-07
1.59384e-05
-9.0752e-07
1.60717e-05
-1.11849e-06
1.62355e-05
-1.37906e-06
1.64375e-05
-1.70088e-06
1.6687e-05
-2.09931e-06
1.69973e-05
-2.58839e-06
1.73809e-05
-3.20513e-06
-3.90504e-06
1.78751e-05
1.53339e-05
-4.59097e-10
1.53353e-05
-1.98335e-09
1.53374e-05
-4.83524e-09
1.53402e-05
-9.16208e-09
1.53435e-05
-1.47458e-08
1.53476e-05
-2.14863e-08
1.53526e-05
-2.95349e-08
1.53585e-05
-3.91475e-08
1.53656e-05
-5.06207e-08
1.5374e-05
-6.43307e-08
1.53841e-05
-8.07901e-08
1.5396e-05
-1.00673e-07
1.54103e-05
-1.24827e-07
1.54275e-05
-1.54303e-07
1.54482e-05
-1.90387e-07
1.54731e-05
-2.34652e-07
1.55033e-05
-2.89018e-07
1.55399e-05
-3.55836e-07
1.55844e-05
-4.37997e-07
1.56385e-05
-5.3909e-07
1.57043e-05
-6.6354e-07
1.57846e-05
-8.16798e-07
1.58828e-05
-1.00568e-06
1.60031e-05
-1.23875e-06
1.61507e-05
-1.52675e-06
1.63327e-05
-1.88286e-06
1.65576e-05
-2.32422e-06
1.68378e-05
-2.86855e-06
1.71849e-05
-3.55223e-06
-4.35628e-06
1.76361e-05
1.53338e-05
-8.90061e-10
1.5335e-05
-3.19314e-09
1.53369e-05
-6.73579e-09
1.53393e-05
-1.1634e-08
1.53424e-05
-1.78125e-08
1.53462e-05
-2.52375e-08
1.53507e-05
-3.40606e-08
1.53561e-05
-4.45514e-08
1.53625e-05
-5.70421e-08
1.53701e-05
-7.1953e-08
1.53792e-05
-8.98444e-08
1.539e-05
-1.11448e-07
1.54028e-05
-1.37684e-07
1.54182e-05
-1.69693e-07
1.54367e-05
-2.0887e-07
1.5459e-05
-2.5692e-07
1.54859e-05
-3.15918e-07
1.55184e-05
-3.88399e-07
1.55579e-05
-4.77481e-07
1.56058e-05
-5.8702e-07
1.56641e-05
-7.21793e-07
1.5735e-05
-8.87723e-07
1.58216e-05
-1.09222e-06
1.59274e-05
-1.34458e-06
1.60572e-05
-1.65652e-06
1.62168e-05
-2.04253e-06
1.6414e-05
-2.52144e-06
1.66599e-05
-3.11441e-06
1.6965e-05
-3.85731e-06
-4.75667e-06
1.73654e-05
1.53337e-05
-1.24477e-09
1.53347e-05
-4.23545e-09
1.53364e-05
-8.40737e-09
1.53386e-05
-1.38518e-08
1.53414e-05
-2.05752e-08
1.53448e-05
-2.8608e-08
1.53488e-05
-3.81154e-08
1.53536e-05
-4.9378e-08
1.53593e-05
-6.27563e-08
1.53661e-05
-7.87093e-08
1.53741e-05
-9.78401e-08
1.53836e-05
-1.2093e-07
1.53949e-05
-1.48962e-07
1.54083e-05
-1.83153e-07
1.54244e-05
-2.2499e-07
1.54438e-05
-2.76289e-07
1.54671e-05
-3.39255e-07
1.54953e-05
-4.16579e-07
1.55294e-05
-5.11563e-07
1.55707e-05
-6.28293e-07
1.56207e-05
-7.71836e-07
1.56815e-05
-9.48495e-07
1.57554e-05
-1.16617e-06
1.58456e-05
-1.43475e-06
1.59559e-05
-1.76677e-06
1.60912e-05
-2.17783e-06
1.62579e-05
-2.6882e-06
1.64657e-05
-3.32213e-06
1.67234e-05
-4.11507e-06
-5.09813e-06
1.70649e-05
1.53336e-05
-1.5436e-09
1.53345e-05
-5.13509e-09
1.5336e-05
-9.86715e-09
1.5338e-05
-1.58128e-08
1.53404e-05
-2.30233e-08
1.53434e-05
-3.15818e-08
1.53469e-05
-4.16741e-08
1.53511e-05
-5.35919e-08
1.53561e-05
-6.77175e-08
1.53619e-05
-8.45423e-08
1.53688e-05
-1.04706e-07
1.53769e-05
-1.29032e-07
1.53865e-05
-1.58555e-07
1.53979e-05
-1.94553e-07
1.54115e-05
-2.38589e-07
1.54278e-05
-2.92568e-07
1.54473e-05
-3.58798e-07
1.54708e-05
-4.40093e-07
1.54992e-05
-5.39903e-07
1.55334e-05
-6.62492e-07
1.55747e-05
-8.1315e-07
1.56247e-05
-9.98472e-07
1.56852e-05
-1.22672e-06
1.57587e-05
-1.50825e-06
1.58481e-05
-1.8562e-06
1.59573e-05
-2.28702e-06
1.60913e-05
-2.82213e-06
1.62575e-05
-3.48835e-06
1.64631e-05
-4.32066e-06
-5.3728e-06
1.67377e-05
1.53336e-05
-1.79855e-09
1.53344e-05
-5.90883e-09
1.53356e-05
-1.11308e-08
1.53373e-05
-1.75193e-08
1.53395e-05
-2.515e-08
1.5342e-05
-3.41464e-08
1.53451e-05
-4.47168e-08
1.53486e-05
-5.71643e-08
1.53528e-05
-7.18881e-08
1.53577e-05
-8.94049e-08
1.53633e-05
-1.10385e-07
1.537e-05
-1.35684e-07
1.53778e-05
-1.66376e-07
1.53871e-05
-2.03788e-07
1.5398e-05
-2.4954e-07
1.5411e-05
-3.05601e-07
1.54266e-05
-3.74359e-07
1.54452e-05
-4.58716e-07
1.54675e-05
-5.62228e-07
1.54943e-05
-6.89283e-07
1.55265e-05
-8.45327e-07
1.55652e-05
-1.03715e-06
1.56117e-05
-1.27325e-06
1.56678e-05
-1.56428e-06
1.57353e-05
-1.92377e-06
1.58171e-05
-2.36875e-06
1.59163e-05
-2.92134e-06
1.60382e-05
-3.61033e-06
1.61876e-05
-4.46997e-06
-5.57358e-06
1.63883e-05
1.53336e-05
-2.01658e-09
1.53342e-05
-6.5706e-09
1.53353e-05
-1.22118e-08
1.53368e-05
-1.89762e-08
1.53386e-05
-2.69521e-08
1.53407e-05
-3.6293e-08
1.53432e-05
-4.72289e-08
1.53461e-05
-6.0074e-08
1.53495e-05
-7.52397e-08
1.53533e-05
-9.32613e-08
1.53578e-05
-1.14831e-07
1.53629e-05
-1.40829e-07
1.53689e-05
-1.72358e-07
1.53759e-05
-2.10777e-07
1.53841e-05
-2.57743e-07
1.53938e-05
-3.15272e-07
1.54052e-05
-3.85798e-07
1.54188e-05
-4.7228e-07
1.54349e-05
-5.78335e-07
1.5454e-05
-7.08423e-07
1.54768e-05
-8.68073e-07
1.55038e-05
-1.06417e-06
1.55359e-05
-1.30532e-06
1.55739e-05
-1.60232e-06
1.56189e-05
-1.96882e-06
1.56723e-05
-2.42209e-06
1.57355e-05
-2.98454e-06
1.58112e-05
-3.68609e-06
1.59012e-05
-4.5599e-06
-5.69466e-06
1.60222e-05
1.53335e-05
-2.20244e-09
1.53341e-05
-7.13214e-09
1.5335e-05
-1.31225e-08
1.53362e-05
-2.01902e-08
1.53377e-05
-2.84299e-08
1.53394e-05
-3.80175e-08
1.53414e-05
-4.9202e-08
1.53436e-05
-6.23074e-08
1.53461e-05
-7.77532e-08
1.5349e-05
-9.60863e-08
1.53521e-05
-1.18014e-07
1.53557e-05
-1.44431e-07
1.53598e-05
-1.76455e-07
1.53645e-05
-2.15463e-07
1.53699e-05
-2.63133e-07
1.53761e-05
-3.215e-07
1.53834e-05
-3.9302e-07
1.53917e-05
-4.80673e-07
1.54015e-05
-5.88095e-07
1.54128e-05
-7.19762e-07
1.5426e-05
-8.81213e-07
1.54411e-05
-1.07933e-06
1.54585e-05
-1.32271e-06
1.54783e-05
-1.62207e-06
1.55005e-05
-1.991e-06
1.5525e-05
-2.44661e-06
1.55515e-05
-3.01109e-06
1.55801e-05
-3.71462e-06
1.56088e-05
-4.58866e-06
-5.7322e-06
1.56464e-05
1.53335e-05
-2.36e-09
1.5334e-05
-7.60394e-09
1.53347e-05
-1.3875e-08
1.53357e-05
-2.11705e-08
1.53369e-05
-2.95875e-08
1.53382e-05
-3.93199e-08
1.53396e-05
-5.0633e-08
1.53411e-05
-6.38581e-08
1.53428e-05
-7.94183e-08
1.53446e-05
-9.78661e-08
1.53465e-05
-1.19915e-07
1.53485e-05
-1.46466e-07
1.53507e-05
-1.7864e-07
1.53531e-05
-2.17816e-07
1.53556e-05
-2.65673e-07
1.53583e-05
-3.24243e-07
1.53613e-05
-3.95979e-07
1.53645e-05
-4.83844e-07
1.53678e-05
-5.91452e-07
1.53713e-05
-7.23241e-07
1.53748e-05
-8.84688e-07
1.5378e-05
-1.08258e-06
1.53807e-05
-1.32537e-06
1.53822e-05
-1.62355e-06
1.53815e-05
-1.99034e-06
1.53773e-05
-2.44239e-06
1.53673e-05
-3.0011e-06
1.53486e-05
-3.69595e-06
1.5316e-05
-4.55601e-06
-5.68485e-06
1.52686e-05
1.53335e-05
-2.49289e-09
1.53339e-05
-7.99634e-09
1.53345e-05
-1.44824e-08
1.53352e-05
-2.19284e-08
1.53361e-05
-3.04326e-08
1.5337e-05
-4.02049e-08
1.53378e-05
-5.15248e-08
1.53387e-05
-6.47272e-08
1.53395e-05
-8.02343e-08
1.53403e-05
-9.85981e-08
1.53409e-05
-1.20531e-07
1.53413e-05
-1.46931e-07
1.53416e-05
-1.78908e-07
1.53416e-05
-2.1783e-07
1.53413e-05
-2.65358e-07
1.53406e-05
-3.235e-07
1.53393e-05
-3.94675e-07
1.53372e-05
-4.818e-07
1.53342e-05
-5.88424e-07
1.53298e-05
-7.18894e-07
1.53237e-05
-8.78561e-07
1.53152e-05
-1.07403e-06
1.53033e-05
-1.31347e-06
1.52867e-05
-1.60699e-06
1.52636e-05
-1.96724e-06
1.52312e-05
-2.41002e-06
1.51855e-05
-2.95541e-06
1.51209e-05
-3.63127e-06
1.50283e-05
-4.46347e-06
-5.55417e-06
1.48976e-05
1.53334e-05
-2.60495e-09
1.53338e-05
-8.3206e-09
1.53342e-05
-1.49596e-08
1.53348e-05
-2.24778e-08
1.53353e-05
-3.09761e-08
1.53358e-05
-4.06819e-08
1.53362e-05
-5.18861e-08
1.53364e-05
-6.49231e-08
1.53363e-05
-8.02093e-08
1.5336e-05
-9.82913e-08
1.53354e-05
-1.19873e-07
1.53343e-05
-1.45837e-07
1.53327e-05
-1.77275e-07
1.53304e-05
-2.15525e-07
1.53272e-05
-2.62215e-07
1.5323e-05
-3.19306e-07
1.53175e-05
-3.89156e-07
1.53103e-05
-4.74606e-07
1.5301e-05
-5.791e-07
1.52889e-05
-7.06846e-07
1.52734e-05
-8.63003e-07
1.52533e-05
-1.05391e-06
1.52271e-05
-1.28736e-06
1.51931e-05
-1.57292e-06
1.51483e-05
-1.92244e-06
1.50888e-05
-2.35057e-06
1.5009e-05
-2.8756e-06
1.49006e-05
-3.52285e-06
1.47514e-05
-4.31431e-06
-5.34487e-06
1.45421e-05
1.53334e-05
-2.70061e-09
1.53337e-05
-8.58985e-09
1.53341e-05
-1.53238e-08
1.53344e-05
-2.28352e-08
1.53347e-05
-3.12325e-08
1.53348e-05
-4.07643e-08
1.53346e-05
-5.17311e-08
1.53341e-05
-6.44612e-08
1.53333e-05
-7.93605e-08
1.5332e-05
-9.69653e-08
1.53301e-05
-1.17964e-07
1.53274e-05
-1.43215e-07
1.53239e-05
-1.73777e-07
1.53194e-05
-2.10947e-07
1.53134e-05
-2.56301e-07
1.53059e-05
-3.11732e-07
1.52962e-05
-3.79515e-07
1.5284e-05
-4.62382e-07
1.52685e-05
-5.63639e-07
1.5249e-05
-6.87306e-07
1.52243e-05
-8.38295e-07
1.5193e-05
-1.02261e-06
1.51532e-05
-1.24757e-06
1.51024e-05
-1.52208e-06
1.50369e-05
-1.857e-06
1.49519e-05
-2.26558e-06
1.48403e-05
-2.76393e-06
1.46915e-05
-3.37407e-06
1.44907e-05
-4.11349e-06
-5.0647e-06
1.42105e-05
1.53334e-05
-2.78534e-09
1.53336e-05
-8.82045e-09
1.53339e-05
-1.5596e-08
1.53341e-05
-2.30203e-08
1.53341e-05
-3.12191e-08
1.53338e-05
-4.04702e-08
1.53331e-05
-5.10801e-08
1.5332e-05
-6.3364e-08
1.53304e-05
-7.77138e-08
1.53281e-05
-9.46508e-08
1.5325e-05
-1.14841e-07
1.53209e-05
-1.39108e-07
1.53156e-05
-1.68469e-07
1.53088e-05
-2.04165e-07
1.53002e-05
-2.47701e-07
1.52893e-05
-3.00888e-07
1.52757e-05
-3.6589e-07
1.52586e-05
-4.45304e-07
1.52372e-05
-5.42262e-07
1.52105e-05
-6.60562e-07
1.5177e-05
-8.04818e-07
1.5135e-05
-9.80632e-07
1.50823e-05
-1.19478e-06
1.50156e-05
-1.4554e-06
1.49308e-05
-1.77225e-06
1.48222e-05
-2.15698e-06
1.46815e-05
-2.62321e-06
1.44966e-05
-3.18914e-06
1.42505e-05
-3.86743e-06
-4.72409e-06
1.39099e-05
1.53334e-05
-2.86633e-09
1.53336e-05
-9.03353e-09
1.53338e-05
-1.58018e-08
1.53339e-05
-2.3055e-08
1.53336e-05
-3.0956e-08
1.5333e-05
-3.98218e-08
1.53318e-05
-4.99584e-08
1.53301e-05
-6.16605e-08
1.53277e-05
-7.53031e-08
1.53245e-05
-9.13889e-08
1.53202e-05
-1.10553e-07
1.53146e-05
-1.33579e-07
1.53076e-05
-1.61427e-07
1.52987e-05
-1.95271e-07
1.52875e-05
-2.36532e-07
1.52736e-05
-2.86915e-07
1.52561e-05
-3.48456e-07
1.52344e-05
-4.23593e-07
1.52074e-05
-5.15254e-07
1.51738e-05
-6.26976e-07
1.5132e-05
-7.63038e-07
1.508e-05
-9.28595e-07
1.5015e-05
-1.12982e-06
1.49337e-05
-1.37402e-06
1.48312e-05
-1.66975e-06
1.47011e-05
-2.02696e-06
1.45346e-05
-2.4567e-06
1.43184e-05
-2.97296e-06
1.40346e-05
-3.58357e-06
-4.33541e-06
1.36459e-05
1.53334e-05
-2.95355e-09
1.53336e-05
-9.25766e-09
1.53338e-05
-1.59721e-08
1.53337e-05
-2.29628e-08
1.53332e-05
-3.04644e-08
1.53323e-05
-3.88458e-08
1.53307e-05
-4.83982e-08
1.53284e-05
-5.93868e-08
1.53253e-05
-7.21701e-08
1.53211e-05
-8.72302e-08
1.53157e-05
-1.05165e-07
1.53089e-05
-1.26704e-07
1.53002e-05
-1.52744e-07
1.52893e-05
-1.8438e-07
1.52757e-05
-2.22932e-07
1.52588e-05
-2.69987e-07
1.52377e-05
-3.27431e-07
1.52117e-05
-3.97519e-07
1.51794e-05
-4.82952e-07
1.51394e-05
-5.86978e-07
1.50898e-05
-7.13505e-07
1.50284e-05
-8.67204e-07
1.49522e-05
-1.05361e-06
1.48574e-05
-1.27916e-06
1.47388e-05
-1.55121e-06
1.45898e-05
-1.87797e-06
1.4401e-05
-2.26788e-06
1.41588e-05
-2.73077e-06
1.38452e-05
-3.26993e-06
-3.91211e-06
1.34219e-05
1.53334e-05
-3.06196e-09
1.53337e-05
-9.53337e-09
1.53339e-05
-1.61411e-08
1.53337e-05
-2.27642e-08
1.5333e-05
-2.97723e-08
1.53317e-05
-3.7579e-08
1.53298e-05
-4.64352e-08
1.5327e-05
-5.65803e-08
1.53232e-05
-6.83622e-08
1.53182e-05
-8.22346e-08
1.53117e-05
-9.87467e-08
1.53036e-05
-1.1857e-07
1.52934e-05
-1.42528e-07
1.52806e-05
-1.71624e-07
1.52648e-05
-2.07069e-07
1.52451e-05
-2.5031e-07
1.52207e-05
-3.0307e-07
1.51906e-05
-3.67399e-07
1.51534e-05
-4.45749e-07
1.51075e-05
-5.41056e-07
1.50508e-05
-6.56832e-07
1.49808e-05
-7.97244e-07
1.48944e-05
-9.67166e-07
1.47874e-05
-1.17218e-06
1.46547e-05
-1.41844e-06
1.44892e-05
-1.71249e-06
1.42816e-05
-2.06035e-06
1.40187e-05
-2.46786e-06
1.36833e-05
-2.93454e-06
-3.46764e-06
1.32389e-05
1.53335e-05
-3.21657e-09
1.53339e-05
-9.91435e-09
1.53341e-05
-1.63552e-08
1.53338e-05
-2.24927e-08
1.53329e-05
-2.89037e-08
1.53314e-05
-3.60433e-08
1.53291e-05
-4.41026e-08
1.53258e-05
-5.32894e-08
1.53214e-05
-6.39392e-08
1.53156e-05
-7.64727e-08
1.53082e-05
-9.13846e-08
1.52989e-05
-1.09281e-07
1.52873e-05
-1.30906e-07
1.52729e-05
-1.5716e-07
1.52549e-05
-1.8913e-07
1.52327e-05
-2.28114e-07
1.52053e-05
-2.75653e-07
1.51715e-05
-3.33579e-07
1.51298e-05
-4.04075e-07
1.50785e-05
-4.89747e-07
1.50154e-05
-5.93691e-07
1.49377e-05
-7.19558e-07
1.48421e-05
-8.71566e-07
1.47244e-05
-1.05445e-06
1.45792e-05
-1.27328e-06
1.43997e-05
-1.53303e-06
1.4177e-05
-1.83758e-06
1.38984e-05
-2.18927e-06
1.35487e-05
-2.58486e-06
-3.01433e-06
1.30954e-05
1.53336e-05
-3.46026e-09
1.53341e-05
-1.04791e-08
1.53344e-05
-1.66538e-08
1.53341e-05
-2.21646e-08
1.53331e-05
-2.78933e-08
1.53313e-05
-3.42836e-08
1.53287e-05
-4.1443e-08
1.5325e-05
-4.956e-08
1.532e-05
-5.89591e-08
1.53135e-05
-7.00177e-08
1.53053e-05
-8.31683e-08
1.5295e-05
-9.89497e-08
1.52821e-05
-1.18016e-07
1.52661e-05
-1.41158e-07
1.52463e-05
-1.69325e-07
1.52218e-05
-2.03656e-07
1.51917e-05
-2.45497e-07
1.51545e-05
-2.96447e-07
1.51089e-05
-3.58405e-07
1.50527e-05
-4.33633e-07
1.49838e-05
-5.24801e-07
1.48993e-05
-6.35038e-07
1.47957e-05
-7.67919e-07
1.46686e-05
-9.27387e-07
1.45129e-05
-1.11754e-06
1.43218e-05
-1.34197e-06
1.4087e-05
-1.60279e-06
1.37972e-05
-1.89943e-06
1.34396e-05
-2.22725e-06
-2.56253e-06
1.29878e-05
1.53337e-05
-3.86842e-09
1.53346e-05
-1.13381e-08
1.5335e-05
-1.70645e-08
1.53346e-05
-2.17994e-08
1.53335e-05
-2.67858e-08
1.53316e-05
-3.23465e-08
1.53287e-05
-3.85046e-08
1.53246e-05
-4.54506e-08
1.53191e-05
-5.34949e-08
1.5312e-05
-6.29574e-08
1.53031e-05
-7.42034e-08
1.52918e-05
-8.7703e-08
1.52778e-05
-1.04013e-07
1.52605e-05
-1.23802e-07
1.5239e-05
-1.47879e-07
1.52126e-05
-1.77209e-07
1.518e-05
-2.12935e-07
1.514e-05
-2.56411e-07
1.50908e-05
-3.0924e-07
1.50305e-05
-3.73325e-07
1.49566e-05
-4.50908e-07
1.48662e-05
-5.44596e-07
1.47556e-05
-6.5734e-07
1.46205e-05
-7.92353e-07
1.4456e-05
-9.52948e-07
1.42555e-05
-1.14154e-06
1.40115e-05
-1.35881e-06
1.37141e-05
-1.60203e-06
1.33537e-05
-1.86682e-06
-2.11998e-06
1.29112e-05
1.5334e-05
-4.58117e-09
1.53354e-05
-1.26631e-08
1.53359e-05
-1.75808e-08
1.53355e-05
-2.14069e-08
1.53343e-05
-2.56125e-08
1.53322e-05
-3.02561e-08
1.5329e-05
-3.53205e-08
1.53246e-05
-4.10119e-08
1.53187e-05
-4.76162e-08
1.53111e-05
-5.53758e-08
1.53015e-05
-6.45948e-08
1.52895e-05
-7.56742e-08
1.52746e-05
-8.90606e-08
1.52561e-05
-1.05296e-07
1.52332e-05
-1.2504e-07
1.52051e-05
-1.49077e-07
1.51705e-05
-1.78336e-07
1.5128e-05
-2.13916e-07
1.50759e-05
-2.57119e-07
1.5012e-05
-3.09482e-07
1.49339e-05
-3.72808e-07
1.48385e-05
-4.49192e-07
1.47222e-05
-5.40983e-07
1.45805e-05
-6.5073e-07
1.44088e-05
-7.81224e-07
1.42012e-05
-9.3388e-07
1.39507e-05
-1.10839e-06
1.36491e-05
-1.30039e-06
1.32905e-05
-1.5082e-06
-1.69157e-06
1.28621e-05
1.53346e-05
-5.85031e-09
1.53366e-05
-1.4683e-08
1.53372e-05
-1.82071e-08
1.53369e-05
-2.10751e-08
1.53357e-05
-2.44393e-08
1.53335e-05
-2.80452e-08
1.53301e-05
-3.19351e-08
1.53254e-05
-3.63039e-08
1.53192e-05
-4.14072e-08
1.53112e-05
-4.73676e-08
1.53011e-05
-5.44556e-08
1.52884e-05
-6.30069e-08
1.52727e-05
-7.33353e-08
1.52532e-05
-8.58556e-08
1.52293e-05
-1.01073e-07
1.51998e-05
-1.19587e-07
1.51636e-05
-1.42104e-07
1.51191e-05
-1.69463e-07
1.50646e-05
-2.02657e-07
1.4998e-05
-2.42858e-07
1.49166e-05
-2.91431e-07
1.48174e-05
-3.49971e-07
1.46967e-05
-4.20243e-07
1.45502e-05
-5.04254e-07
1.43737e-05
-6.0469e-07
1.41619e-05
-7.2207e-07
1.39088e-05
-8.55313e-07
1.3607e-05
-9.98558e-07
1.32552e-05
-1.15641e-06
-1.2781e-06
1.28417e-05
1.53357e-05
-8.17021e-09
1.53383e-05
-1.73184e-08
1.5339e-05
-1.88703e-08
1.53388e-05
-2.09348e-08
1.53377e-05
-2.33123e-08
1.53354e-05
-2.57476e-08
1.53319e-05
-2.84129e-08
1.5327e-05
-3.13942e-08
1.53205e-05
-3.49629e-08
1.53122e-05
-3.90549e-08
1.53017e-05
-4.39284e-08
1.52885e-05
-4.98688e-08
1.52722e-05
-5.70374e-08
1.52521e-05
-6.57275e-08
1.52273e-05
-7.6284e-08
1.51968e-05
-8.91146e-08
1.51594e-05
-1.04708e-07
1.51136e-05
-1.23646e-07
1.50576e-05
-1.46622e-07
1.49892e-05
-1.74455e-07
1.49059e-05
-2.08104e-07
1.48046e-05
-2.48692e-07
1.46818e-05
-2.97434e-07
1.45335e-05
-3.55962e-07
1.43558e-05
-4.27037e-07
1.41437e-05
-5.09898e-07
1.3891e-05
-6.02657e-07
1.35912e-05
-6.98763e-07
1.32445e-05
-8.09725e-07
-8.63501e-07
1.28299e-05
1.53394e-05
-1.41915e-08
1.53419e-05
-1.99068e-08
1.53422e-05
-1.91632e-08
1.53415e-05
-2.01592e-08
1.53397e-05
-2.1512e-08
1.53367e-05
-2.2779e-08
1.53324e-05
-2.41539e-08
1.53267e-05
-2.56811e-08
1.53193e-05
-2.75561e-08
1.53099e-05
-2.9667e-08
1.52982e-05
-3.21945e-08
1.52836e-05
-3.53205e-08
1.52657e-05
-3.91025e-08
1.52437e-05
-4.37089e-08
1.52167e-05
-4.93342e-08
1.51838e-05
-5.62085e-08
1.51437e-05
-6.461e-08
1.5095e-05
-7.48724e-08
1.50357e-05
-8.73948e-08
1.49639e-05
-1.02651e-07
1.4877e-05
-1.21197e-07
1.4772e-05
-1.43663e-07
1.46453e-05
-1.70745e-07
1.44922e-05
-2.02887e-07
1.43047e-05
-2.39476e-07
1.40766e-05
-2.81865e-07
1.38047e-05
-3.30741e-07
1.3488e-05
-3.82022e-07
1.31166e-05
-4.38299e-07
-3.96139e-07
1.26492e-05
1.53191e-05
1.52992e-05
1.52801e-05
1.52599e-05
1.52384e-05
1.52156e-05
1.51915e-05
1.51658e-05
1.51382e-05
1.51086e-05
1.50764e-05
1.5041e-05
1.50019e-05
1.49582e-05
1.49089e-05
1.48527e-05
1.47881e-05
1.47132e-05
1.46258e-05
1.45232e-05
1.4402e-05
1.42583e-05
1.40876e-05
1.38847e-05
1.36452e-05
1.33633e-05
1.30326e-05
1.26506e-05
1.22123e-05
1.18161e-05
1.81041e-05
-8.45423e-06
8.7014e-06
1.78818e-05
-8.62453e-06
8.84674e-06
1.76212e-05
-8.79459e-06
9.05527e-06
1.73238e-05
-8.95542e-06
9.25276e-06
1.69962e-05
-9.11612e-06
9.44378e-06
1.66449e-05
-9.28173e-06
9.63302e-06
1.62741e-05
-9.45408e-06
9.82488e-06
1.58862e-05
-9.63422e-06
1.00221e-05
1.54826e-05
-9.82305e-06
1.02267e-05
1.50634e-05
-1.00211e-05
1.04403e-05
1.46279e-05
-1.02285e-05
1.0664e-05
1.41752e-05
-1.04456e-05
1.08983e-05
1.3704e-05
-1.06729e-05
1.1144e-05
1.32134e-05
-1.09113e-05
1.14019e-05
1.27022e-05
-1.11621e-05
1.16733e-05
1.21693e-05
-1.1427e-05
1.19599e-05
1.16135e-05
-1.17081e-05
1.2264e-05
1.10328e-05
-1.20077e-05
1.25883e-05
1.04253e-05
-1.23289e-05
1.29364e-05
9.78819e-06
-1.26755e-05
1.33126e-05
9.11793e-06
-1.30519e-05
1.37222e-05
8.41e-06
-1.34642e-05
1.41721e-05
7.65843e-06
-1.39194e-05
1.4671e-05
6.85541e-06
-1.4427e-05
1.523e-05
5.98949e-06
-1.49982e-05
1.58641e-05
5.04819e-06
-1.56491e-05
1.65904e-05
4.01453e-06
-1.63966e-05
1.74302e-05
2.81211e-06
-1.72894e-05
1.84918e-05
1.57988e-06
-1.81969e-05
1.94292e-05
-1.97739e-05
2.13538e-05
1.82997e-05
-8.19076e-06
1.79978e-05
-8.32256e-06
1.76656e-05
-8.46247e-06
1.73147e-05
-8.6045e-06
1.69503e-05
-8.7517e-06
1.65748e-05
-8.90622e-06
1.61888e-05
-9.06814e-06
1.57919e-05
-9.23726e-06
1.53826e-05
-9.41371e-06
1.49592e-05
-9.5977e-06
1.45202e-05
-9.78957e-06
1.40645e-05
-9.98984e-06
1.35909e-05
-1.01993e-05
1.30987e-05
-1.04191e-05
1.2587e-05
-1.06503e-05
1.20545e-05
-1.08946e-05
1.14998e-05
-1.11534e-05
1.09213e-05
-1.14291e-05
1.03164e-05
-1.17241e-05
9.6826e-06
-1.20416e-05
9.01615e-06
-1.23855e-05
8.3125e-06
-1.27605e-05
7.56568e-06
-1.31726e-05
6.76786e-06
-1.36292e-05
5.90868e-06
-1.4139e-05
4.97471e-06
-1.47151e-05
3.94659e-06
-1.53685e-05
2.78832e-06
-1.61311e-05
1.53395e-06
-1.69426e-05
-1.824e-05
1.81813e-05
-7.87869e-06
1.78531e-05
-7.99436e-06
1.75106e-05
-8.12e-06
1.71587e-05
-8.25262e-06
1.67983e-05
-8.39123e-06
1.64277e-05
-8.53568e-06
1.60455e-05
-8.6859e-06
1.56502e-05
-8.84201e-06
1.52409e-05
-9.00433e-06
1.48165e-05
-9.17335e-06
1.43766e-05
-9.34961e-06
1.39205e-05
-9.53375e-06
1.34476e-05
-9.72647e-06
1.29571e-05
-9.92865e-06
1.24481e-05
-1.01413e-05
1.19191e-05
-1.03655e-05
1.13685e-05
-1.06029e-05
1.07946e-05
-1.08551e-05
1.01948e-05
-1.11244e-05
9.56647e-06
-1.14132e-05
8.90579e-06
-1.17248e-05
8.20817e-06
-1.20629e-05
7.46765e-06
-1.24321e-05
6.67654e-06
-1.28381e-05
5.8248e-06
-1.32873e-05
4.89917e-06
-1.37895e-05
3.88206e-06
-1.43514e-05
2.7469e-06
-1.4996e-05
1.49154e-06
-1.56872e-05
-1.67484e-05
1.80683e-05
-7.55472e-06
1.77343e-05
-7.66035e-06
1.73891e-05
-7.77476e-06
1.70337e-05
-7.89724e-06
1.66681e-05
-8.02557e-06
1.6291e-05
-8.15864e-06
1.59018e-05
-8.29666e-06
1.54999e-05
-8.44012e-06
1.5085e-05
-8.58944e-06
1.46566e-05
-8.74498e-06
1.42142e-05
-8.90714e-06
1.37568e-05
-9.07642e-06
1.32838e-05
-9.2534e-06
1.27939e-05
-9.43879e-06
1.22861e-05
-9.63344e-06
1.17589e-05
-9.83837e-06
1.12108e-05
-1.00548e-05
1.06398e-05
-1.02842e-05
1.00437e-05
-1.05282e-05
9.41934e-06
-1.07889e-05
8.76325e-06
-1.10687e-05
8.0708e-06
-1.13705e-05
7.33619e-06
-1.16974e-05
6.55199e-06
-1.20539e-05
5.70869e-06
-1.2444e-05
4.7939e-06
-1.28747e-05
3.79154e-06
-1.3349e-05
2.68019e-06
-1.38846e-05
1.44342e-06
-1.44504e-05
-1.5305e-05
1.792e-05
-7.22102e-06
1.75774e-05
-7.31782e-06
1.72249e-05
-7.42218e-06
1.68626e-05
-7.53493e-06
1.64904e-05
-7.65346e-06
1.61079e-05
-7.77612e-06
1.57144e-05
-7.90313e-06
1.53094e-05
-8.03509e-06
1.48923e-05
-8.17235e-06
1.44624e-05
-8.31515e-06
1.40191e-05
-8.4638e-06
1.35614e-05
-8.61874e-06
1.30885e-05
-8.78049e-06
1.25994e-05
-8.94967e-06
1.20929e-05
-9.12696e-06
1.15677e-05
-9.3132e-06
1.10223e-05
-9.50932e-06
1.04545e-05
-9.71645e-06
9.86216e-06
-9.93586e-06
9.24228e-06
-1.01691e-05
8.59129e-06
-1.04177e-05
7.90473e-06
-1.06839e-05
7.17705e-06
-1.09698e-05
6.4012e-06
-1.1278e-05
5.56829e-06
-1.16111e-05
4.66696e-06
-1.19734e-05
3.68263e-06
-1.23647e-05
2.59642e-06
-1.27984e-05
1.38764e-06
-1.32417e-05
-1.39174e-05
1.77396e-05
-6.87945e-06
1.739e-05
-6.96826e-06
1.70314e-05
-7.06361e-06
1.66638e-05
-7.16734e-06
1.6287e-05
-7.27661e-06
1.59003e-05
-7.38941e-06
1.55031e-05
-7.50593e-06
1.50949e-05
-7.62687e-06
1.4675e-05
-7.75254e-06
1.4243e-05
-7.88313e-06
1.37981e-05
-8.01887e-06
1.33395e-05
-8.16015e-06
1.28664e-05
-8.30739e-06
1.23778e-05
-8.46105e-06
1.18725e-05
-8.62167e-06
1.13492e-05
-8.78986e-06
1.08061e-05
-8.96631e-06
1.02415e-05
-9.15182e-06
9.65292e-06
-9.34727e-06
9.03755e-06
-9.55368e-06
8.39193e-06
-9.77211e-06
7.71181e-06
-1.00038e-05
6.99194e-06
-1.02499e-05
6.22577e-06
-1.05119e-05
5.40513e-06
-1.07904e-05
4.51974e-06
-1.1088e-05
3.55655e-06
-1.14015e-05
2.49904e-06
-1.17409e-05
1.32652e-06
-1.20691e-05
-1.25908e-05
1.75265e-05
-6.53086e-06
1.71706e-05
-6.61234e-06
1.68064e-05
-6.6994e-06
1.64337e-05
-6.79464e-06
1.60522e-05
-6.89507e-06
1.56613e-05
-6.99851e-06
1.52604e-05
-7.10511e-06
1.48492e-05
-7.21562e-06
1.4427e-05
-7.33035e-06
1.39932e-05
-7.44937e-06
1.35472e-05
-7.57288e-06
1.30882e-05
-7.70114e-06
1.26153e-05
-7.83448e-06
1.21275e-05
-7.97324e-06
1.16236e-05
-8.11779e-06
1.11023e-05
-8.26855e-06
1.0562e-05
-8.42598e-06
1.00008e-05
-8.59058e-06
9.41634e-06
-8.76286e-06
8.80604e-06
-8.94337e-06
8.16655e-06
-9.13263e-06
7.49388e-06
-9.33112e-06
6.78316e-06
-9.53916e-06
6.02838e-06
-9.75708e-06
5.22218e-06
-9.98424e-06
4.3554e-06
-1.02212e-05
3.41657e-06
-1.04626e-05
2.3915e-06
-1.07159e-05
1.26147e-06
-1.09391e-05
-1.13294e-05
1.72813e-05
-6.17599e-06
1.69196e-05
-6.25071e-06
1.65503e-05
-6.33012e-06
1.61731e-05
-6.41736e-06
1.57874e-05
-6.50942e-06
1.53929e-05
-6.604e-06
1.4989e-05
-6.70125e-06
1.45753e-05
-6.8019e-06
1.41512e-05
-6.90623e-06
1.37161e-05
-7.01426e-06
1.32693e-05
-7.12608e-06
1.28101e-05
-7.24191e-06
1.23375e-05
-7.36195e-06
1.18507e-05
-7.48642e-06
1.13485e-05
-7.61555e-06
1.08295e-05
-7.74957e-06
1.02922e-05
-7.88872e-06
9.73486e-06
-8.0332e-06
9.15521e-06
-8.18321e-06
8.55071e-06
-8.33887e-06
7.91829e-06
-8.50021e-06
7.25425e-06
-8.66708e-06
6.55415e-06
-8.83906e-06
5.81259e-06
-9.01552e-06
5.02303e-06
-9.19468e-06
4.17746e-06
-9.37562e-06
3.26605e-06
-9.55123e-06
2.27687e-06
-9.72667e-06
1.19411e-06
-9.85635e-06
-1.01353e-05
1.70049e-05
-5.8155e-06
1.66382e-05
-5.88399e-06
1.62644e-05
-5.95634e-06
1.58831e-05
-6.03605e-06
1.54938e-05
-6.12017e-06
1.50962e-05
-6.20639e-06
1.46898e-05
-6.29481e-06
1.4274e-05
-6.38614e-06
1.38484e-05
-6.48061e-06
1.34123e-05
-6.57819e-06
1.29652e-05
-6.67891e-06
1.25061e-05
-6.78289e-06
1.20344e-05
-6.89025e-06
1.15491e-05
-7.00109e-06
1.1049e-05
-7.11548e-06
1.05329e-05
-7.23348e-06
9.99935e-06
-7.35513e-06
9.44654e-06
-7.48039e-06
8.87247e-06
-7.60914e-06
8.27476e-06
-7.74116e-06
7.65058e-06
-7.87602e-06
6.99656e-06
-8.01307e-06
6.30873e-06
-8.15123e-06
5.5823e-06
-8.28909e-06
4.81159e-06
-8.42398e-06
3.98973e-06
-8.55375e-06
3.10851e-06
-8.67e-06
2.15811e-06
-8.77627e-06
1.12594e-06
-8.82418e-06
-9.00932e-06
1.66995e-05
-5.45009e-06
1.63283e-05
-5.51285e-06
1.59507e-05
-5.5787e-06
1.5566e-05
-5.65133e-06
1.51737e-05
-5.72795e-06
1.47736e-05
-5.80627e-06
1.43652e-05
-5.88636e-06
1.39479e-05
-5.96889e-06
1.35213e-05
-6.05404e-06
1.30849e-05
-6.14173e-06
1.26379e-05
-6.23192e-06
1.21797e-05
-6.32466e-06
1.17094e-05
-6.41996e-06
1.12261e-05
-6.51782e-06
1.07288e-05
-6.61819e-06
1.02163e-05
-6.72096e-06
9.68716e-06
-6.82599e-06
9.13978e-06
-6.93301e-06
8.57229e-06
-7.04165e-06
7.9825e-06
-7.15137e-06
7.36785e-06
-7.26137e-06