/*--------------------------------*- C++ -*----------------------------------*\
  =========                 |
  \\      /  F ield         | OpenFOAM: The Open Source CFD Toolbox
   \\    /   O peration     | Website:  https://openfoam.org
    \\  /    A nd           | Version:  11
     \\/     M anipulation  |
\*---------------------------------------------------------------------------*/
FoamFile
{
    format      ascii;
    class       volVectorField;
    location    "8.7";
    object      U;
}
// * * * * * * * * * * * * * * * * * * * * * * * * * * * * * * * * * * * * * //

dimensions      [0 1 -1 0 0 0 0];

internalField   nonuniform List<vector> 
12600
(
(0.399656 0.000103288 0)
(0.399401 0.000176004 0)
(0.399018 0.000181219 0)
(0.398593 0.000179036 0)
(0.398193 0.000178117 0)
(0.397827 0.00017457 0)
(0.397492 0.000168994 0)
(0.397189 0.000161101 0)
(0.396925 0.000150406 0)
(0.396711 0.000136956 0)
(0.396558 0.00012122 0)
(0.396479 0.000103238 0)
(0.396489 7.84112e-05 0)
(0.396609 4.27239e-05 0)
(0.396864 -2.07557e-06 0)
(0.397288 -5.49141e-05 0)
(0.397919 -0.000113702 0)
(0.398804 -0.000189479 0)
(0.400006 -0.000286824 0)
(0.401591 -0.000402209 0)
(0.403634 -0.000538796 0)
(0.406247 -0.000709244 0)
(0.409575 -0.000922101 0)
(0.413784 -0.00118493 0)
(0.419074 -0.00150836 0)
(0.425685 -0.00189959 0)
(0.433884 -0.00238829 0)
(0.444015 -0.00290292 0)
(0.45642 -0.00386205 0)
(0.473899 -0.00337695 0)
(0.400036 0.000149942 0)
(0.400175 0.000259736 0)
(0.400346 0.000232942 0)
(0.400447 0.000211612 0)
(0.400556 0.000195211 0)
(0.400695 0.000175471 0)
(0.400864 0.000149786 0)
(0.401063 0.000121258 0)
(0.401298 8.82553e-05 0)
(0.401577 4.68447e-05 0)
(0.401911 -3.55511e-06 0)
(0.40231 -6.53727e-05 0)
(0.402788 -0.000140433 0)
(0.403359 -0.000230774 0)
(0.404046 -0.000340294 0)
(0.404869 -0.000474758 0)
(0.405856 -0.000641763 0)
(0.407056 -0.000847888 0)
(0.408478 -0.00110134 0)
(0.41019 -0.00141599 0)
(0.412403 -0.0018069 0)
(0.415117 -0.00228743 0)
(0.418439 -0.00287603 0)
(0.422514 -0.00359868 0)
(0.427517 -0.00448534 0)
(0.433668 -0.00556593 0)
(0.441225 -0.00688964 0)
(0.450537 -0.00842432 0)
(0.461903 -0.0106221 0)
(0.476078 -0.0113417 0)
(0.400022 7.77357e-05 0)
(0.400105 0.000129466 0)
(0.400217 0.000109351 0)
(0.400319 8.5231e-05 0)
(0.400424 6.71459e-05 0)
(0.40055 3.98462e-05 0)
(0.400706 3.37901e-06 0)
(0.400892 -4.33301e-05 0)
(0.401114 -9.9678e-05 0)
(0.401379 -0.000165488 0)
(0.401696 -0.000244295 0)
(0.402076 -0.000339652 0)
(0.402532 -0.000455511 0)
(0.40308 -0.00059725 0)
(0.403742 -0.000770905 0)
(0.404543 -0.000983285 0)
(0.405516 -0.00124418 0)
(0.406701 -0.00156211 0)
(0.408152 -0.00195014 0)
(0.409926 -0.00244257 0)
(0.412082 -0.00306303 0)
(0.41471 -0.00382081 0)
(0.417929 -0.00474513 0)
(0.421884 -0.00588052 0)
(0.42674 -0.00727713 0)
(0.432722 -0.00898849 0)
(0.440051 -0.0110926 0)
(0.449203 -0.0135883 0)
(0.460081 -0.0169278 0)
(0.47493 -0.0193206 0)
(0.400014 4.60415e-05 0)
(0.400072 9.82034e-05 0)
(0.400167 9.71355e-05 0)
(0.400266 7.53689e-05 0)
(0.400367 4.53138e-05 0)
(0.400487 8.11533e-06 0)
(0.400636 -4.11945e-05 0)
(0.400815 -0.000103097 0)
(0.401031 -0.00017706 0)
(0.401287 -0.000266276 0)
(0.401594 -0.00037405 0)
(0.401962 -0.00050466 0)
(0.402403 -0.000663663 0)
(0.402933 -0.000858006 0)
(0.403573 -0.0010958 0)
(0.404347 -0.00138699 0)
(0.405288 -0.00174451 0)
(0.406432 -0.00218367 0)
(0.40783 -0.00272562 0)
(0.409536 -0.00340178 0)
(0.411614 -0.00423964 0)
(0.41415 -0.005266 0)
(0.417255 -0.0065247 0)
(0.421068 -0.00807373 0)
(0.425749 -0.00998161 0)
(0.431522 -0.0123247 0)
(0.438591 -0.0152145 0)
(0.447459 -0.0186706 0)
(0.45796 -0.0232081 0)
(0.472549 -0.0271528 0)
(0.40001 2.76067e-05 0)
(0.400051 5.99282e-05 0)
(0.400128 5.06817e-05 0)
(0.400217 1.48865e-05 0)
(0.400315 -3.16272e-05 0)
(0.400432 -8.47232e-05 0)
(0.400574 -0.000149542 0)
(0.400747 -0.00022828 0)
(0.400953 -0.000322744 0)
(0.401199 -0.000436169 0)
(0.401493 -0.000572517 0)
(0.401845 -0.000737251 0)
(0.402267 -0.000937382 0)
(0.402774 -0.00118156 0)
(0.403385 -0.00148027 0)
(0.404125 -0.00184638 0)
(0.405023 -0.0022961 0)
(0.406114 -0.00284923 0)
(0.407445 -0.00353068 0)
(0.409068 -0.0043736 0)
(0.411046 -0.00541478 0)
(0.41346 -0.00669527 0)
(0.416415 -0.00826993 0)
(0.420042 -0.0102099 0)
(0.424494 -0.012602 0)
(0.429989 -0.0155458 0)
(0.436716 -0.0191799 0)
(0.445192 -0.0235686 0)
(0.455182 -0.0292268 0)
(0.469333 -0.0347702 0)
(0.400007 1.46021e-05 0)
(0.400039 2.845e-05 0)
(0.400103 1.26758e-05 0)
(0.400184 -2.62115e-05 0)
(0.400278 -7.6838e-05 0)
(0.400389 -0.000139128 0)
(0.400524 -0.00021544 0)
(0.400687 -0.00030834 0)
(0.400883 -0.000420284 0)
(0.401116 -0.000554633 0)
(0.401394 -0.000716241 0)
(0.401727 -0.000911736 0)
(0.402126 -0.00114951 0)
(0.402604 -0.00143993 0)
(0.403181 -0.00179566 0)
(0.403878 -0.00223221 0)
(0.404723 -0.00276876 0)
(0.405749 -0.00342883 0)
(0.406999 -0.00424167 0)
(0.408522 -0.00524468 0)
(0.410378 -0.00648204 0)
(0.412642 -0.00800557 0)
(0.415412 -0.00988134 0)
(0.418811 -0.0121936 0)
(0.422982 -0.0150467 0)
(0.428133 -0.0185632 0)
(0.434436 -0.0229091 0)
(0.442412 -0.0281972 0)
(0.451767 -0.0349361 0)
(0.465302 -0.0420424 0)
(0.400006 4.83659e-06 0)
(0.400031 3.35174e-06 0)
(0.400085 -2.07553e-05 0)
(0.400159 -6.69254e-05 0)
(0.400247 -0.000128179 0)
(0.400351 -0.000203155 0)
(0.400477 -0.000293641 0)
(0.40063 -0.000402515 0)
(0.400813 -0.000532803 0)
(0.401031 -0.000688546 0)
(0.401291 -0.000875541 0)
(0.401601 -0.00110149 0)
(0.401972 -0.00137603 0)
(0.402417 -0.00171107 0)
(0.402953 -0.00212119 0)
(0.4036 -0.00262425 0)
(0.404384 -0.00324219 0)
(0.405334 -0.00400194 0)
(0.40649 -0.0049368 0)
(0.407896 -0.00608846 0)
(0.40961 -0.00750754 0)
(0.4117 -0.00925514 0)
(0.414254 -0.011408 0)
(0.417385 -0.0140632 0)
(0.421225 -0.0173417 0)
(0.425969 -0.0213885 0)
(0.431769 -0.0263958 0)
(0.439142 -0.0325264 0)
(0.447742 -0.0402789 0)
(0.460474 -0.0488927 0)
(0.400005 -2.6405e-06 0)
(0.400026 -1.76412e-05 0)
(0.400072 -5.10911e-05 0)
(0.400138 -0.000104825 0)
(0.400219 -0.00017501 0)
(0.400315 -0.000260109 0)
(0.400432 -0.000361915 0)
(0.400574 -0.000483682 0)
(0.400743 -0.000629152 0)
(0.400944 -0.000803104 0)
(0.401183 -0.00101206 0)
(0.401468 -0.00126459 0)
(0.401808 -0.00157146 0)
(0.402216 -0.00194601 0)
(0.402706 -0.00240462 0)
(0.403296 -0.00296733 0)
(0.40401 -0.00365861 0)
(0.404874 -0.00450847 0)
(0.405924 -0.00555385 0)
(0.407199 -0.00684067 0)
(0.408752 -0.00842533 0)
(0.410643 -0.010377 0)
(0.412952 -0.0127822 0)
(0.415779 -0.01575 0)
(0.419243 -0.0194166 0)
(0.423521 -0.023948 0)
(0.428744 -0.0295616 0)
(0.435411 -0.0364696 0)
(0.443138 -0.0451617 0)
(0.454869 -0.0552137 0)
(0.400004 -9.08622e-06 0)
(0.400022 -3.46498e-05 0)
(0.400061 -7.77793e-05 0)
(0.40012 -0.00013949 0)
(0.400193 -0.000217966 0)
(0.400282 -0.000312557 0)
(0.400389 -0.000425247 0)
(0.400518 -0.000559534 0)
(0.400671 -0.000719652 0)
(0.400854 -0.000910943 0)
(0.40107 -0.00114055 0)
(0.401327 -0.00141785 0)
(0.401633 -0.00175467 0)
(0.401999 -0.00216562 0)
(0.402437 -0.00266866 0)
(0.402965 -0.00328567 0)
(0.403601 -0.00404335 0)
(0.404371 -0.00497434 0)
(0.405303 -0.00611881 0)
(0.406435 -0.00752648 0)
(0.407809 -0.00925885 0)
(0.409481 -0.011392 0)
(0.411519 -0.014021 0)
(0.41401 -0.0172654 0)
(0.417056 -0.0212753 0)
(0.420814 -0.0262357 0)
(0.425393 -0.0323872 0)
(0.431258 -0.0399901 0)
(0.438 -0.0495263 0)
(0.448523 -0.0609148 0)
(0.400003 -1.4079e-05 0)
(0.400018 -4.97661e-05 0)
(0.400053 -0.000101606 0)
(0.400105 -0.000170711 0)
(0.400171 -0.000256784 0)
(0.400251 -0.000360005 0)
(0.400347 -0.000482486 0)
(0.400462 -0.000627848 0)
(0.400599 -0.000800696 0)
(0.400761 -0.00100691 0)
(0.400952 -0.00125426 0)
(0.401178 -0.00155286 0)
(0.401447 -0.00191542 0)
(0.401768 -0.00235769 0)
(0.402151 -0.00289895 0)
(0.40261 -0.00356271 0)
(0.403163 -0.0043776 0)
(0.40383 -0.00537854 0)
(0.404636 -0.00660845 0)
(0.405612 -0.00812041 0)
(0.406794 -0.00998021 0)
(0.408229 -0.0122696 0)
(0.409973 -0.015091 0)
(0.412099 -0.0185727 0)
(0.414691 -0.0228769 0)
(0.417883 -0.0282049 0)
(0.421756 -0.0348184 0)
(0.426732 -0.0430213 0)
(0.432385 -0.0532897 0)
(0.441489 -0.0658797 0)
(0.400003 -1.84427e-05 0)
(0.400016 -6.26842e-05 0)
(0.400045 -0.000122346 0)
(0.400091 -0.00019848 0)
(0.400149 -0.000291531 0)
(0.40022 -0.000402364 0)
(0.400305 -0.000533334 0)
(0.400406 -0.000688221 0)
(0.400525 -0.000871976 0)
(0.400665 -0.00109097 0)
(0.40083 -0.00135351 0)
(0.401024 -0.00167032 0)
(0.401253 -0.00205489 0)
(0.401525 -0.00252388 0)
(0.401849 -0.0030977 0)
(0.402236 -0.00380119 0)
(0.4027 -0.00466452 0)
(0.403257 -0.00572448 0)
(0.403929 -0.00702621 0)
(0.404739 -0.00862548 0)
(0.405717 -0.0105915 0)
(0.4069 -0.0130106 0)
(0.408331 -0.0159908 0)
(0.410069 -0.0196675 0)
(0.412177 -0.0242125 0)
(0.414763 -0.0298402 0)
(0.417879 -0.0368296 0)
(0.421887 -0.0455229 0)
(0.426362 -0.0563902 0)
(0.433846 -0.0700065 0)
(0.400002 -2.2151e-05 0)
(0.400013 -7.37893e-05 0)
(0.400039 -0.00014043 0)
(0.400079 -0.000222893 0)
(0.400129 -0.000322038 0)
(0.400191 -0.000439312 0)
(0.400264 -0.000577371 0)
(0.400349 -0.000740172 0)
(0.40045 -0.000932927 0)
(0.400567 -0.00116238 0)
(0.400704 -0.00143729 0)
(0.400864 -0.00176887 0)
(0.401052 -0.00217121 0)
(0.401273 -0.00266171 0)
(0.401534 -0.00326166 0)
(0.401845 -0.00399693 0)
(0.402215 -0.0048989 0)
(0.402658 -0.00600579 0)
(0.403189 -0.00736441 0)
(0.403825 -0.00903258 0)
(0.40459 -0.0110821 0)
(0.405508 -0.0136024 0)
(0.406613 -0.0167056 0)
(0.407944 -0.0205324 0)
(0.409546 -0.0252609 0)
(0.411494 -0.0311153 0)
(0.413814 -0.0383871 0)
(0.416792 -0.0474493 0)
(0.420013 -0.0587637 0)
(0.425695 -0.0731908 0)
(0.400002 -2.5317e-05 0)
(0.400012 -8.33278e-05 0)
(0.400034 -0.000156011 0)
(0.400067 -0.000243938 0)
(0.40011 -0.000348213 0)
(0.400162 -0.000470724 0)
(0.400223 -0.000614424 0)
(0.400293 -0.000783428 0)
(0.400375 -0.000983142 0)
(0.400468 -0.0012206 0)
(0.400576 -0.00150489 0)
(0.400701 -0.00184765 0)
(0.400845 -0.00226339 0)
(0.401013 -0.00277006 0)
(0.40121 -0.00338958 0)
(0.401442 -0.00414857 0)
(0.401715 -0.00507925 0)
(0.40204 -0.0062208 0)
(0.402424 -0.00762116 0)
(0.402882 -0.00933946 0)
(0.403425 -0.0114491 0)
(0.404071 -0.0140414 0)
(0.404839 -0.0172308 0)
(0.405751 -0.0211609 0)
(0.40683 -0.0260133 0)
(0.40812 -0.0320177 0)
(0.409617 -0.0394724 0)
(0.411519 -0.0487711 0)
(0.413435 -0.0603636 0)
(0.417167 -0.075347 0)
(0.400002 -2.80203e-05 0)
(0.40001 -9.14612e-05 0)
(0.400028 -0.000169244 0)
(0.400057 -0.000261699 0)
(0.400092 -0.000370053 0)
(0.400134 -0.000496528 0)
(0.400183 -0.000644336 0)
(0.400237 -0.000817738 0)
(0.400299 -0.00102228 0)
(0.400369 -0.00126519 0)
(0.400447 -0.00155582 0)
(0.400535 -0.00190604 0)
(0.400635 -0.00233068 0)
(0.400749 -0.00284802 0)
(0.40088 -0.00348035 0)
(0.401031 -0.00425474 0)
(0.401205 -0.00520387 0)
(0.401408 -0.00636743 0)
(0.401644 -0.00779389 0)
(0.401918 -0.00954296 0)
(0.402237 -0.0116886 0)
(0.402606 -0.014323 0)
(0.40303 -0.017561 0)
(0.403517 -0.0215465 0)
(0.404066 -0.0264619 0)
(0.404687 -0.0325372 0)
(0.405348 -0.0400711 0)
(0.406151 -0.0494669 0)
(0.406736 -0.0611558 0)
(0.408417 -0.0764085 0)
(0.400002 -3.03199e-05 0)
(0.400008 -9.83319e-05 0)
(0.400024 -0.000180291 0)
(0.400047 -0.000276283 0)
(0.400075 -0.00038759 0)
(0.400108 -0.00051669 0)
(0.400144 -0.000667023 0)
(0.400183 -0.000842966 0)
(0.400225 -0.00105014 0)
(0.40027 -0.0012959 0)
(0.400318 -0.00158974 0)
(0.400369 -0.00194365 0)
(0.400424 -0.0023726 0)
(0.400483 -0.002895 0)
(0.400547 -0.00353328 0)
(0.400616 -0.00431462 0)
(0.40069 -0.00527182 0)
(0.40077 -0.0064446 0)
(0.400856 -0.00788141 0)
(0.400946 -0.00964182 0)
(0.401038 -0.0117995 0)
(0.401128 -0.0144458 0)
(0.401208 -0.0176946 0)
(0.401268 -0.0216879 0)
(0.401287 -0.026605 0)
(0.401242 -0.0326718 0)
(0.401068 -0.0401803 0)
(0.400772 -0.0495307 0)
(0.400029 -0.061127 0)
(0.399622 -0.0763402 0)
(0.400001 -3.2267e-05 0)
(0.400007 -0.000104076 0)
(0.40002 -0.000189315 0)
(0.400038 -0.00028782 0)
(0.40006 -0.000400899 0)
(0.400083 -0.000531243 0)
(0.400106 -0.000682486 0)
(0.400129 -0.000859079 0)
(0.400151 -0.00106667 0)
(0.400172 -0.00131264 0)
(0.400189 -0.00160652 0)
(0.400204 -0.00196031 0)
(0.400214 -0.00238895 0)
(0.400218 -0.00291076 0)
(0.400214 -0.00354808 0)
(0.400201 -0.00432792 0)
(0.400175 -0.0052828 0)
(0.400133 -0.00645204 0)
(0.400068 -0.00788349 0)
(0.399975 -0.00963587 0)
(0.399841 -0.0117815 0)
(0.399655 -0.01441 0)
(0.399395 -0.0176324 0)
(0.399034 -0.0215865 0)
(0.398531 -0.0264453 0)
(0.39783 -0.0324259 0)
(0.396841 -0.039806 0)
(0.395472 -0.0489704 0)
(0.393433 -0.0602855 0)
(0.390971 -0.0751431 0)
(0.400001 -3.39127e-05 0)
(0.400006 -0.000108834 0)
(0.400016 -0.000196498 0)
(0.40003 -0.000296477 0)
(0.400045 -0.000410105 0)
(0.400059 -0.000540282 0)
(0.40007 -0.000690802 0)
(0.400078 -0.000866139 0)
(0.40008 -0.0010719 0)
(0.400076 -0.00131543 0)
(0.400064 -0.00160619 0)
(0.400042 -0.00195606 0)
(0.400007 -0.00237978 0)
(0.399956 -0.00289541 0)
(0.399886 -0.00352493 0)
(0.399792 -0.00429487 0)
(0.399667 -0.00523713 0)
(0.399503 -0.00639021 0)
(0.399291 -0.00780084 0)
(0.399016 -0.00952615 0)
(0.398661 -0.0116364 0)
(0.398203 -0.0142181 0)
(0.39761 -0.0173779 0)
(0.396839 -0.0212475 0)
(0.39583 -0.0259905 0)
(0.394498 -0.0318106 0)
(0.392726 -0.0389648 0)
(0.390334 -0.0478094 0)
(0.387066 -0.0586637 0)
(0.382655 -0.0728594 0)
(0.400001 -3.53135e-05 0)
(0.400005 -0.000112767 0)
(0.400013 -0.000202049 0)
(0.400023 -0.000302453 0)
(0.400032 -0.000415378 0)
(0.400037 -0.00054396 0)
(0.400037 -0.000692125 0)
(0.400029 -0.000864307 0)
(0.400012 -0.00106601 0)
(0.399984 -0.00130447 0)
(0.399943 -0.00158899 0)
(0.399885 -0.00193118 0)
(0.399806 -0.00234544 0)
(0.399702 -0.00284936 0)
(0.399566 -0.00346435 0)
(0.399392 -0.00421617 0)
(0.39917 -0.00513577 0)
(0.398889 -0.00626038 0)
(0.398532 -0.00763511 0)
(0.39808 -0.00931493 0)
(0.39751 -0.0113671 0)
(0.396789 -0.0138742 0)
(0.395875 -0.0169371 0)
(0.39471 -0.0206794 0)
(0.393218 -0.0252527 0)
(0.391287 -0.0308436 0)
(0.388779 -0.0376823 0)
(0.385437 -0.0460857 0)
(0.381037 -0.056317 0)
(0.374857 -0.0695732 0)
(0.400001 -3.65373e-05 0)
(0.400004 -0.000116068 0)
(0.400011 -0.000206219 0)
(0.400018 -0.000305988 0)
(0.400021 -0.000416929 0)
(0.400018 -0.000542486 0)
(0.400006 -0.000686682 0)
(0.399983 -0.000853836 0)
(0.399948 -0.00104929 0)
(0.399897 -0.0012801 0)
(0.399827 -0.00155532 0)
(0.399734 -0.00188618 0)
(0.399613 -0.00228656 0)
(0.399456 -0.00277341 0)
(0.399258 -0.00336731 0)
(0.399007 -0.00409303 0)
(0.398691 -0.00498022 0)
(0.398295 -0.00606449 0)
(0.397799 -0.00738883 0)
(0.397178 -0.0090055 0)
(0.396401 -0.0109781 0)
(0.395428 -0.0133842 0)
(0.394207 -0.016318 0)
(0.392669 -0.0198934 0)
(0.390723 -0.0242479 0)
(0.388236 -0.0295481 0)
(0.38505 -0.0359926 0)
(0.380851 -0.0438504 0)
(0.375441 -0.0533222 0)
(0.367735 -0.0654075 0)
(0.400001 -3.76718e-05 0)
(0.400004 -0.00011898 0)
(0.40001 -0.000209307 0)
(0.400014 -0.000307357 0)
(0.400012 -0.000415013 0)
(0.400001 -0.000536134 0)
(0.399978 -0.00067478 0)
(0.399942 -0.000835063 0)
(0.399889 -0.00102213 0)
(0.399816 -0.0012428 0)
(0.399719 -0.00150576 0)
(0.399592 -0.00182176 0)
(0.39943 -0.002204 0)
(0.399224 -0.00266862 0)
(0.398965 -0.00323519 0)
(0.39864 -0.00392717 0)
(0.398234 -0.00477264 0)
(0.397729 -0.00580522 0)
(0.3971 -0.00706541 0)
(0.396318 -0.00860221 0)
(0.395345 -0.010475 0)
(0.394134 -0.0127557 0)
(0.392626 -0.0155307 0)
(0.390739 -0.0189033 0)
(0.388373 -0.0229956 0)
(0.385377 -0.0279518 0)
(0.381582 -0.0339366 0)
(0.376634 -0.0411649 0)
(0.370356 -0.0497725 0)
(0.36141 -0.0605165 0)
(0.400001 -3.88351e-05 0)
(0.400004 -0.000121823 0)
(0.40001 -0.000211676 0)
(0.400012 -0.000306874 0)
(0.400006 -0.000409922 0)
(0.399988 -0.000525218 0)
(0.399955 -0.000656792 0)
(0.399906 -0.000808439 0)
(0.399836 -0.000985038 0)
(0.399742 -0.00119315 0)
(0.399619 -0.00144103 0)
(0.39946 -0.00173881 0)
(0.399259 -0.00209887 0)
(0.399006 -0.00253638 0)
(0.39869 -0.00306967 0)
(0.398296 -0.0037207 0)
(0.397805 -0.00451571 0)
(0.397197 -0.00548601 0)
(0.396443 -0.0066692 0)
(0.395509 -0.00811063 0)
(0.394353 -0.00986495 0)
(0.392921 -0.0119978 0)
(0.391145 -0.0145873 0)
(0.388939 -0.0177252 0)
(0.386189 -0.0215178 0)
(0.382739 -0.0260859 0)
(0.378408 -0.0315596 0)
(0.372825 -0.0380974 0)
(0.365833 -0.0457723 0)
(0.355961 -0.0550746 0)
(0.400001 -4.01976e-05 0)
(0.400005 -0.000125043 0)
(0.400012 -0.000213761 0)
(0.400013 -0.000304794 0)
(0.400003 -0.000401924 0)
(0.399979 -0.000510175 0)
(0.399937 -0.000633224 0)
(0.399875 -0.000774496 0)
(0.39979 -0.000938678 0)
(0.399676 -0.001132 0)
(0.399529 -0.00136213 0)
(0.399341 -0.00163845 0)
(0.399104 -0.00197245 0)
(0.398807 -0.00237813 0)
(0.398437 -0.00287243 0)
(0.397978 -0.00347562 0)
(0.397409 -0.00421183 0)
(0.396705 -0.00510982 0)
(0.395835 -0.006204 0)
(0.394761 -0.00753568 0)
(0.393436 -0.00915441 0)
(0.3918 -0.0111192 0)
(0.389781 -0.0134995 0)
(0.387284 -0.0163756 0)
(0.384192 -0.0198374 0)
(0.380342 -0.0239831 0)
(0.375552 -0.0289089 0)
(0.369451 -0.0347186 0)
(0.361902 -0.0414295 0)
(0.351414 -0.0492632 0)
(0.400001 -4.20231e-05 0)
(0.400007 -0.000129235 0)
(0.400016 -0.000216077 0)
(0.400018 -0.000301564 0)
(0.400005 -0.000391443 0)
(0.399974 -0.000491327 0)
(0.399924 -0.000604351 0)
(0.399851 -0.000733602 0)
(0.399752 -0.000883616 0)
(0.399621 -0.0010602 0)
(0.399451 -0.00127032 0)
(0.399236 -0.00152251 0)
(0.398965 -0.00182725 0)
(0.398628 -0.00219724 0)
(0.398209 -0.00264783 0)
(0.397691 -0.00319734 0)
(0.39705 -0.00386756 0)
(0.396258 -0.00468442 0)
(0.395282 -0.00567886 0)
(0.394081 -0.00688791 0)
(0.392602 -0.00835568 0)
(0.390783 -0.0101344 0)
(0.388544 -0.0122846 0)
(0.385789 -0.0148752 0)
(0.382396 -0.0179809 0)
(0.378203 -0.0216782 0)
(0.373029 -0.0260328 0)
(0.366521 -0.0310982 0)
(0.358564 -0.0368483 0)
(0.347747 -0.043256 0)
(0.400002 -4.46816e-05 0)
(0.400011 -0.000135234 0)
(0.400024 -0.000219152 0)
(0.400028 -0.000297581 0)
(0.400013 -0.0003791 0)
(0.399976 -0.000469448 0)
(0.399919 -0.000570946 0)
(0.399836 -0.000686343 0)
(0.399724 -0.000820021 0)
(0.399576 -0.000977328 0)
(0.399386 -0.0011645 0)
(0.399147 -0.00138918 0)
(0.398846 -0.00166073 0)
(0.398473 -0.00199045 0)
(0.39801 -0.00239197 0)
(0.397438 -0.00288158 0)
(0.396732 -0.00347857 0)
(0.395862 -0.00420587 0)
(0.394792 -0.00509073 0)
(0.393476 -0.00616564 0)
(0.391861 -0.00746913 0)
(0.389878 -0.00904644 0)
(0.387447 -0.0109496 0)
(0.384465 -0.0132363 0)
(0.380813 -0.0159676 0)
(0.37633 -0.0192001 0)
(0.370844 -0.0229735 0)
(0.364031 -0.0272985 0)
(0.355797 -0.032121 0)
(0.344892 -0.0372048 0)
(0.400003 -4.91985e-05 0)
(0.400017 -0.000144201 0)
(0.400037 -0.000223168 0)
(0.400044 -0.000292414 0)
(0.400027 -0.00036473 0)
(0.399986 -0.000445326 0)
(0.399922 -0.000535186 0)
(0.399831 -0.000636628 0)
(0.399708 -0.00075383 0)
(0.399546 -0.000891522 0)
(0.399339 -0.0010551 0)
(0.399077 -0.00125126 0)
(0.398751 -0.00148804 0)
(0.398345 -0.00177519 0)
(0.397844 -0.00212449 0)
(0.397225 -0.00254998 0)
(0.396462 -0.00306827 0)
(0.395523 -0.0036991 0)
(0.39437 -0.00446586 0)
(0.392955 -0.00539635 0)
(0.39122 -0.00652334 0)
(0.389096 -0.00788512 0)
(0.386498 -0.00952525 0)
(0.383323 -0.0114914 0)
(0.37945 -0.0138325 0)
(0.374729 -0.0165884 0)
(0.368996 -0.0197773 0)
(0.361964 -0.0233771 0)
(0.353561 -0.027326 0)
(0.342752 -0.031231 0)
(0.400006 -5.67414e-05 0)
(0.400029 -0.000158339 0)
(0.400059 -0.000229794 0)
(0.400069 -0.000286449 0)
(0.400049 -0.000345923 0)
(0.400004 -0.000412599 0)
(0.399935 -0.000486704 0)
(0.399838 -0.000570398 0)
(0.399705 -0.000667533 0)
(0.39953 -0.000781867 0)
(0.399308 -0.000917987 0)
(0.399028 -0.00108178 0)
(0.398679 -0.00127991 0)
(0.398247 -0.00152039 0)
(0.397712 -0.00181303 0)
(0.397053 -0.00216953 0)
(0.396242 -0.00260373 0)
(0.395245 -0.003132 0)
(0.394022 -0.00377374 0)
(0.392523 -0.00455193 0)
(0.390688 -0.00549356 0)
(0.388444 -0.00663002 0)
(0.385707 -0.00799675 0)
(0.382371 -0.00963225 0)
(0.378318 -0.0115763 0)
(0.373408 -0.0138533 0)
(0.367491 -0.0164656 0)
(0.36032 -0.0193665 0)
(0.351848 -0.0225152 0)
(0.341281 -0.0254184 0)
(0.40001 -6.89967e-05 0)
(0.400048 -0.000178368 0)
(0.400094 -0.00024346 0)
(0.400109 -0.000293378 0)
(0.400088 -0.000345596 0)
(0.40004 -0.000401785 0)
(0.399967 -0.000462591 0)
(0.399863 -0.000530611 0)
(0.399722 -0.000609518 0)
(0.399538 -0.000701885 0)
(0.399304 -0.000811028 0)
(0.399009 -0.000942014 0)
(0.398641 -0.00110032 0)
(0.398187 -0.00129232 0)
(0.397625 -0.00152572 0)
(0.396934 -0.00180972 0)
(0.396084 -0.00215526 0)
(0.395041 -0.0025753 0)
(0.393762 -0.00308512 0)
(0.392196 -0.0037028 0)
(0.390283 -0.00444943 0)
(0.387947 -0.00534953 0)
(0.385103 -0.00643051 0)
(0.381646 -0.0077232 0)
(0.377465 -0.00926395 0)
(0.372434 -0.0110636 0)
(0.366425 -0.0131116 0)
(0.359217 -0.0153397 0)
(0.350798 -0.0177611 0)
(0.34057 -0.0198164 0)
(0.400017 -9.42971e-05 0)
(0.400079 -0.000186639 0)
(0.400142 -0.000221666 0)
(0.40016 -0.000254421 0)
(0.400138 -0.000293457 0)
(0.400089 -0.000334516 0)
(0.400014 -0.000377967 0)
(0.399906 -0.000427018 0)
(0.399759 -0.000484109 0)
(0.399568 -0.000551953 0)
(0.399324 -0.000633297 0)
(0.399018 -0.000730726 0)
(0.398637 -0.000848041 0)
(0.398166 -0.000990137 0)
(0.397586 -0.00116273 0)
(0.396871 -0.0013725 0)
(0.395993 -0.00162739 0)
(0.394917 -0.00193679 0)
(0.3936 -0.00231189 0)
(0.39199 -0.0027659 0)
(0.390027 -0.00331422 0)
(0.387639 -0.00397491 0)
(0.38474 -0.00476724 0)
(0.381231 -0.00571415 0)
(0.377015 -0.00685617 0)
(0.37196 -0.00819807 0)
(0.365957 -0.00971607 0)
(0.358759 -0.0113206 0)
(0.350476 -0.0130867 0)
(0.34023 -0.0142753 0)
(0.400026 -0.000160239 0)
(0.400182 -0.000312347 0)
(0.400253 -0.000305876 0)
(0.400238 -0.00031673 0)
(0.400196 -0.000339314 0)
(0.400132 -0.000363364 0)
(0.400039 -0.000390497 0)
(0.399911 -0.00041985 0)
(0.399741 -0.000457407 0)
(0.399524 -0.000497271 0)
(0.39925 -0.000544451 0)
(0.39891 -0.000604921 0)
(0.39849 -0.000678436 0)
(0.397973 -0.000767826 0)
(0.39734 -0.000876725 0)
(0.396565 -0.00100944 0)
(0.39562 -0.00117116 0)
(0.39447 -0.00136812 0)
(0.393072 -0.00160774 0)
(0.391377 -0.00189877 0)
(0.389322 -0.0022515 0)
(0.386839 -0.00267784 0)
(0.383838 -0.00319085 0)
(0.380227 -0.00380435 0)
(0.375875 -0.00453173 0)
(0.37044 -0.00537729 0)
(0.363989 -0.00633387 0)
(0.356229 -0.00732936 0)
(0.34763 -0.00848744 0)
(0.335583 -0.00847802 0)
(0.399647 -0.000110946 0)
(0.399355 -0.000187077 0)
(0.398902 -0.000203249 0)
(0.398368 -0.000212744 0)
(0.39781 -0.000224186 0)
(0.397232 -0.000235256 0)
(0.396622 -0.000245878 0)
(0.395974 -0.00025749 0)
(0.395281 -0.000270358 0)
(0.394537 -0.000286154 0)
(0.393732 -0.000305733 0)
(0.392855 -0.000328623 0)
(0.391888 -0.000355515 0)
(0.390813 -0.000387838 0)
(0.389606 -0.000427182 0)
(0.388237 -0.000475294 0)
(0.386671 -0.000534198 0)
(0.384863 -0.000606326 0)
(0.382761 -0.000694632 0)
(0.3803 -0.000802654 0)
(0.377401 -0.000934623 0)
(0.373973 -0.00109516 0)
(0.369903 -0.00129011 0)
(0.365065 -0.00152434 0)
(0.359333 -0.00178896 0)
(0.352575 -0.00208436 0)
(0.344637 -0.0024251 0)
(0.335359 -0.00276287 0)
(0.324876 -0.00327842 0)
(0.3091 -0.00265521 0)
(0.480175 -0.00763044 7.21906e-21)
(0.486703 -0.0117686 -1.48353e-17)
(0.492658 -0.0165462 1.4916e-17)
(0.497528 -0.0218519 7.50422e-18)
(0.501794 -0.0275974 5.67124e-18)
(0.505742 -0.0337526 1.14409e-17)
(0.509456 -0.040347 5.75832e-18)
(0.512992 -0.0474388 1.55083e-17)
(0.51642 -0.0550788 7.83081e-18)
(0.519787 -0.0633022 3.94031e-18)
(0.523105 -0.0721393 -3.98643e-18)
(0.526362 -0.0816257 8.02819e-18)
(0.529544 -0.0918076 4.07646e-18)
(0.53264 -0.102744 4.10669e-18)
(0.535646 -0.114511 8.28956e-18)
(0.53857 -0.127198 4.20436e-18)
(0.541419 -0.140919 1.26788e-17)
(0.544206 -0.15581 0)
(0.546946 -0.172039 0)
(0.549658 -0.189816 4.31789e-18)
(0.552365 -0.2094 -2.61951e-20)
(0.555095 -0.231122 4.41366e-18)
(0.55789 -0.25539 0)
(0.560756 -0.282777 8.82011e-18)
(0.563894 -0.313826 4.392e-18)
(0.566693 -0.350061 -4.45534e-18)
(0.5718 -0.390047 4.37041e-18)
(0.569727 -0.446768 4.3487e-18)
(0.589227 -0.480953 1.25536e-17)
(0.551603 -0.616079 -4.00202e-18)
(0.486483 -0.0167217 -7.45335e-18)
(0.490731 -0.0210246 8.44059e-18)
(0.494314 -0.0262063 -8.5094e-18)
(0.497288 -0.0318242 0)
(0.500081 -0.0377786 -7.71383e-18)
(0.502894 -0.0441155 -7.77264e-18)
(0.505727 -0.0509079 -1.96173e-18)
(0.508556 -0.0582021 -1.38754e-17)
(0.511371 -0.0660188 -7.99779e-18)
(0.514147 -0.0743756 -8.09954e-18)
(0.51685 -0.0833023 4.08078e-18)
(0.519444 -0.0928428 -4.133e-18)
(0.521911 -0.103053 -8.32797e-18)
(0.524242 -0.113999 -8.41656e-18)
(0.526437 -0.12576 -8.5072e-18)
(0.528492 -0.138429 -8.59947e-18)
(0.530405 -0.15212 -1.74306e-17)
(0.53217 -0.166968 4.39593e-18)
(0.533779 -0.183141 -4.46324e-18)
(0.535226 -0.200845 -1.35175e-17)
(0.536497 -0.220335 2.94331e-20)
(0.537578 -0.24193 -4.24788e-20)
(0.538446 -0.266028 -4.3193e-20)
(0.539053 -0.29316 -1.40339e-17)
(0.539415 -0.323878 -9.40437e-18)
(0.539066 -0.35947 -4.62761e-18)
(0.539558 -0.399173 1.16637e-19)
(0.533677 -0.452413 -1.05742e-19)
(0.545399 -0.49035 -1.3632e-17)
(0.502442 -0.614538 0)
(0.483985 -0.0251585 0)
(0.486934 -0.0294393 0)
(0.489589 -0.0346202 0)
(0.492146 -0.0402808 -9.74265e-19)
(0.494733 -0.0463089 8.85761e-18)
(0.497346 -0.0527291 -1.98741e-18)
(0.499919 -0.0595811 2.01108e-18)
(0.502402 -0.0668869 8.11295e-18)
(0.50477 -0.0746689 -2.05018e-18)
(0.507009 -0.0829628 1.03639e-17)
(0.509103 -0.0918166 4.19135e-18)
(0.511043 -0.101283 -4.24824e-18)
(0.512823 -0.111421 4.28857e-18)
(0.514438 -0.122294 -4.35005e-18)
(0.515877 -0.133979 -8.8166e-18)
(0.517121 -0.146567 8.92704e-18)
(0.518153 -0.16017 8.99212e-18)
(0.518947 -0.174922 0)
(0.519475 -0.190987 0)
(0.519703 -0.208565 9.32415e-18)
(0.519585 -0.227905 0)
(0.519063 -0.24931 1.43891e-17)
(0.518054 -0.273161 4.85912e-18)
(0.516451 -0.299948 9.72485e-18)
(0.51413 -0.330223 1.46928e-17)
(0.510659 -0.365046 5.00399e-18)
(0.506847 -0.404173 0)
(0.497256 -0.454306 1.98398e-17)
(0.500422 -0.495209 0)
(0.454201 -0.607686 9.62976e-18)
(0.481218 -0.0338611 0)
(0.483639 -0.038337 0)
(0.485822 -0.0436146 0)
(0.488033 -0.0493184 -7.97356e-18)
(0.49024 -0.0553604 0)
(0.492354 -0.0617705 0)
(0.494338 -0.0685936 0)
(0.496189 -0.0758621 8.33535e-18)
(0.497908 -0.0836077 0)
(0.49949 -0.0918679 0)
(0.500921 -0.100685 0)
(0.502186 -0.110105 -8.75359e-18)
(0.503267 -0.12018 -8.86791e-18)
(0.504142 -0.130973 -4.47776e-18)
(0.504785 -0.142559 -3.41625e-20)
(0.505168 -0.15503 -9.17544e-18)
(0.505258 -0.168496 1.29365e-20)
(0.505015 -0.183088 1.42442e-17)
(0.504393 -0.198963 4.79412e-18)
(0.503331 -0.216312 -4.88141e-18)
(0.501752 -0.235369 -4.92951e-18)
(0.499558 -0.256418 -4.95472e-18)
(0.496613 -0.279814 -5.06373e-18)
(0.492755 -0.305996 1.55348e-17)
(0.487741 -0.335494 0)
(0.481174 -0.369155 -1.58689e-17)
(0.473246 -0.407077 -5.36637e-18)
(0.46001 -0.454051 2.46112e-19)
(0.455023 -0.495724 -1.6205e-17)
(0.406625 -0.596361 5.5416e-19)
(0.477465 -0.0421693 0)
(0.479341 -0.0466984 7.96844e-18)
(0.480956 -0.0519524 -1.00586e-18)
(0.482667 -0.0576232 1.73062e-17)
(0.484376 -0.0636494 0)
(0.485958 -0.0700557 0)
(0.487391 -0.076875 8.44879e-18)
(0.488691 -0.0841313 -8.52858e-18)
(0.489851 -0.0918494 0)
(0.490851 -0.100062 0)
(0.491668 -0.108809 0)
(0.492277 -0.118138 8.98483e-18)
(0.492655 -0.128102 9.11012e-18)
(0.492775 -0.138766 -4.62667e-18)
(0.492604 -0.150205 1.40792e-17)
(0.492107 -0.162508 0)
(0.491238 -0.175778 9.72058e-18)
(0.489944 -0.19014 -1.47745e-17)
(0.488156 -0.205742 -5.00822e-18)
(0.485791 -0.22276 0)
(0.482743 -0.241412 0)
(0.478877 -0.261956 0)
(0.474013 -0.284715 0)
(0.467937 -0.310076 -5.39513e-18)
(0.460316 -0.338524 -5.55305e-18)
(0.450766 -0.370724 5.57047e-18)
(0.438992 -0.407 5.75174e-18)
(0.422282 -0.450641 -1.1472e-17)
(0.409701 -0.491772 1.16436e-17)
(0.359995 -0.580881 -1.14888e-17)
(0.472824 -0.0500823 -8.04425e-18)
(0.474198 -0.0546714 -7.61541e-18)
(0.475291 -0.0599399 -1.54322e-18)
(0.476532 -0.0656145 -6.23986e-18)
(0.477776 -0.0716387 -1.09058e-21)
(0.478861 -0.078028 -3.20363e-18)
(0.479767 -0.0848087 3.00265e-20)
(0.480515 -0.0920041 -8.78695e-18)
(0.481096 -0.0996418 -6.68693e-18)
(0.481483 -0.107757 9.03925e-18)
(0.48165 -0.11639 0)
(0.481572 -0.125588 1.16316e-17)
(0.481222 -0.135404 -1.18149e-17)
(0.480566 -0.145898 -9.60667e-18)
(0.479565 -0.15714 1.46291e-17)
(0.478171 -0.169213 -1.48834e-17)
(0.476325 -0.182214 -5.00789e-18)
(0.47396 -0.196259 -5.2004e-18)
(0.470989 -0.211483 -5.2107e-18)
(0.467308 -0.228049 1.5996e-17)
(0.462784 -0.24615 0)
(0.457253 -0.266019 5.51398e-18)
(0.450496 -0.287937 -1.1273e-17)
(0.442256 -0.312238 1.1616e-17)
(0.43213 -0.339346 5.89815e-18)
(0.419739 -0.369773 1.21221e-17)
(0.404415 -0.403954 0)
(0.384454 -0.444013 1.27223e-17)
(0.365037 -0.483421 0)
(0.314938 -0.561347 -1.32601e-17)
(0.467303 -0.0575232 8.20077e-18)
(0.468189 -0.0621495 4.16294e-18)
(0.46877 -0.0674054 -4.21882e-18)
(0.469533 -0.0730454 3.20819e-18)
(0.470297 -0.079021 9.06047e-22)
(0.470871 -0.0853473 8.68881e-22)
(0.471235 -0.0920498 -7.76615e-18)
(0.471419 -0.0991525 2.2314e-18)
(0.471413 -0.106682 1.37174e-17)
(0.471187 -0.114673 -1.1603e-17)
(0.470708 -0.123162 2.35975e-18)
(0.469947 -0.132192 -1.1974e-17)
(0.468871 -0.141813 9.73208e-18)
(0.46744 -0.152082 9.89775e-18)
(0.465604 -0.163063 -5.0058e-18)
(0.463307 -0.174834 1.02538e-17)
(0.460481 -0.187484 0)
(0.457043 -0.201117 5.30864e-18)
(0.452892 -0.215855 5.45514e-18)
(0.447906 -0.231841 -1.1085e-17)
(0.441931 -0.249245 0)
(0.434775 -0.268266 -5.80907e-18)
(0.426189 -0.289145 1.85352e-20)
(0.415884 -0.312158 -1.211e-17)
(0.403403 -0.337659 1.25258e-17)
(0.388369 -0.366027 -1.92307e-17)
(0.369848 -0.397718 0)
(0.346934 -0.433978 -1.34152e-17)
(0.321574 -0.470729 1.14258e-19)
(0.27183 -0.537947 1.43563e-17)
(0.460917 -0.0643834 4.20336e-18)
(0.461324 -0.0690237 -3.71769e-18)
(0.461406 -0.0742419 3.77009e-18)
(0.461694 -0.0798216 -8.75397e-18)
(0.46198 -0.0857227 -4.44705e-18)
(0.462046 -0.0919596 -1.12581e-18)
(0.461876 -0.0985556 4.58267e-18)
(0.461503 -0.105533 1.04504e-17)
(0.460916 -0.112917 4.7291e-18)
(0.460079 -0.120739 -2.39741e-18)