/*--------------------------------*- C++ -*----------------------------------*\
  =========                 |
  \\      /  F ield         | OpenFOAM: The Open Source CFD Toolbox
   \\    /   O peration     | Website:  https://openfoam.org
    \\  /    A nd           | Version:  11
     \\/     M anipulation  |
\*---------------------------------------------------------------------------*/
FoamFile
{
    format      ascii;
    class       volScalarField;
    location    "9.4";
    object      p;
}
// * * * * * * * * * * * * * * * * * * * * * * * * * * * * * * * * * * * * * //

dimensions      [0 2 -2 0 0 0 0];

internalField   nonuniform List<scalar> 
12600
(
0.606768
0.606633
0.606565
0.606537
0.606508
0.606467
0.606418
0.606362
0.606298
0.606222
0.606131
0.606022
0.605893
0.605737
0.605548
0.605318
0.605037
0.604695
0.604274
0.603752
0.603112
0.60233
0.601358
0.600145
0.598627
0.596717
0.594303
0.59123
0.587337
0.582301
0.606696
0.606626
0.606568
0.606538
0.606507
0.606467
0.606419
0.606364
0.6063
0.606226
0.606136
0.606029
0.605901
0.605747
0.60556
0.605334
0.605058
0.604722
0.604309
0.60379
0.603158
0.602387
0.601431
0.600235
0.598737
0.596851
0.594464
0.591429
0.587542
0.582559
0.606664
0.606629
0.606579
0.606542
0.60651
0.606472
0.606426
0.606371
0.606309
0.606235
0.606147
0.606042
0.605917
0.605766
0.605583
0.605362
0.605092
0.604763
0.604357
0.603855
0.603241
0.602489
0.601555
0.600388
0.598924
0.597082
0.594745
0.591775
0.58793
0.583056
0.606643
0.60662
0.606579
0.606543
0.606511
0.606475
0.606431
0.606378
0.606317
0.606246
0.606161
0.606059
0.605938
0.605792
0.605615
0.605401
0.60514
0.604822
0.604432
0.603951
0.60336
0.602633
0.601732
0.600607
0.599197
0.597419
0.595159
0.592285
0.588537
0.583797
0.606629
0.606614
0.606582
0.606549
0.606518
0.606482
0.60644
0.60639
0.606331
0.606262
0.60618
0.606083
0.605967
0.605827
0.605658
0.605453
0.605204
0.604901
0.604529
0.604072
0.60351
0.602819
0.601961
0.600892
0.599549
0.597856
0.595699
0.592952
0.589345
0.584789
0.606621
0.606609
0.606584
0.606554
0.606523
0.606489
0.606449
0.606401
0.606346
0.60628
0.606203
0.60611
0.606
0.605868
0.605708
0.605515
0.605281
0.604996
0.604646
0.604218
0.603691
0.603043
0.602239
0.601236
0.599977
0.598388
0.596359
0.59377
0.590348
0.586022
0.606616
0.606608
0.606587
0.60656
0.606531
0.606499
0.606461
0.606416
0.606364
0.606302
0.60623
0.606143
0.60604
0.605917
0.605768
0.605589
0.605372
0.605107
0.604784
0.604388
0.603902
0.603303
0.602562
0.601637
0.600476
0.599009
0.597132
0.594732
0.591536
0.587489
0.606615
0.606608
0.606591
0.606567
0.60654
0.60651
0.606475
0.606433
0.606384
0.606327
0.60626
0.60618
0.606085
0.605972
0.605836
0.605672
0.605473
0.605232
0.604939
0.604579
0.604139
0.603596
0.602925
0.602088
0.601038
0.59971
0.598008
0.595827
0.592897
0.589179
0.606616
0.60661
0.606596
0.606575
0.60655
0.606522
0.606489
0.606451
0.606406
0.606354
0.606293
0.606221
0.606135
0.606033
0.60591
0.605763
0.605586
0.605371
0.605109
0.60479
0.604399
0.603919
0.603325
0.602585
0.601657
0.600484
0.598976
0.59704
0.594417
0.591079
0.60662
0.606615
0.606602
0.606583
0.606561
0.606536
0.606506
0.606471
0.606431
0.606384
0.606329
0.606265
0.606189
0.606099
0.605991
0.605863
0.605708
0.605521
0.605294
0.605017
0.60468
0.604266
0.603755
0.60312
0.602324
0.601318
0.600023
0.598356
0.596077
0.593166
0.606625
0.606621
0.60661
0.606593
0.606573
0.60655
0.606524
0.606493
0.606457
0.606416
0.606368
0.606312
0.606246
0.606169
0.606078
0.605968
0.605837
0.60568
0.60549
0.605259
0.604978
0.604634
0.604211
0.603687
0.60303
0.602201
0.601133
0.599755
0.597853
0.595413
0.606632
0.606628
0.606618
0.606604
0.606586
0.606566
0.606542
0.606515
0.606485
0.606449
0.606409
0.606362
0.606307
0.606243
0.606168
0.606079
0.605973
0.605847
0.605695
0.605511
0.605289
0.605018
0.604686
0.604276
0.603765
0.60312
0.602289
0.601215
0.599716
0.597786
0.60664
0.606636
0.606628
0.606616
0.6066
0.606582
0.606562
0.606539
0.606513
0.606484
0.606451
0.606413
0.60637
0.60632
0.606262
0.606194
0.606114
0.60602
0.605907
0.605772
0.60561
0.605414
0.605175
0.604882
0.604518
0.604061
0.603473
0.602712
0.601634
0.60024
0.606649
0.606646
0.606639
0.606628
0.606615
0.606599
0.606582
0.606564
0.606543
0.60652
0.606494
0.606466
0.606434
0.606399
0.606358
0.606312
0.606258
0.606196
0.606123
0.606038
0.605936
0.605816
0.605671
0.605495
0.605279
0.605011
0.604665
0.60422
0.60357
0.602725
0.606659
0.606656
0.60665
0.606641
0.60663
0.606617
0.606603
0.606589
0.606573
0.606556
0.606539
0.60652
0.6065
0.606479
0.606456
0.606431
0.606404
0.606375
0.606342
0.606305
0.606265
0.606219
0.606167
0.606107
0.606037
0.605954
0.605847
0.605711
0.605484
0.605186
0.60667
0.606668
0.606662
0.606654
0.606645
0.606635
0.606624
0.606614
0.606603
0.606593
0.606583
0.606574
0.606566
0.606559
0.606554
0.606551
0.60655
0.606553
0.60656
0.606572
0.606591
0.606619
0.606658
0.606711
0.606783
0.606877
0.606999
0.607158
0.607336
0.607564
0.606682
0.60668
0.606675
0.606668
0.606661
0.606653
0.606646
0.606639
0.606633
0.606629
0.606627
0.606627
0.606631
0.606638
0.606651
0.606669
0.606694
0.606729
0.606775
0.606835
0.606912
0.607012
0.607138
0.6073
0.607505
0.607767
0.608103
0.608536
0.609088
0.609801
0.606694
0.606692
0.606688
0.606682
0.606676
0.606671
0.606667
0.606664
0.606663
0.606665
0.606671
0.60668
0.606695
0.606716
0.606746
0.606785
0.606836
0.606901
0.606985
0.607091
0.607225
0.607392
0.607602
0.607865
0.608196
0.608613
0.609143
0.609822
0.610704
0.611843
0.606707
0.606705
0.606702
0.606697
0.606692
0.606689
0.606687
0.606688
0.606692
0.6067
0.606713
0.606731
0.606757
0.606792
0.606838
0.606897
0.606973
0.607068
0.607188
0.607338
0.607525
0.607757
0.608045
0.608402
0.608847
0.609404
0.610106
0.610996
0.612156
0.613646
0.60672
0.606719
0.606715
0.606711
0.606707
0.606706
0.606707
0.606712
0.60672
0.606734
0.606753
0.606781
0.606817
0.606865
0.606927
0.607005
0.607104
0.607228
0.607382
0.607573
0.60781
0.608102
0.608462
0.608906
0.609454
0.610132
0.610981
0.612045
0.613424
0.615177
0.606734
0.606733
0.606729
0.606724
0.606722
0.606722
0.606726
0.606734
0.606747
0.606766
0.606792
0.606828
0.606874
0.606934
0.607011
0.607107
0.607228
0.607378
0.607564
0.607794
0.608077
0.608424
0.60885
0.609371
0.610009
0.610793
0.611761
0.612961
0.614496
0.616421
0.606749
0.606747
0.606743
0.606738
0.606736
0.606738
0.606744
0.606755
0.606772
0.606796
0.606828
0.606871
0.606927
0.606999
0.607089
0.607202
0.607343
0.607518
0.607734
0.607999
0.608324
0.608722
0.609206
0.609795
0.610512
0.611382
0.612444
0.613742
0.615371
0.617377
0.606764
0.606762
0.606756
0.60675
0.606749
0.606753
0.606761
0.606775
0.606795
0.606823
0.606862
0.606912
0.606976
0.607058
0.607161
0.607289
0.607449
0.607646
0.607889
0.608186
0.608549
0.608991
0.609527
0.610176
0.610958
0.611898
0.613031
0.61439
0.61606
0.618064
0.606781
0.606777
0.606769
0.606762
0.606761
0.606766
0.606777
0.606793
0.606816
0.606848
0.606892
0.606948
0.60702
0.607112
0.607226
0.607368
0.607545
0.607762
0.608029
0.608354
0.608751
0.609232
0.609813
0.610511
0.611348
0.612343
0.613524
0.614915
0.616579
0.618513
0.606799
0.606793
0.606781
0.606772
0.606772
0.606779
0.60679
0.606808
0.606834
0.60687
0.606918
0.60698
0.607059
0.607159
0.607283
0.607438
0.607629
0.607863
0.608151
0.608501
0.608927
0.609441
0.61006
0.610801
0.611681
0.612718
0.61393
0.615329
0.616954
0.61877
0.606818
0.606809
0.606792
0.606781
0.606782
0.60679
0.606802
0.606822
0.606851
0.60689
0.606942
0.607008
0.607093
0.6072
0.607333
0.607498
0.607701
0.607951
0.608256
0.608627
0.609077
0.60962
0.61027
0.611045
0.61196
0.613027
0.614257
0.615647
0.617214
0.618887
0.606842
0.606826
0.6068
0.606787
0.606789
0.606798
0.606811
0.606832
0.606863
0.606905
0.60696
0.60703
0.60712
0.607232
0.607373
0.607546
0.60776
0.608021
0.608341
0.608729
0.609199
0.609764
0.61044
0.611241
0.612184
0.613274
0.61451
0.615884
0.617389
0.618919
0.606871
0.606843
0.606808
0.606795
0.606798
0.606806
0.60682
0.606842
0.606874
0.606918
0.606975
0.607049
0.607142
0.607259
0.607405
0.607585
0.607806
0.608077
0.608408
0.608809
0.609294
0.609877
0.610572
0.611394
0.612359
0.613465
0.614702
0.616053
0.617507
0.618923
0.606908
0.606845
0.606804
0.606797
0.606801
0.60681
0.606824
0.606847
0.60688
0.606925
0.606985
0.607061
0.607157
0.607277
0.607426
0.607611
0.607838
0.608115
0.608454
0.608864
0.609359
0.609954
0.610662
0.611497
0.612483
0.613608
0.614845
0.616174
0.617576
0.618903
0.606984
0.606855
0.606803
0.6068
0.606806
0.606814
0.606828
0.606851
0.606884
0.606931
0.606992
0.607068
0.607166
0.607288
0.607439
0.607627
0.607857
0.608139
0.608483
0.6089
0.609402
0.610005
0.610723
0.611569
0.61256
0.613687
0.614927
0.616253
0.617595
0.618741
0.577393
0.575386
0.573803
0.572528
0.571173
0.569635
0.567971
0.566229
0.564412
0.562509
0.560508
0.558395
0.556149
0.553741
0.551133
0.548278
0.545117
0.541578
0.537567
0.532963
0.527612
0.521306
0.513776
0.504634
0.493426
0.479234
0.461844
0.435997
0.415362
0.348484
0.578507
0.576867
0.575436
0.574162
0.572804
0.571313
0.569754
0.56816
0.566516
0.564801
0.563
0.561097
0.559073
0.556898
0.55454
0.551956
0.549097
0.545897
0.542275
0.538124
0.533309
0.527649
0.520908
0.512755
0.502788
0.490236
0.474834
0.452842
0.432681
0.377182
0.578766
0.577443
0.576262
0.575083
0.573834
0.572519
0.571165
0.569774
0.568329
0.566813
0.565218
0.56353
0.561733
0.559803
0.557711
0.555422
0.55289
0.550061
0.546862
0.543203
0.538966
0.533996
0.528092
0.520975
0.512293
0.501427
0.488068
0.469456
0.450995
0.405387
0.579536
0.578531
0.577613
0.576569
0.575436
0.574273
0.573088
0.571866
0.570594
0.569265
0.567871
0.5664
0.564835
0.563156
0.561339
0.559353
0.55716
0.554712
0.551949
0.548795
0.54515
0.540884
0.535827
0.529747
0.522345
0.513128
0.50176
0.486213
0.469964
0.432956
0.580612
0.579828
0.5791
0.578178
0.577167
0.57616
0.57515
0.57411
0.573028
0.571899
0.570718
0.569474
0.568152
0.566736
0.565207
0.563538
0.5617
0.559652
0.557345
0.554716
0.551682
0.548138
0.543942
0.538905
0.532776
0.525171
0.515744
0.503051
0.489224
0.459789
0.58197
0.581386
0.580847
0.58007
0.579202
0.578359
0.577526
0.576667
0.575773
0.574844
0.573876
0.572861
0.571788
0.570642
0.569408
0.568067
0.566594
0.564957
0.563117
0.561022
0.558608
0.555789
0.552451
0.548443
0.543558
0.537498
0.529938
0.519875
0.508487
0.485666
0.583606
0.583211
0.582851
0.582219
0.581495
0.580812
0.580153
0.579477
0.578774
0.57805
0.577302
0.576523
0.575704
0.574836
0.573907
0.572902
0.571802
0.570583
0.569216
0.567661
0.565868
0.563769
0.561275
0.558268
0.554582
0.549988
0.544195
0.536527
0.527499
0.510363
0.585517
0.5853
0.585113
0.584628
0.584052
0.583532
0.583049
0.582558
0.58205
0.581532
0.581006
0.580466
0.579906
0.579319
0.578698
0.578032
0.577308
0.57651
0.575615
0.574595
0.573412
0.572017
0.57034
0.568291
0.565741
0.562514
0.558363
0.552837
0.546021
0.533679
0.587695
0.587647
0.587623
0.587285
0.586859
0.586503
0.586195
0.585889
0.585575
0.585265
0.584962
0.584662
0.584362
0.584057
0.583743
0.583416
0.583066
0.582683
0.582252
0.581754
0.581163
0.580443
0.579543
0.578396
0.5769
0.574927
0.572267
0.568621
0.563825
0.555425
0.590122
0.590232
0.590362
0.59017
0.589895
0.589701
0.589567
0.589443
0.589324
0.58922
0.589139
0.589077
0.589033
0.589006
0.588996
0.589
0.589015
0.589035
0.589052
0.589055
0.589026
0.588941
0.588765
0.588449
0.587913
0.587065
0.585724
0.583692
0.580685
0.575423
0.592772
0.593026
0.593298
0.59325
0.593125
0.59309
0.593125
0.593181
0.593251
0.59335
0.593485
0.593655
0.59386
0.594104
0.594386
0.59471
0.595073
0.595477
0.595917
0.596389
0.596883
0.597384
0.597868
0.5983
0.59862
0.598758
0.598555
0.597885
0.596409
0.593527
0.595605
0.595989
0.596388
0.596478
0.596501
0.596621
0.596819
0.597047
0.5973
0.597592
0.597934
0.598326
0.59877
0.599269
0.599828
0.600452
0.601142
0.601902
0.602733
0.603634
0.604603
0.60563
0.6067
0.60779
0.608851
0.609831
0.61059
0.611054
0.610845
0.609693
0.598567
0.599066
0.599576
0.599797
0.599962
0.600228
0.60058
0.60097
0.601394
0.601869
0.602405
0.603003
0.603668
0.604404
0.605219
0.606117
0.607105
0.608187
0.609368
0.610651
0.612038
0.613524
0.6151
0.616748
0.618432
0.620107
0.621653
0.623032
0.623828
0.623976
0.601595
0.60219
0.602793
0.603135
0.603433
0.603836
0.604327
0.604865
0.605447
0.606089
0.6068
0.607586
0.60845
0.609399
0.610441
0.611583
0.612832
0.614196
0.615682
0.617293
0.619036
0.620907
0.622903
0.625009
0.627193
0.629417
0.631574
0.633626
0.635145
0.636338
0.604612
0.605284
0.605961
0.606411
0.606832
0.607356
0.607971
0.60864
0.609361
0.610149
0.611015
0.611964
0.613001
0.614133
0.615371
0.61672
0.618191
0.619791
0.621529
0.62341
0.625441
0.627622
0.629949
0.632408
0.634973
0.637602
0.640204
0.642718
0.644757
0.646613
0.607535
0.608264
0.608997
0.609539
0.610067
0.610696
0.611416
0.612196
0.613034
0.613944
0.614939
0.616023
0.617202
0.618486
0.619881
0.621398
0.623046
0.624833
0.626768
0.628858
0.631108
0.633519
0.636087
0.638799
0.641625
0.644523
0.647407
0.650192
0.652566
0.654742
0.61028
0.611048
0.611815
0.612433
0.61305
0.613764
0.614567
0.615434
0.616364
0.617371
0.618466
0.619654
0.620943
0.62234
0.623854
0.625496
0.627273
0.629196
0.631271
0.633507
0.635906
0.63847
0.641192
0.644056
0.647031
0.650066
0.653076
0.655943
0.658434
0.66055
0.612769
0.613555
0.614339
0.615012
0.615698
0.616475
0.617338
0.618266
0.619262
0.620336
0.6215
0.622759
0.624121
0.625594
0.627186
0.628908
0.630766
0.632772
0.634931
0.637249
0.63973
0.642372
0.645166
0.648091
0.651112
0.65417
0.657173
0.659972
0.662372
0.664105
0.614933
0.615721
0.616504
0.617212
0.617944
0.61876
0.619658
0.620621
0.621653
0.622765
0.623965
0.625261
0.626659
0.628168
0.629796
0.631552
0.633444
0.63548
0.637666
0.640008
0.642506
0.645155
0.647944
0.650849
0.653828
0.656815
0.659712
0.662353
0.664563
0.665881
0.616726
0.617499
0.618265
0.618986
0.61974
0.620572
0.621478
0.622449
0.623489
0.624606
0.62581
0.627108
0.628505
0.630011
0.631632
0.633378
0.635255
0.637271
0.639432
0.641739
0.644191
0.646783
0.649497
0.652306
0.655162
0.657992
0.660691
0.663078
0.664976
0.665817
0.618123
0.618866
0.619601
0.620314
0.621065
0.621887
0.622777
0.623728
0.624746
0.625839
0.627015
0.628279
0.629639
0.631103
0.632677
0.634369
0.636186
0.638133
0.640215
0.642433
0.644782
0.647254
0.649827
0.652468
0.655125
0.657712
0.660113
0.662124
0.66355
0.663757
0.619124
0.619825
0.620515
0.6212
0.621926
0.622714
0.623562
0.624468
0.625436
0.626474
0.627589
0.628786
0.630074
0.631457
0.632944
0.634541
0.636253
0.638086
0.64004
0.642116
0.644307
0.646599
0.648968
0.651374
0.653755
0.656015
0.658023
0.659549
0.66042
0.659764
0.619759
0.620406
0.62104
0.621677
0.622355
0.623087
0.62387
0.624705
0.625596
0.62655
0.627574
0.628673
0.629853
0.631121
0.632482
0.633943
0.635507
0.637179
0.638958
0.640842
0.642821
0.644878
0.646982
0.649087
0.651122
0.652977
0.654512
0.655461
0.655718
0.653774
0.620079
0.620661
0.621228
0.621802
0.622411
0.623065
0.623763
0.624504
0.625293
0.626137
0.627042
0.628013
0.629054
0.630172
0.631371
0.632657
0.634033
0.635499
0.637056
0.638698
0.640412
0.642177
0.643956
0.645696
0.647317
0.648695
0.64968
0.649939
0.649534
0.645949
0.620153
0.620663
0.621154
0.621649
0.622171
0.62273
0.623321
0.623947
0.624612
0.625322
0.626082
0.626897
0.627772
0.628712
0.62972
0.6308
0.63195
0.633174
0.634468
0.635824
0.637225
0.638643
0.640038
0.641346
0.642477
0.643287
0.643624
0.643059
0.641935
0.636576
0.620067
0.6205
0.620905
0.621304
0.621725
0.622173
0.622644
0.623137
0.623658
0.624209
0.624798
0.625427
0.626102
0.626825
0.627601
0.628431
0.629321
0.630264
0.631253
0.632277
0.633317
0.634339
0.635295
0.63611
0.636682
0.636843
0.636445
0.634923
0.632962
0.625707
0.619921
0.620271
0.620572
0.62086
0.621165
0.621487
0.621821
0.622167
0.622529
0.622912
0.623316
0.623746
0.624204
0.624693
0.625215
0.625771
0.62636
0.626977
0.627614
0.628254
0.628873
0.629434
0.62988
0.630128
0.630063
0.629487
0.62826
0.625642
0.622703
0.613193
0.619866
0.620089
0.620237
0.620408
0.62061
0.620811
0.621
0.621182
0.621359
0.621541
0.621733
0.621935
0.622149
0.622377
0.622618
0.62287
0.62313
0.623391
0.62364
0.623858
0.624015
0.624064
0.62394
0.623547
0.62276
0.621347
0.619185
0.615311
0.611291
0.599051
0.620133
0.620091
0.619948
0.619953
0.620022
0.620081
0.620141
0.620188
0.620195
0.620178
0.620148
0.620107
0.620062
0.620009
0.619942
0.61986
0.619759
0.619631
0.619457
0.619215
0.618869
0.61836
0.617611
0.616509
0.614915
0.612554
0.609341
0.603981
0.59895
0.583366
0.620595
0.620243
0.619945
0.619883
0.619868
0.619801
0.619675
0.619504
0.619295
0.619068
0.618789
0.618467
0.61814
0.617782
0.617372
0.616909
0.616392
0.615809
0.615137
0.614359
0.613436
0.612292
0.610845
0.608961
0.60648
0.603064
0.598766
0.591465
0.585963
0.565954
0.547508
0.527423
0.504755
0.480309
0.454381
0.426642
0.396891
0.365476
0.333069
0.300374
0.268514
0.238362
0.210781
0.188663
0.174638
0.168208
0.166906
0.168055
0.170135
0.172216
0.173444
0.17495
0.179244
0.186273
0.191813
0.193484
0.192608
0.191199
0.190603
0.19004
0.572853
0.555131
0.534496
0.51237
0.488513
0.462481
0.433944
0.403015
0.369859
0.334975
0.299049
0.263488
0.229815
0.200479
0.180491
0.170708
0.167807
0.168906
0.171197
0.173302
0.174204
0.176075
0.181287
0.189366
0.194827
0.194951
0.191853
0.189254
0.188993
0.189947
0.578293
0.561989
0.543372
0.522535
0.499326
0.473429
0.444856
0.413984
0.380901
0.345976
0.309773
0.273503
0.238911
0.208145
0.186563
0.175562
0.171816
0.172103
0.173567
0.174635
0.174878
0.177359
0.184185
0.193083
0.19784
0.195307
0.1895
0.186173
0.187673
0.190553
0.588352
0.574328
0.556933
0.537653
0.516034
0.49122
0.463154
0.43207
0.398087
0.361683
0.323783
0.285741
0.249352
0.21703
0.193777
0.181306
0.176638
0.176365
0.177475
0.178215
0.178866
0.182707
0.190437
0.198576
0.200703
0.194628
0.1861
0.183465
0.188306
0.194594
0.59385
0.581089
0.56573
0.548317
0.52834
0.505076
0.478239
0.447893
0.414123
0.377283
0.338256
0.298511
0.260124
0.22588
0.200582
0.186454
0.180869
0.180234
0.181485
0.182952
0.185136
0.19041
0.198108
0.203746
0.201846
0.192582
0.183698
0.184465
0.193804
0.203652
0.598558
0.5874
0.57359
0.557603
0.538916
0.51682
0.490938
0.461199
0.427651
0.390574
0.350749
0.309651
0.269567
0.233578
0.20648
0.190953
0.184665
0.183857
0.185421
0.187831
0.191481
0.197491
0.204893
0.207799
0.202638
0.192409
0.187069
0.193421
0.205999
0.216702
0.602087
0.592232
0.579843
0.565325
0.548044
0.527257
0.502493
0.473506
0.44024
0.402936
0.362349
0.319982
0.278288
0.240625
0.211879
0.19508
0.188161
0.187259
0.189235
0.192591
0.197447
0.204139
0.210771
0.212175
0.206728
0.199562
0.199774
0.210768
0.223468
0.232318
0.604861
0.596173
0.585096
0.571899
0.55593
0.536437
0.512865
0.484805
0.452045
0.414718
0.373525
0.329988
0.28671
0.247351
0.216971
0.198922
0.19139
0.190454
0.192914
0.197204
0.203142
0.210403
0.216635
0.218284
0.215477
0.21326
0.218673
0.231486
0.242814
0.250086
0.607073
0.5994
0.58949
0.577494
0.562753
0.544503
0.522112
0.495037
0.462913
0.425743
0.384128
0.339566
0.294783
0.253743
0.221749
0.202487
0.194388
0.1935
0.196516
0.201754
0.208702
0.216541
0.222985
0.225849
0.226144
0.228539
0.237394
0.250545
0.261706
0.270897
0.608876
0.602088
0.593216
0.58231
0.568704
0.551637
0.530408
0.504346
0.472933
0.436033
0.394131
0.348672
0.302475
0.259795
0.226227
0.205807
0.197201
0.196425
0.200078
0.206294
0.214239
0.222756
0.229789
0.234067
0.237217
0.243158
0.254463
0.268296
0.280745
0.294148
0.610375
0.604361
0.59641
0.586485
0.573926
0.55798
0.537886
0.512855
0.48222
0.445689
0.403612
0.357363
0.30983
0.265546
0.230438
0.20891
0.199877
0.19924
0.203616
0.21085
0.219816
0.229139
0.237018
0.242821
0.248475
0.257293
0.270697
0.285814
0.301232
0.3181
0.611649
0.606312
0.599175
0.590136
0.578536
0.563642
0.544644
0.520647
0.490841
0.454768
0.412622
0.365683
0.316883
0.271025
0.234399
0.211803
0.202363
0.201965
0.207139
0.21544
0.225473
0.235722
0.244616
0.251973
0.259897
0.271141
0.286368
0.303159
0.321992
0.340782
0.61275
0.608009
0.601593
0.59335
0.582632
0.568719
0.55077
0.527795
0.498849
0.463307
0.421189
0.373652
0.32365
0.276246
0.238121
0.214491
0.204698
0.204623
0.21066
0.22008
0.231235
0.242505
0.252511
0.261397
0.271342
0.284618
0.301515
0.320387
0.342171
0.361933
0.613712
0.609498
0.603724
0.596201
0.586291
0.573295
0.556343
0.534369
0.506301
0.471347
0.42934
0.381291
0.330149
0.281223
0.241614
0.216983
0.206897
0.207223
0.214188
0.224785
0.237117
0.249476
0.260625
0.270947
0.282635
0.297642
0.316222
0.337102
0.359602
0.380176
0.614562
0.610813
0.605616
0.598744
0.589579
0.577437
0.561431
0.540431
0.51325
0.478929
0.437107
0.388624
0.336398
0.285971
0.24489
0.219289
0.208969
0.209768
0.217731
0.229565
0.243124
0.25661
0.26888
0.280484
0.293631
0.310202
0.330659
0.35289
0.374068
0.393768
0.615321
0.611983
0.6073
0.601023
0.592547
0.581201
0.566092
0.546035
0.51974
0.48609
0.444517
0.395672
0.342415
0.290506
0.247961
0.221419
0.210922
0.212263
0.221299
0.234429
0.249256
0.263878
0.277196
0.289882
0.304231
0.322355
0.344675
0.366226
0.384394
0.402725
0.616
0.61303
0.608806
0.60307
0.595234
0.584635
0.570376
0.55123
0.525814
0.492862
0.451594
0.402453
0.348213
0.294838
0.250835
0.223384
0.21276
0.214715
0.224902
0.239386
0.255507
0.271243
0.285488
0.29903
0.314407
0.334069
0.357033
0.376423
0.390784
0.409358
0.616606
0.613971
0.610157
0.604912
0.597671
0.587778
0.574326
0.556058
0.53151
0.499275
0.458363
0.408987
0.353808
0.29898
0.253521
0.22519
0.214489
0.217132
0.228548
0.24444
0.261868
0.278664
0.293672
0.307842
0.324192
0.34511
0.367452
0.383028
0.396464
0.419438
0.617149
0.614815
0.611374
0.606574
0.599886
0.590658
0.577978
0.560556
0.536862
0.505357
0.464844
0.415288
0.359213
0.302941
0.25603
0.226848
0.216105
0.219519
0.232245
0.249591
0.268323
0.286092
0.30167
0.316284
0.333523
0.355048
0.375417
0.387467
0.404364
0.436069
0.617642
0.615575
0.61247
0.608076
0.6019
0.593301
0.58136
0.564755
0.541899
0.511135
0.471057
0.421374
0.36444
0.30673
0.258366
0.228372
0.217612
0.221886
0.236
0.25484
0.274853
0.293475
0.309411
0.324301
0.342096
0.363416
0.380736
0.392268
0.416346
0.456489
0.618093
0.616262
0.613461
0.609434
0.603731
0.595728
0.584496
0.568684
0.54665
0.516632
0.477022
0.427258
0.369501
0.310357
0.260541
0.229758
0.219009
0.224236
0.239819
0.260185
0.281441
0.300766
0.316847
0.33171
0.349649
0.369499
0.38498
0.399759
0.431998
0.474763
0.618499
0.616885
0.614359
0.610666
0.605397
0.597957
0.587408
0.572365
0.551139
0.52187
0.482756
0.432954
0.374406
0.313829
0.262556
0.230987
0.220312
0.226578
0.243707
0.265624
0.288075
0.307957
0.32381
0.338325
0.355652
0.373877
0.389874
0.411362
0.449281
0.489043
0.618858
0.617447
0.615173
0.611785
0.606912
0.600002
0.590112
0.57582
0.555387
0.526868
0.488276
0.438477
0.379167
0.317154
0.264417
0.232047
0.221534
0.228916
0.247669
0.271144
0.294708
0.315031
0.330208
0.343832
0.360094
0.377927
0.397183
0.426035
0.465453
0.500332
0.619168
0.617954
0.615913
0.612802
0.608291
0.601877
0.592623
0.579065
0.559412
0.531643
0.493593
0.443835
0.383794
0.32034
0.26613
0.232982
0.222687
0.231254
0.251703
0.276733
0.301251
0.32142
0.335857
0.348146
0.363997
0.382769
0.406771
0.441681
0.479368
0.509566
0.619428
0.618409
0.616588
0.613727
0.609545
0.603597
0.594953
0.582113
0.563233
0.536219
0.498729
0.449042
0.388288
0.323385
0.267683
0.233734
0.223748
0.233597
0.255833
0.282435
0.307729
0.326973
0.340034
0.351868
0.368095
0.388947
0.417945
0.45694
0.491506
0.517281
0.61964
0.618811
0.617207
0.614571
0.610679
0.605172
0.597117
0.584976
0.566854
0.540596
0.503696
0.454127
0.392694
0.326334
0.269185
0.234519
0.224794
0.235972
0.260078
0.288272
0.314089
0.3319
0.34287
0.355501
0.372565
0.396368
0.430218
0.47148
0.502298
0.523657
0.61981
0.619156
0.617775
0.615347
0.611704
0.606602
0.599123
0.587675
0.570301
0.544768
0.508434
0.458989
0.396887
0.329036
0.270218
0.234783
0.225589
0.238298
0.264374
0.293821
0.319602
0.336193
0.345795
0.35867
0.377171
0.404461
0.443118
0.485102
0.511901
0.528789
0.619947
0.61944
0.6183
0.616066
0.612625
0.607912
0.600996
0.590265
0.573707
0.548995
0.513305
0.464051
0.401393
0.332237
0.272093
0.235557
0.226587
0.240725
0.268565
0.298215
0.322861
0.339247
0.350453
0.364214
0.384553
0.415305
0.4562
0.497511
0.520319
0.532708
0.620076
0.619671
0.618777
0.616785
0.613462
0.608917
0.602475
0.592269
0.576293
0.552191
0.516945
0.467691
0.40428
0.33362
0.272236
0.235364
0.227158
0.243079
0.272512
0.302001
0.324317
0.338922
0.350216
0.364947
0.387159
0.421522
0.467666
0.508042
0.527129
0.535954
0.620202
0.619876
0.619207
0.617638
0.614757
0.610584
0.604736
0.595435
0.580558
0.557628
0.523506
0.47478
0.410731
0.338312
0.274375
0.235801
0.227894
0.245646
0.27683
0.307097
0.329307
0.344358
0.356686
0.374742
0.40141
0.438418
0.483697
0.518512
0.532486
0.538874
0.364977
0.334107
0.316872
0.337839
0.386486
0.408476
0.404942
0.398855
0.394507
0.392171
0.392216
0.394467
0.398311
0.403209
0.40879
0.41475
0.420869
0.426925
0.432793
0.438382
0.443638
0.448532
0.453052
0.457191
0.461068
0.465045
0.46977
0.475224
0.481227
0.470966
0.355719
0.331733
0.325518
0.36693
0.410686
0.428771
0.417367
0.403898
0.39547
0.389645
0.387269
0.388057
0.391066
0.395545
0.400986
0.406977
0.413205
0.419448
0.425554
0.431415
0.436961
0.442144
0.44694
0.451327
0.455295
0.458781
0.461872
0.463979
0.466929
0.466592
0.328612
0.308667
0.328493
0.389616
0.439533
0.456713
0.436125
0.412374
0.397441
0.386917
0.381464
0.380361
0.382208
0.38605
0.391257
0.397301
0.403766
0.410364
0.416908
0.423266
0.429345
0.43508
0.440428
0.445353
0.449827
0.453749
0.457229
0.460031
0.463186
0.466747
0.300363
0.275399
0.307419
0.391588
0.462169
0.481391
0.457301
0.42222
0.399418
0.384003
0.374678
0.371398
0.372441
0.376097
0.381448
0.387905
0.394968
0.402252
0.409512
0.416593
0.423391
0.429833
0.43588
0.441512
0.446745
0.451559
0.456034
0.460076
0.463696
0.467114
0.288974
0.262519
0.283198
0.36655
0.453684
0.487532
0.470466
0.42952
0.396457
0.377759
0.365809
0.359399
0.359124
0.362928
0.368842
0.375973
0.383832
0.391989
0.400136
0.408085
0.415714
0.422945
0.429737
0.436069
0.441946
0.447365
0.452338
0.456871
0.46086
0.464516
0.29402
0.271336
0.274919
0.336856
0.41232
0.456744
0.460238
0.429791
0.388667
0.361235
0.348746
0.342717
0.340408
0.343839
0.350894
0.359378
0.368482
0.377843
0.387183
0.396282
0.404991
0.413224
0.420942
0.428121
0.434759
0.440865
0.44645
0.451571
0.456186
0.460497
0.305772
0.289526
0.277451
0.308396
0.361861
0.39919
0.409803
0.398812
0.370248
0.338199
0.319211
0.314146
0.314657
0.317665
0.32576
0.336571
0.34792
0.359164
0.370233
0.380969
0.391186
0.400788
0.409749
0.418063
0.425739
0.432802
0.439272
0.445204
0.450561
0.455539
0.317708
0.310055
0.283242
0.280942
0.306916
0.332019
0.342511
0.338382
0.32348
0.301451
0.280832
0.271971
0.274805
0.281707
0.290926
0.304869
0.32011
0.33458
0.348224
0.361241
0.373534
0.384988
0.395591
0.405373
0.414369
0.422621
0.430165
0.437066
0.443293
0.449058
0.311362
0.318646
0.276651
0.250377
0.253404
0.263178
0.267346
0.264365
0.25577
0.243457
0.229709
0.219692
0.220452
0.231068
0.2446
0.260581
0.280571
0.300652
0.318754
0.335244
0.350499
0.364532
0.377357
0.389065
0.399751
0.4095
0.418375
0.426471
0.433772
0.440525
0.271759
0.286784
0.24837
0.214294
0.200349
0.194127
0.188262
0.181504
0.174343
0.167214
0.160884
0.156056
0.155985
0.165345
0.183405
0.204335
0.227741
0.253711
0.278426
0.300393
0.320049
0.337795
0.353762
0.368115
0.381055
0.392752
0.403331
0.41293
0.421561
0.429515
0.202654
0.231134
0.20483
0.170766
0.145658
0.125464
0.108208
0.0940861
0.0835787
0.0771904
0.0750432
0.0765892
0.0811631
0.0908967
0.108342
0.133499
0.162964
0.193637
0.22476
0.253929
0.279833
0.302828
0.32322
0.341265
0.357279
0.371564
0.384349
0.395851
0.406134
0.415547
0.133267
0.16657
0.152326
0.12159
0.0905355
0.0598873
0.0318794
0.00873829
-0.00831527
-0.0183555
-0.0209292
-0.0163023
-0.00634751
0.0075239
0.0263556
0.0520685
0.0841505
0.120555
0.158122
0.194326
0.22782
0.257757
0.284081
0.30712
0.327283
0.345004
0.360656
0.374578
0.386921
0.398116
0.0798323
0.10981
0.102722
0.0739536
0.0393671
0.00125491
-0.0359672
-0.0684046
-0.0935552
-0.109906
-0.116521
-0.113441
-0.101526
-0.0836092
-0.061408
-0.0344355
-0.00131653
0.0375067
0.0796948
0.122736
0.163969
0.201729
0.235337
0.264694
0.290186
0.312336
0.331647
0.348606
0.363495
0.376839
0.0527034
0.0727042
0.0671845
0.037754
-0.000849679
-0.0450092
-0.0900145
-0.131139
-0.164741
-0.188504
-0.201405
-0.20302
-0.193539
-0.174816
-0.150067
-0.121032
-0.0873111
-0.04807
-0.0036385
0.0438341
0.0914718
0.136769
0.177998
0.214477
0.246237
0.273696
0.297421
0.318022
0.33593
0.351764
0.0554419
0.0599304
0.0506835
0.0206643
-0.0227182
-0.0727987
-0.124588
-0.173397
-0.21495
-0.246168
-0.265786
-0.273615
-0.269721
-0.254323
-0.230102
-0.200323
-0.166322
-0.127524
-0.0832473
-0.0342292
0.017249
0.0682158
0.11616
0.159536
0.197747
0.230893
0.259446
0.284057
0.305286
0.323802
0.0838682
0.0726813
0.0544091
0.0208774
-0.0250694
-0.0795302
-0.136364
-0.191024
-0.239188
-0.277263
-0.303361
-0.317371
-0.319687
-0.310416
-0.29022
-0.262403
-0.229685
-0.19252
-0.15005
-0.101955
-0.0495617
0.0044415
0.0570842
0.106014
0.149915
0.188308
0.221439
0.249903
0.274332
0.295363
0.126229
0.103853
0.0764422
0.0370891
-0.0109106
-0.0661408
-0.126045
-0.184543
-0.23707
-0.279984
-0.311463
-0.33109
-0.339041
-0.33581
-0.321759
-0.298543
-0.269256
-0.235228
-0.195918
-0.150528
-0.0995494
-0.0451573
0.00949552
0.0614732
0.10959
0.151921
0.188725
0.22037
0.24741
0.270392
0.165409
0.139736
0.107316
0.0661318
0.0168995
-0.0378133
-0.0968788
-0.156029
-0.210839
-0.257266
-0.292674
-0.316208
-0.328326
-0.329975
-0.321738
-0.304423
-0.28015
-0.250468
-0.215155
-0.173338
-0.125057
-0.0720166
-0.0171139
0.0367074
0.0867013
0.130629
0.16887
0.202065
0.230424
0.254269
0.190018
0.167797
0.135295
0.0964599
0.0510258
-0.000106178
-0.0540446
-0.109661
-0.163184
-0.210631
-0.249004
-0.276492
-0.292542
-0.297614
-0.293233
-0.281128
-0.262141
-0.236956
-0.205484
-0.167055
-0.121707
-0.0709637
-0.0174634
0.0355774
0.0843913
0.128407
0.167141
0.200335
0.228534
0.252029
0.197721
0.180616
0.151636
0.118443
0.0807263
0.039261
-0.00539897