/*--------------------------------*- C++ -*----------------------------------*\
  =========                 |
  \\      /  F ield         | OpenFOAM: The Open Source CFD Toolbox
   \\    /   O peration     | Website:  https://openfoam.org
    \\  /    A nd           | Version:  11
     \\/     M anipulation  |
\*---------------------------------------------------------------------------*/
FoamFile
{
    format      ascii;
    class       volScalarField;
    location    "7.8";
    object      p;
}
// * * * * * * * * * * * * * * * * * * * * * * * * * * * * * * * * * * * * * //

dimensions      [0 2 -2 0 0 0 0];

internalField   nonuniform List<scalar> 
12600
(
0.0979711
0.0978346
0.0977701
0.0977504
0.0977325
0.0977081
0.0976806
0.0976516
0.0976205
0.0975861
0.0975473
0.097503
0.0974521
0.0973929
0.0973236
0.097242
0.0971451
0.0970299
0.0968922
0.0967278
0.0965291
0.0962887
0.0959981
0.0956456
0.0952172
0.0946954
0.0940592
0.0932786
0.0923211
0.0910782
0.0978957
0.0978257
0.0977725
0.0977496
0.0977308
0.0977071
0.0976802
0.0976515
0.0976206
0.0975865
0.0975481
0.0975042
0.0974537
0.0973951
0.0973264
0.0972458
0.0971499
0.0970359
0.0968995
0.0967371
0.0965407
0.0963034
0.096016
0.0956673
0.0952439
0.0947282
0.0941027
0.0933337
0.0924388
0.0914206
0.0978604
0.0978271
0.0977809
0.0977519
0.0977315
0.0977087
0.0976825
0.0976541
0.0976236
0.0975899
0.097552
0.0975087
0.0974591
0.0974014
0.0973339
0.0972551
0.0971615
0.0970501
0.0969173
0.0967568
0.0965644
0.0963322
0.096051
0.0957099
0.0952957
0.094792
0.0941807
0.093438
0.0925636
0.0915216
0.0978359
0.0978151
0.0977786
0.0977498
0.0977291
0.0977077
0.0976825
0.0976549
0.0976251
0.0975923
0.0975553
0.0975132
0.0974648
0.0974086
0.0973427
0.0972664
0.0971758
0.0970679
0.0969388
0.0967836
0.0965973
0.0963725
0.0961004
0.0957704
0.0953698
0.0948828
0.0942916
0.0935747
0.0927133
0.0916744
0.0978182
0.0978046
0.0977772
0.0977512
0.0977304
0.0977096
0.0976855
0.0976587
0.0976298
0.0975979
0.097562
0.0975212
0.0974745
0.0974204
0.0973576
0.0972831
0.0971959
0.0970922
0.0969684
0.0968199
0.0966414
0.0964263
0.0961661
0.0958506
0.0954675
0.0950017
0.0944355
0.0937478
0.0929111
0.0918988
0.0978055
0.0977959
0.0977748
0.0977514
0.0977308
0.0977104
0.0976874
0.0976617
0.0976337
0.0976029
0.0975684
0.0975291
0.0974842
0.0974327
0.0973727
0.0973021
0.0972191
0.0971207
0.0970034
0.096863
0.0966943
0.096491
0.0962452
0.0959473
0.0955856
0.0951456
0.0946098
0.0939572
0.093157
0.0921837
0.0977962
0.097789
0.0977722
0.0977516
0.0977319
0.0977123
0.0976905
0.0976661
0.0976393
0.0976099
0.097577
0.0975397
0.0974971
0.0974482
0.0973916
0.0973252
0.0972472
0.0971551
0.0970454
0.0969143
0.096757
0.0965676
0.0963388
0.0960616
0.0957249
0.0953152
0.0948151
0.0942045
0.0934509
0.09253
0.0977894
0.0977837
0.09777
0.097752
0.0977335
0.0977146
0.097694
0.0976708
0.0976453
0.0976173
0.0975861
0.097551
0.0975109
0.0974652
0.0974123
0.0973507
0.0972786
0.0971934
0.0970924
0.0969718
0.0968275
0.0966539
0.0964443
0.0961906
0.0958825
0.0955074
0.0950487
0.0944869
0.09379
0.0929343
0.0977847
0.09778
0.0977686
0.0977527
0.0977355
0.0977175
0.097698
0.0976762
0.0976521
0.0976257
0.0975965
0.0975637
0.0975266
0.0974843
0.0974358
0.0973794
0.0973136
0.0972363
0.0971449
0.0970361
0.096906
0.09675
0.0965619
0.0963343
0.0960581
0.0957215
0.0953095
0.0948035
0.0941728
0.093395
0.0977817
0.0977777
0.0977679
0.0977538
0.0977379
0.0977209
0.0977025
0.0976821
0.0976596
0.0976349
0.0976077
0.0975775
0.0975435
0.097505
0.0974611
0.0974104
0.0973515
0.0972827
0.0972016
0.0971056
0.0969911
0.0968541
0.0966894
0.0964904
0.096249
0.0959549
0.0955944
0.0951508
0.0945956
0.0939078
0.0977801
0.0977766
0.097768
0.0977554
0.0977407
0.0977248
0.0977075
0.0976884
0.0976676
0.0976448
0.0976198
0.0975923
0.0975617
0.0975272
0.0974882
0.0974436
0.0973922
0.0973324
0.0972625
0.09718
0.0970823
0.0969657
0.096826
0.0966576
0.0964537
0.0962055
0.0959011
0.095526
0.0950548
0.0944686
0.0977797
0.0977766
0.0977689
0.0977575
0.097744
0.0977291
0.097713
0.0976953
0.097676
0.0976552
0.0976326
0.0976079
0.0975808
0.0975506
0.0975168
0.0974785
0.0974349
0.0973847
0.0973265
0.0972584
0.0971783
0.0970832
0.0969699
0.0968339
0.0966697
0.0964703
0.096226
0.0959248
0.0955452
0.0950714
0.0977804
0.0977776
0.0977706
0.0977602
0.0977477
0.0977338
0.0977188
0.0977025
0.0976849
0.0976661
0.0976459
0.0976242
0.0976006
0.0975749
0.0975465
0.0975149
0.0974794
0.0974392
0.0973931
0.09734
0.0972781
0.0972055
0.0971197
0.0970175
0.0968949
0.0967467
0.0965656
0.0963426
0.0960612
0.0957091
0.097782
0.0977795
0.0977731
0.0977634
0.0977518
0.0977389
0.097725
0.0977101
0.0976942
0.0976774
0.0976597
0.097641
0.0976211
0.0975999
0.0975771
0.0975523
0.0975252
0.0974951
0.0974616
0.0974238
0.0973807
0.0973312
0.0972737
0.0972063
0.0971266
0.0970312
0.0969158
0.0967744
0.0965961
0.0963731
0.0977846
0.0977822
0.0977762
0.0977672
0.0977563
0.0977443
0.0977314
0.0977179
0.0977036
0.0976889
0.0976736
0.097658
0.0976419
0.0976253
0.0976082
0.0975903
0.0975716
0.097552
0.0975312
0.097509
0.097485
0.0974589
0.0974302
0.0973982
0.0973621
0.0973207
0.0972722
0.0972145
0.0971426
0.0970536
0.097788
0.0977857
0.09778
0.0977714
0.0977611
0.0977499
0.0977381
0.0977258
0.0977132
0.0977005
0.0976877
0.0976752
0.0976629
0.0976509
0.0976394
0.0976285
0.0976184
0.0976092
0.0976011
0.0975946
0.0975898
0.0975873
0.0975875
0.097591
0.0975987
0.0976115
0.0976306
0.0976572
0.0976928
0.0977397
0.0977922
0.0977899
0.0977843
0.097776
0.0977662
0.0977557
0.0977449
0.0977339
0.0977228
0.0977121
0.0977018
0.0976923
0.0976837
0.0976764
0.0976705
0.0976665
0.0976648
0.097666
0.0976707
0.0976797
0.097694
0.0977148
0.0977437
0.0977826
0.0978338
0.0979004
0.0979863
0.0980966
0.0982386
0.0984203
0.0977972
0.0977949
0.0977893
0.0977811
0.0977715
0.0977617
0.0977517
0.0977419
0.0977324
0.0977235
0.0977157
0.0977092
0.0977043
0.0977014
0.0977011
0.0977039
0.0977105
0.0977219
0.097739
0.0977633
0.0977963
0.0978401
0.0978972
0.0979707
0.0980645
0.0981837
0.098335
0.0985266
0.0987719
0.0990841
0.0978029
0.0978006
0.0977948
0.0977864
0.097777
0.0977676
0.0977585
0.0977498
0.0977417
0.0977347
0.0977292
0.0977256
0.0977243
0.0977258
0.0977308
0.0977402
0.097755
0.0977762
0.0978055
0.0978446
0.0978958
0.0979619
0.0980462
0.0981532
0.0982882
0.0984582
0.0986722
0.0989418
0.0992851
0.0997202
0.0978096
0.097807
0.0978007
0.0977919
0.0977826
0.0977736
0.0977653
0.0977575
0.0977508
0.0977455
0.0977423
0.0977414
0.0977435
0.0977492
0.0977595
0.0977752
0.0977977
0.0978285
0.0978694
0.0979227
0.0979913
0.0980787
0.0981892
0.0983282
0.0985025
0.0987207
0.0989942
0.0993369
0.0997714
0.100319
0.0978171
0.0978142
0.0978071
0.0977977
0.0977881
0.0977795
0.0977718
0.097765
0.0977595
0.0977559
0.0977547
0.0977564
0.0977617
0.0977715
0.0977866
0.0978083
0.0978382
0.097878
0.0979299
0.0979967
0.0980818
0.0981894
0.0983245
0.0984937
0.0987049
0.0989683
0.099297
0.0997074
0.100225
0.100873
0.0978256
0.0978222
0.097814
0.0978034
0.0977935
0.0977852
0.0977781
0.097772
0.0977676
0.0977655
0.0977663
0.0977705
0.0977789
0.0977923
0.097812
0.0978394
0.0978761
0.0979243
0.0979866
0.098066
0.0981665
0.0982928
0.0984509
0.098648
0.0988934
0.0991984
0.0995776
0.100049
0.10064
0.101377
0.0978354
0.0978311
0.0978211
0.097809
0.0977987
0.0977907
0.0977841
0.0977786
0.0977752
0.0977745
0.097777
0.0977835
0.0977945
0.0978114
0.0978353
0.0978679
0.0979109
0.0979668
0.0980385
0.0981294
0.098244
0.0983876
0.0985666
0.0987893
0.0990657
0.0994083
0.099833
0.100359
0.101015
0.101826
0.0978468
0.0978411
0.0978284
0.0978143
0.0978036
0.0977959
0.0977896
0.0977846
0.0977821
0.0977827
0.0977869
0.0977953
0.0978089
0.0978289
0.0978566
0.0978938
0.0979426
0.0980055
0.0980857
0.098187
0.0983143
0.0984733
0.0986711
0.0989166
0.0992206
0.0995966
0.100061
0.100635
0.101346
0.102219
0.0978601
0.0978522
0.0978355
0.0978191
0.0978082
0.0978007
0.0977945
0.0977898
0.0977879
0.0977896
0.0977952
0.0978054
0.0978211
0.0978438
0.0978749
0.0979162
0.09797
0.098039
0.0981267
0.0982372
0.0983756
0.0985481
0.0987624
0.0990278
0.0993558
0.0997606
0.10026
0.100874
0.101632
0.102557
0.0978764
0.0978645
0.0978418
0.097823
0.0978126
0.0978056
0.0977993
0.0977949
0.0977937
0.0977963
0.0978031
0.0978148
0.0978324
0.0978574
0.0978913
0.0979361
0.0979942
0.0980684
0.0981625
0.0982807
0.0984286
0.0986127
0.0988409
0.0991231
0.0994713
0.0999001
0.100428
0.101076
0.101873
0.102841
0.0978969
0.0978781
0.0978463
0.0978252
0.0978153
0.0978084
0.0978019
0.0977977
0.0977971
0.0978005
0.0978083
0.0978212
0.0978405
0.0978674
0.0979037
0.0979514
0.098013
0.0980916
0.0981909
0.0983154
0.0984711
0.0986646
0.0989041
0.0992
0.0995644
0.100013
0.100563
0.101238
0.102068
0.103074
0.0979236
0.0978924
0.097851
0.0978297
0.0978206
0.097813
0.097806
0.0978018
0.0978016
0.0978055
0.0978139
0.0978277
0.0978481
0.0978765
0.0979145
0.0979643
0.0980286
0.0981104
0.0982138
0.0983431
0.0985046
0.0987052
0.0989534
0.0992596
0.0996362
0.100098
0.100665
0.101358
0.102216
0.103263
0.0979604
0.0978927
0.0978447
0.0978293
0.0978219
0.0978137
0.0978064
0.0978026
0.0978029
0.0978073
0.0978163
0.0978308
0.097852
0.0978814
0.0979207
0.0979721
0.0980383
0.0981224
0.0982285
0.0983614
0.0985271
0.0987325
0.0989865
0.0992997
0.0996846
0.100156
0.100732
0.101434
0.1023
0.103391
0.0980368
0.0979022
0.0978428
0.097831
0.0978248
0.0978159
0.0978083
0.0978045
0.0978048
0.0978093
0.0978185
0.0978333
0.097855
0.0978848
0.0979247
0.0979769
0.098044
0.0981293
0.0982367
0.0983717
0.0985394
0.0987473
0.0990044
0.0993212
0.0997103
0.100187
0.100767
0.101471
0.10231
0.103286
0.0906514
0.0897199
0.0891803
0.088978
0.0887522
0.0884193
0.0880393
0.0876577
0.0872825
0.0869099
0.0865377
0.0861646
0.0857878
0.0854029
0.0850045
0.0845863
0.0841404
0.0836564
0.0831203
0.0825127
0.0818072
0.0809596
0.0799288
0.0785099
0.076918
0.0734175
0.0717619
0.0574378
0.0601756
-0.0163249
0.0911414
0.0902769
0.0896607
0.0893849
0.089103
0.0887463
0.0883762
0.0880278
0.0876947
0.0873653
0.0870367
0.0867083
0.086378
0.0860425
0.0856977
0.0853391
0.0849608
0.084555
0.0841112
0.0836151
0.083046
0.082373
0.0815506
0.0804683
0.0791336
0.0765963
0.0748185
0.0639265
0.0651829
0.000652589
0.0907801
0.0902382
0.0898299
0.0895964
0.089349
0.0890425
0.0887284
0.0884317
0.0881436
0.087856
0.087569
0.0872842
0.0870005
0.0867154
0.0864263
0.0861303
0.0858235
0.0855008
0.0851553
0.0847775
0.0843537
0.0838631
0.0832708
0.0825117
0.0815295
0.0798035
0.0782594
0.0703334
0.0707263
0.0177939
0.0908465
0.0905131
0.0902291
0.0899836
0.0897267
0.0894476
0.0891724
0.0889129
0.0886626
0.088416
0.0881737
0.0879366
0.0877042
0.0874749
0.0872475
0.0870209
0.0867933
0.0865625
0.0863256
0.0860783
0.085814
0.0855221
0.085182
0.08476
0.084192
0.0832143
0.0821523
0.0768441
0.0768958
0.0347495
0.0910548
0.090802
0.09058
0.090352
0.0901192
0.0898869
0.0896626
0.0894485
0.0892418
0.0890407
0.0888463
0.08866
0.0884821
0.0883126
0.0881517
0.0880001
0.0878584
0.0877275
0.0876083
0.0875021
0.0874097
0.0873311
0.0872612
0.0871916
0.0870797
0.0868136
0.0864236
0.0834218
0.0836581
0.0513859
0.0913578
0.0911642
0.0909996
0.090807
0.0906057
0.0904131
0.0902311
0.0900582
0.0898937
0.0897384
0.0895937
0.089461
0.0893414
0.0892362
0.0891471
0.0890767
0.0890279
0.0890049
0.0890127
0.0890582
0.0891498
0.0892986
0.0895152
0.0898151
0.0901871
0.0906203
0.0910265
0.0900823
0.0909013
0.0676807
0.0917403
0.0915942
0.0914765
0.0913189
0.091151
0.0909979
0.0908596
0.0907315
0.0906135
0.0905076
0.0904159
0.0903404
0.090283
0.0902464
0.0902342
0.0902506
0.0903013
0.0903935
0.0905368
0.0907437
0.0910304
0.0914189
0.0919358
0.0926195
0.0934939
0.0946221
0.0959006
0.0968
0.0985202
0.0834833
0.0921929
0.09209
0.0920158
0.091896
0.0917653
0.0916532
0.0915591
0.0914768
0.0914064
0.0913514
0.0913148
0.0912991
0.0913074
0.0913436
0.0914128
0.0915214
0.0916776
0.0918919
0.0921782
0.0925547
0.0930459
0.0936842
0.0945121
0.0955902
0.0969777
0.0987967
0.100985
0.103542
0.106416
0.0986096
0.0927133
0.0926509
0.0926182
0.0925367
0.0924445
0.0923739
0.0923245
0.0922891
0.0922684
0.0922667
0.0922878
0.092335
0.0924122
0.0925249
0.0926796
0.092885
0.0931517
0.0934936
0.093929
0.094482
0.0951845
0.0960799
0.0972257
0.0987037
0.100607
0.103108
0.106211
0.110258
0.114463
0.112885
0.0932972
0.0932738
0.093281
0.0932385
0.0931862
0.0931581
0.0931541
0.093167
0.0931975
0.0932509
0.0933316
0.0934438
0.0935926
0.0937845
0.0940281
0.0943337
0.0947147
0.0951884
0.0957773
0.0965111
0.0974292
0.0985852
0.100051
0.101929
0.104343
0.107507
0.111505
0.116887
0.12252
0.126151
0.0939411
0.0939551
0.0940003
0.0939971
0.0939855
0.0940006
0.0940426
0.0941045
0.0941874
0.094297
0.0944388
0.0946177
0.0948398
0.0951131
0.0954475
0.0958556
0.0963533
0.096961
0.0977054
0.0986215
0.0997561
0.101172
0.102955
0.105225
0.108135
0.111934
0.116785
0.123352
0.130433
0.138264
0.0946382
0.0946881
0.0947696
0.0948056
0.0948355
0.094894
0.0949823
0.0950936
0.0952293
0.0953959
0.0955994
0.0958457
0.096142
0.0964973
0.0969234
0.0974346
0.0980493
0.0987909
0.0996901
0.100787
0.102135
0.103806
0.105897
0.108544
0.111927
0.116322
0.121963
0.129563
0.138036
0.149087
0.0953808
0.0954647
0.0955803
0.0956552
0.0957267
0.0958286
0.0959628
0.0961232
0.0963116
0.0965348
0.0967998
0.0971133
0.0974832
0.09792
0.0984367
0.0990498
0.0997796
0.100653
0.101703
0.102976
0.10453
0.106445
0.108829
0.111832
0.115655
0.120595
0.126946
0.135426
0.145154
0.158458
0.0961582
0.0962743
0.0964215
0.0965343
0.0966472
0.0967919
0.096971
0.0971794
0.0974195
0.0976983
0.0980235
0.0984024
0.0988441
0.0993602
0.0999649
0.100676
0.101517
0.102516
0.103711
0.10515
0.106899
0.109042
0.111699
0.115028
0.119249
0.124673
0.131642
0.140844
0.151619
0.166217
0.0969584
0.0971044
0.0972805
0.0974298
0.0975831
0.0977693
0.0979915
0.0982462
0.0985359
0.0988681
0.0992509
0.0996924
0.100203
0.100794
0.101482
0.102286
0.103231
0.104348
0.105677
0.107271
0.109197
0.111549
0.11445
0.11807
0.122638
0.128477
0.13596
0.145725
0.157305
0.172386
0.0977671
0.0979408
0.0981429
0.0983266
0.0985186
0.0987443
0.0990073
0.0993054
0.0996418
0.100024
0.100461
0.100961
0.101534
0.102195
0.10296
0.10385
0.10489
0.106114
0.107564
0.109295
0.111379
0.113914
0.117027
0.120895
0.125754
0.13193
0.139819
0.149988
0.16214
0.177186
0.0985694
0.0987683
0.0989934
0.0992089
0.0994372
0.0996997
0.1
0.100338
0.100717
0.101145
0.101631
0.102184
0.102815
0.103538
0.104371
0.105336
0.10646
0.107777
0.109332
0.111181
0.1134
0.116088
0.119376
0.123444
0.128532
0.134963
0.143143
0.153564
0.166071
0.180625
0.0993503
0.0995716
0.0998167
0.100061
0.100322
0.100618
0.100952
0.101326
0.101743
0.102211
0.10274
0.103339
0.104019
0.104796
0.105688
0.106717
0.107911
0.109306
0.110947
0.112893
0.11522
0.118028
0.121451
0.125667
0.130919
0.137519
0.145872
0.15639
0.169009
0.182594
0.100095
0.100336
0.100599
0.100868
0.101159
0.101484
0.101847
0.102251
0.102701
0.103204
0.103768
0.104405
0.105127
0.105948
0.106887
0.107967
0.109217
0.110673
0.11238
0.114398
0.116804
0.119697
0.123212
0.127525
0.132872
0.139554
0.147959
0.158409
0.170836
0.183182
0.100791
0.10105
0.101327
0.101618
0.101934
0.102283
0.102671
0.1031
0.103576
0.104107
0.1047
0.105367
0.10612
0.106975
0.107949
0.109067
0.110356
0.111854
0.113607
0.115672
0.118128
0.121072
0.124636
0.12899
0.134365
0.14104
0.149377
0.159586
0.171532
0.182481
0.101428
0.101702
0.101991
0.102299
0.102636
0.103006
0.103413
0.103861
0.104357
0.104908
0.105523
0.106211
0.106986
0.107863
0.108861
0.110002
0.111315
0.112837
0.114613
0.116702
0.119177
0.122136
0.125706
0.130051
0.135388
0.141972
0.150127
0.159932
0.171243
0.180404
0.102001
0.102287
0.102585
0.102907
0.10326
0.103645
0.104066
0.104528
0.105038
0.105603
0.10623
0.106932
0.107719
0.108608
0.109616
0.110767
0.112089
0.113617
0.115396
0.117483
0.119951
0.122892
0.126429
0.130716
0.135955
0.142369
0.150246
0.159495
0.170109
0.176826
0.102503
0.102799
0.103105
0.103438
0.103802
0.104197
0.104628
0.105099
0.105617
0.106188
0.106822
0.107528
0.108319
0.109209
0.110216
0.111364
0.112679
0.114197
0.11596
0.118023
0.120457
0.12335
0.126818
0.131003
0.13609
0.142264
0.149782
0.15834
0.168216
0.172054
0.102937
0.103241
0.103553
0.103892
0.104263
0.104664
0.105099
0.105573
0.106093
0.106665
0.107298
0.108002
0.108787
0.109669
0.110666
0.111798
0.113093
0.114584
0.116313
0.118333
0.12071
0.123527
0.126893
0.130936
0.135826
0.141698
0.148795
0.156554
0.165682
0.166496
0.103305
0.103616
0.10393
0.104272
0.104646
0.105051
0.105488
0.105961
0.106478
0.107046
0.107672
0.108365
0.109138
0.110003
0.110978
0.112084
0.113347
0.114798
0.116478
0.118436
0.120735
0.123454
0.12669
0.13056
0.135213
0.140735
0.14737
0.154226
0.162639
0.159892
0.103619
0.103934
0.104243
0.104579
0.104953
0.105357
0.10579
0.106258
0.106768
0.107328
0.107943
0.108622
0.109376
0.110218
0.111165
0.112236
0.113455
0.114855
0.116472
0.118353
0.120558
0.123159
0.126244
0.129914
0.134304
0.139438
0.145586
0.15143
0.159183
0.152194
0.103893
0.104209
0.104508
0.10484
0.105215
0.105616
0.106042
0.1065
0.107
0.107546
0.108145
0.108804
0.109533
0.110345
0.111256
0.112285
0.113453
0.114791
0.116334
0.118128
0.120225
0.122692
0.125609
0.12906
0.133167
0.137881
0.143533
0.148248
0.155426
0.143702
0.104172
0.104428
0.104662
0.104985
0.105373
0.105779
0.106196
0.106642
0.107129
0.107664
0.108251
0.10889
0.109592
0.110371
0.111241
0.11222
0.113328
0.114596
0.116058
0.117753
0.119732
0.122055
0.124793
0.128012
0.131825
0.136098
0.141273
0.144734
0.151478
0.134691
0.104684
0.104801
0.104889
0.10517
0.105565
0.10598
0.106394
0.10683
0.107298
0.107805
0.108359
0.108969
0.109641
0.110385
0.111215
0.112149
0.113194
0.114388
0.115763
0.117356
0.119212
0.121383
0.123936
0.126914
0.130428
0.134236
0.138961
0.141035
0.147473
0.125387
0.104757
0.104637
0.104721
0.105082
0.105517
0.105966
0.106387
0.106823
0.107293
0.107795
0.108331
0.108912
0.109545
0.11024
0.111009
0.111868
0.112843
0.113955
0.115233
0.116714
0.118438
0.120452
0.122815
0.125549
0.128781
0.132104
0.136486
0.137018
0.143369
0.115981
0.107722
0.0994163
0.0902785
0.0809233
0.0719869
0.0638441
0.0568213
0.0512873
0.0476371
0.0462562
0.0472127
0.0499505
0.0529966
0.0547464
0.0544078
0.0523694
0.0507044
0.0492679
0.0477431
0.0466197
0.0458381
0.0449748
0.0437657
0.0422713
0.0406953
0.0390746
0.0373066
0.0352885
0.0327549
0.0297161
0.139178
0.133321
0.126851
0.120473
0.11405
0.107352
0.100558
0.0940207
0.0879044
0.0825835
0.078533
0.0758078
0.0739666
0.0717063
0.067901
0.0616841
0.0539414
0.0486903
0.0472178
0.0463184
0.0446658
0.0426879
0.0413439
0.0406254
0.0399649
0.0391072
0.0379513
0.0366885
0.0353327
0.0333741
0.133827
0.130307
0.126221
0.121558
0.116179
0.110116
0.10368
0.0971253
0.0907672
0.085148
0.080642
0.0770059
0.0736351
0.069645
0.0642038
0.0588156
0.0540667
0.0501148
0.0480188
0.0461025
0.04374
0.0429608
0.0439684
0.0449896
0.0461795
0.047571
0.0489263
0.0497579
0.0500439
0.0492119
0.134731
0.132907
0.130484
0.127191
0.123128
0.118369
0.112997
0.107137
0.10101
0.0949496
0.0892596
0.0840354
0.0791799
0.0744812
0.0697706
0.0654133
0.0610395
0.0560176
0.0523558
0.0499581
0.0480266
0.0481027
0.0499221
0.0528823
0.0573616
0.0613545
0.0639559
0.0656937
0.0663045
0.066013
0.130818
0.129976
0.128772
0.126859
0.124136
0.120679
0.116555
0.111782
0.106444
0.100753
0.0950169
0.0895148
0.0843625
0.0795232
0.0748858
0.0704261
0.066063
0.062075
0.0591893
0.0568142
0.0552527
0.0557888
0.0583431
0.0625761
0.067574
0.0717461
0.0746597
0.0755734
0.074779
0.0728863
0.127962
0.127815
0.127402
0.126245
0.12427
0.121604
0.118238
0.114141
0.109362
0.104069
0.0985233
0.0930077
0.0877129
0.0826916
0.077897
0.0733398
0.0691518
0.0656601
0.0631451
0.0615995
0.06134
0.0624773
0.0646706
0.0677808
0.071139
0.0733385
0.0736912
0.0723056
0.0689223
0.0633306
0.124991
0.125233
0.125304
0.124713
0.123478
0.121578
0.118974
0.115599
0.111452
0.106646
0.101387
0.0959398
0.0905479
0.0853635
0.0804501
0.0758899
0.0718533
0.0685744
0.0662733
0.0650962
0.0651217
0.0661959
0.0678962
0.0695549
0.0702087
0.0692809
0.0664398
0.0616351
0.0540745
0.045083
0.122463
0.122977
0.123397
0.123229
0.122454
0.1211
0.119094
0.11633
0.112764
0.108455
0.103558
0.0983068
0.0929617
0.0877408
0.0827915
0.0782484
0.0742936
0.071142
0.0689886
0.0679132
0.0678256
0.0684239
0.0691725
0.0693495
0.0682549
0.0654457
0.0605667
0.0535476
0.0440332
0.0339762
0.120244
0.120917
0.121549
0.121669
0.121255
0.120335
0.118814
0.116562
0.113501
0.109651
0.105123
0.10012
0.0948999
0.0897171
0.0847754
0.080252
0.0763443
0.0732613
0.0711566
0.0700315
0.0696853
0.0697012
0.0694788
0.0683726
0.065877
0.0617042
0.0557793
0.0483745
0.039937
0.0319871
0.118339
0.119111
0.119882
0.120205
0.120061
0.11947
0.118334
0.116506
0.113884
0.110452
0.10628
0.101539
0.0964746
0.0913623
0.0864477
0.0819457
0.0780681
0.0750097
0.0728767
0.0715998
0.0708953
0.0702839
0.0691806
0.0670573
0.0635911
0.0587321
0.0527391
0.0461778
0.0397726
0.0344971
0.116699
0.117529
0.118385
0.118847
0.118902
0.118568
0.117741
0.116266
0.114024
0.110968
0.107133
0.102656
0.0977661
0.0927475
0.0878762
0.0833987
0.0795377
0.0764706
0.0742583
0.0727712
0.0716699
0.0704613
0.0686278
0.0657901
0.061833
0.056951
0.0516491
0.0466405
0.0427296
0.0404815
0.115285
0.116147
0.117055
0.117615
0.11782
0.117684
0.117103
0.11592
0.114001
0.111277
0.107753
0.103531
0.0988235
0.0939124
0.0890949
0.0846418
0.0807839
0.0776815
0.0753567
0.0736346
0.0721493
0.0704329
0.0680669
0.0648373
0.0608307
0.0564313
0.0522662
0.0490097
0.0472745
0.047181
0.114058
0.114938
0.115877
0.116506
0.116822
0.11684
0.116457
0.115516
0.113874
0.111442
0.108199
0.10422
0.0996924
0.0948938
0.0901341
0.0857019
0.0818345
0.0786772
0.0762216
0.074264
0.0724373
0.0703268
0.0676311
0.0642963
0.0605713
0.056947
0.0540339
0.0523228
0.0521944
0.0532673
0.112987
0.113875
0.114832
0.115511
0.115912
0.116051
0.115829
0.115088
0.113681
0.111506
0.108518
0.104764
0.100411
0.0957245
0.0910226
0.0866069
0.0827197
0.079495
0.0769026
0.0747249
0.0726144
0.0702278
0.0673835
0.0641663
0.0609329
0.0581834
0.0564325
0.0559575
0.0569037
0.0585359
0.112047
0.112935
0.113904
0.11462
0.115088
0.115323
0.115231
0.114657
0.113453
0.111503
0.108743
0.105197
0.101008
0.0964306
0.0917842
0.0873801
0.0834653
0.0801664
0.0774396
0.075067
0.0727362
0.0701842
0.0673418
0.0644013
0.0617604
0.0598718
0.0591186
0.0595596
0.0611691
0.0630149
0.111215
0.112098
0.113073
0.11382
0.114341
0.114655
0.114671
0.114239
0.113208
0.111455
0.1089
0.105544
0.101508
0.0970338
0.0924387
0.0880407
0.0840922
0.0807164
0.0778633
0.0753262
0.0728381
0.0702183
0.0674951
0.064928
0.0629072
0.0618078
0.0618607
0.0629371
0.0649123
0.0667563
0.110467
0.111346
0.112326
0.113098
0.113666
0.114046
0.114153
0.113841
0.112961
0.111381
0.109008
0.105825
0.10193
0.097552
0.0930026
0.0886051
0.0846181
0.0811655
0.0781979
0.0755283
0.0729416
0.070336
0.067817
0.0656702
0.064253
0.06384
0.0645096
0.0659951
0.0681241
0.0698375
0.109793
0.110667
0.11165
0.112444
0.113053
0.113491
0.113677
0.113468
0.11272
0.111294
0.109084
0.106056
0.102291
0.0980004
0.0934899
0.0890869
0.0850576
0.0815303
0.0784617
0.0756909
0.073058
0.0705329
0.0682717
0.0665615
0.0657029
0.0658603
0.0669755
0.0686957
0.07083
0.0723483
0.109177
0.110047
0.111032
0.111847
0.112494
0.112986
0.113241
0.113124
0.112492
0.111202
0.10914
0.106253
0.102604
0.0983913
0.0939123
0.0894972
0.0854223
0.081824
0.0786683
0.0758258
0.0731918
0.0707972
0.068825
0.0675437
0.0671806
0.0677926
0.0692091
0.0710341
0.0730711
0.074372
0.108609
0.109477
0.110464
0.111298
0.111982
0.112524
0.112842
0.112809
0.112281
0.111115
0.109184
0.106424
0.10288
0.0987352
0.0942794
0.0898452
0.0857222
0.0820572
0.0788281
0.0759404
0.0733434
0.0711146
0.0694458
0.0685682
0.0686279
0.0695855
0.0711855
0.0730235
0.0748963
0.0759853
0.10808
0.108947
0.109936
0.110789
0.11151
0.1121
0.112479
0.112522
0.112091
0.111036
0.109225
0.106579
0.103128
0.0990409
0.0945994
0.0901384
0.0859644
0.0822376
0.0789476
0.0760382
0.0735086
0.0714693
0.0701047
0.0695943
0.0700032
0.0712104
0.0728975
0.0746824
0.0763553
0.0772629
0.107586
0.108453
0.109441
0.110312
0.11107
0.111709
0.112145
0.112262
0.111921
0.11097
0.109268
0.106724
0.103355
0.0993159
0.0948792
0.0903835
0.0861565
0.0823731
0.079033
0.0761235
0.0736862
0.0718502
0.070777
0.0705861
0.0712715
0.072651
0.0743595
0.0760459
0.077499
0.078274
0.107127
0.107989
0.108972
0.109861
0.110657
0.111345
0.111839
0.112026
0.111771
0.110919
0.109318
0.106867
0.103568
0.0995657
0.0951231
0.0905824
0.0862995
0.0824652
0.0790838
0.0761874
0.0738583
0.0722388
0.0714405
0.0715171
0.0724037
0.073883
0.0755746
0.0771605
0.0784068
0.0790991
0.106712
0.107552
0.10852
0.109428
0.110266
0.111003
0.111554
0.111813
0.111642
0.110883
0.109378
0.107012
0.103774
0.0997995
0.0953419
0.0907476
0.0864065
0.0825257
0.0791157
0.0762586
0.0740473
0.072635
0.0720786
0.0723732
0.0734054
0.0749202
0.0765401
0.0780221
0.079129
0.0798383
0.106325
0.107144
0.10809
0.109011
0.10989
0.110677
0.111287
0.111619
0.111534
0.110867
0.109452
0.107161
0.10397
0.10001
0.0955219
0.0908602
0.0864603
0.0825354
0.0790819
0.0762533
0.0742049
0.0730053
0.0726574
0.0731159
0.0742639
0.0758235
0.0773746
0.0787182
0.0796806
0.0805182
0.105978
0.106775
0.107681
0.10861
0.109528
0.110364
0.111034
0.11144
0.111441
0.110868
0.109545
0.107329
0.104181
0.100233
0.0957097
0.0909682
0.0865074
0.0825626
0.0790988
0.0763178
0.0743914
0.0733699
0.0731736
0.0737149
0.0748933
0.0764804
0.0780735
0.0794187
0.0803204
0.0812967
0.105668
0.106425
0.10729
0.108226
0.109176
0.11006
0.110791
0.111276
0.111368
0.110884
0.109646
0.107491
0.10436
0.100397
0.0958142
0.0909883
0.0864464
0.0824461
0.078963
0.0762926
0.0745251
0.0736899
0.0736283
0.0742453
0.0754196
0.0769015
0.0783832
0.0796663
0.0807154
0.0821412
0.105394
0.106085
0.106912
0.107858
0.108836
0.109761
0.110545
0.111085
0.111291
0.110913
0.109777
0.107706
0.104634
0.100651
0.0959879
0.0910681
0.0865136
0.0824749
0.0789516
0.0763055
0.0746733
0.0739909
0.0739901
0.0746726
0.0760357
0.0777389
0.0792455
0.080361
0.0814113
0.0829638
0.105199
0.105758
0.106537
0.107506
0.108545
0.10954
0.110404
0.111032
0.111276
0.110977
0.109909
0.107863
0.104767
0.100712
0.0959432
0.0908938
0.0863417
0.0823453
0.0788221
0.0762809
0.0748064
0.0741721
0.0741393
0.0746404
0.0758288
0.0775642
0.0791992
0.0805509
0.081983
0.0837748
0.105112
0.105474
0.106115
0.106993
0.108017
0.109055
0.10999
0.110738
0.111149
0.111032
0.110129
0.108233
0.105224
0.101096
0.0962053
0.0910187
0.0862555
0.0820195
0.0785355
0.0761192
0.0748529
0.0743864
0.0745023
0.0751616
0.0766485
0.0785193
0.0801522
0.0815016
0.0828816
0.084287
-0.100149
-0.0840493
-0.044676
0.00643228
0.0246613
0.0477459
0.0555436
0.0640592
0.0680646
0.0709804
0.0725277
0.073344
0.0736892
0.0737733
0.0737375
0.0736732
0.0736341
0.0736424
0.0737162
0.0738458
0.0740343
0.0742478
0.074526
0.0747746
0.0751405
0.0754497
0.0759944
0.0764507
0.0774642
0.0761479
-0.101355
-0.0908925
-0.0517316
0.00131346
0.0236156
0.0461012
0.0556259
0.0640198
0.068757
0.0718013
0.0735193
0.0743968
0.0747413
0.0747729
0.0746469
0.0744684
0.074303
0.0741855
0.0741389
0.0741594
0.0742541
0.0743862
0.0745831
0.0747761
0.0750332
0.0752291
0.0755185
0.075605
0.0760286
0.0754426
-0.101982
-0.0956551
-0.0614471
-0.00557994
0.021281
0.0432667
0.0548799
0.063593
0.0691638
0.0725957
0.07458
0.0755874
0.0759605
0.0759455
0.0757198
0.0754074
0.0750917
0.0748236
0.0746341
0.0745292
0.0745126
0.0745629
0.0746811
0.0748294
0.0750166
0.0751822
0.0753816
0.0754808
0.0757519
0.0758188
-0.102191
-0.0975349
-0.0702112
-0.0114247
0.0195346
0.0416229
0.0547623
0.0639449
0.0700486
0.0738056
0.0759478
0.0769911
0.0773152
0.0771967
0.0768351
0.0763707
0.0759001
0.0754863
0.0751673
0.0749552
0.0748511
0.0748407
0.0749134
0.0750458
0.0752298
0.0754343
0.075676
0.0758972
0.0761787
0.0763619
-0.102868
-0.0967787
-0.0775799
-0.0172413
0.017669
0.0405488
0.0548243
0.0645412
0.0710653
0.0751435
0.0774581
0.0785482
0.0788264
0.0785991
0.0780911
0.0774602
0.076816
0.0762349
0.0757644
0.0754238
0.0752155
0.0751274
0.0751441
0.075244
0.0754105
0.0756186
0.0758616
0.0761058
0.0763685
0.0765716
-0.104541
-0.0973226
-0.0853581
-0.0246748
0.0146116
0.039078
0.0545045
0.0649005
0.0719174
0.076401
0.078987
0.0802056
0.0804916
0.0801816
0.0795293
0.0787152
0.0778671
0.0770804
0.0764183
0.0759112
0.075566
0.0753724
0.0753114
0.0753588
0.0754908
0.0756814
0.0759124
0.0761597
0.0764251
0.0766648
-0.106879
-0.102371
-0.0948391
-0.0341501
0.0101401
0.0369097
0.0537176
0.0649586
0.0725585
0.0775163
0.080455
0.0818785
0.0822264
0.0818638
0.081082
0.0800849
0.0790174
0.0779965
0.0771069
0.0763969
0.0758845
0.0755627
0.07541
0.0753986
0.0754993
0.0756817
0.0759202
0.0761897
0.0764826
0.0767535
-0.109461
-0.110506
-0.104891
-0.0445406
0.00452406
0.0340033
0.0524736
0.0647083
0.0729589
0.0784245
0.0817529
0.0834355
0.0839123
0.0835531
0.0826715
0.0814985
0.0802025
0.0789275
0.0777844
0.076843
0.0761361
0.0756629
0.0754013
0.0753213
0.0753898
0.07557
0.0758267
0.0761287
0.0764626
0.076774
-0.111938
-0.119154
-0.114323
-0.0551705
-0.00227494
0.0302285
0.050622
0.0640097
0.0729923
0.0790068
0.0827595
0.084729
0.085349
0.0850305
0.0841134
0.0828264
0.08133
0.0797756
0.0783182
0.0770898
0.076159
0.0755257
0.0751543
0.0750055
0.0750493
0.0752401
0.0755301
0.0758801
0.0762726
0.0766456
-0.114142
-0.126977
-0.122614
-0.0663218
-0.0100878
0.0253459
0.0478621
0.0625806
0.0724299
0.0790964
0.0833562
0.0856605
0.0864391
0.0861501
0.0851757
0.0837952
0.0821899
0.0804707
0.078737
0.0771427
0.0758716
0.0750043
0.0745038
0.07427
0.0742991
0.0745309
0.0748936
0.075331
0.0758172
0.0762848
-0.116167
-0.133476
-0.129358
-0.0768742
-0.0190194
0.0190949
0.0438148
0.0600209
0.0708714
0.0782425
0.0829918
0.0855975
0.0865508
0.0863397
0.0853263
0.0837922
0.0819859
0.0800869
0.0781946
0.0764461
0.0749523
0.0738617
0.073276
0.0729199
0.0729454
0.0732536
0.0737415
0.0743255
0.0749599
0.0755733
-0.117551
-0.138162
-0.134556
-0.0859427
-0.0292131
0.0112544
0.0380719
0.0557288
0.0674275
0.075307
0.0804395
0.0833769
0.0846427
0.0847456
0.084096
0.0828672
0.0810567
0.0787957
0.0764097
0.0741177
0.0721621
0.0713306
0.0708172