/*--------------------------------*- C++ -*----------------------------------*\
  =========                 |
  \\      /  F ield         | OpenFOAM: The Open Source CFD Toolbox
   \\    /   O peration     | Website:  https://openfoam.org
    \\  /    A nd           | Version:  11
     \\/     M anipulation  |
\*---------------------------------------------------------------------------*/
FoamFile
{
    format      ascii;
    class       volScalarField;
    location    "0.8";
    object      p;
}
// * * * * * * * * * * * * * * * * * * * * * * * * * * * * * * * * * * * * * //

dimensions      [0 2 -2 0 0 0 0];

internalField   nonuniform List<scalar> 
12600
(
0.151316
0.151217
0.151129
0.151046
0.150948
0.150823
0.15067
0.150487
0.150271
0.150015
0.149716
0.149367
0.148961
0.148491
0.147945
0.14731
0.146571
0.145713
0.144715
0.143554
0.142206
0.14064
0.138821
0.136708
0.134253
0.131399
0.128083
0.124229
0.119794
0.114607
0.151263
0.15121
0.151137
0.151056
0.150958
0.150836
0.150687
0.150506
0.150292
0.15004
0.149746
0.149401
0.149001
0.148539
0.147998
0.147368
0.146637
0.145791
0.144807
0.143664
0.142336
0.140794
0.139001
0.136914
0.134483
0.131652
0.128359
0.124528
0.120101
0.114973
0.15126
0.151227
0.151165
0.151085
0.150988
0.150869
0.150723
0.150546
0.150337
0.150091
0.149803
0.149467
0.149076
0.148622
0.148094
0.147482
0.146772
0.145948
0.144989
0.143875
0.14258
0.141075
0.139322
0.13728
0.1349
0.132124
0.128883
0.125107
0.120701
0.11561
0.151274
0.15125
0.151196
0.15112
0.151026
0.150911
0.15077
0.150601
0.150399
0.150162
0.149885
0.149561
0.149185
0.148748
0.14824
0.14765
0.146965
0.146171
0.145249
0.144177
0.142932
0.141483
0.139795
0.137825
0.135522
0.132829
0.129672
0.125977
0.12163
0.116579
0.151306
0.151287
0.151239
0.151169
0.15108
0.150971
0.150837
0.150676
0.150484
0.150259
0.149994
0.149686
0.149328
0.148912
0.14843
0.14787
0.147221
0.146468
0.145594
0.144579
0.143397
0.142021
0.140416
0.138539
0.13634
0.133759
0.13072
0.127143
0.122897
0.117931
0.151352
0.151335
0.151293
0.151229
0.151146
0.151043
0.150918
0.150766
0.150586
0.150374
0.150127
0.149838
0.149503
0.149113
0.148662
0.148138
0.147531
0.146828
0.146011
0.145063
0.14396
0.142674
0.141173
0.139415
0.137349
0.134914
0.132032
0.128616
0.124516
0.119683
0.15141
0.151395
0.151358
0.1513
0.151224
0.151129
0.151013
0.150873
0.150707
0.150511
0.150283
0.150016
0.149707
0.149348
0.148933
0.148452
0.147895
0.14725
0.146502
0.145633
0.144622
0.143444
0.142066
0.140449
0.138544
0.136289
0.133603
0.130396
0.126501
0.121861
0.151479
0.151466
0.151433
0.151381
0.151312
0.151226
0.151121
0.150994
0.150843
0.150666
0.150459
0.150218
0.149939
0.149615
0.14924
0.148807
0.148306
0.147726
0.147055
0.146275
0.14537
0.144314
0.143078
0.141627
0.139911
0.137873
0.135428
0.132484
0.12886
0.124491
0.151558
0.151547
0.151518
0.151472
0.151411
0.151334
0.151241
0.151128
0.150994
0.150837
0.150654
0.150441
0.150194
0.149909
0.149579
0.149199
0.14876
0.148252
0.147666
0.146986
0.146197
0.145278
0.144202
0.142937
0.141439
0.139652
0.137494
0.134873
0.131598
0.127595
0.151645
0.151636
0.151611
0.151571
0.151518
0.151452
0.151371
0.151274
0.151158
0.151023
0.150865
0.150683
0.150471
0.150227
0.149946
0.149622
0.14925
0.14882
0.148325
0.147753
0.14709
0.14632
0.14542
0.144361
0.143107
0.141605
0.139781
0.137545
0.134705
0.13118
0.15174
0.151732
0.151711
0.151678
0.151634
0.151578
0.151511
0.15143
0.151334
0.151221
0.151091
0.15094
0.150766
0.150566
0.150336
0.150072
0.149769
0.149423
0.149024
0.148566
0.148038
0.147427
0.146715
0.14588
0.144892
0.143707
0.14226
0.14047
0.138155
0.135231
0.15184
0.151834
0.151817
0.151791
0.151756
0.151712
0.151658
0.151594
0.151518
0.15143
0.151327
0.15121
0.151075
0.15092
0.150743
0.150542
0.150313
0.150052
0.149754
0.149414
0.149026
0.148581
0.148067
0.147469
0.146765
0.145922
0.14489
0.143602
0.141901
0.139702
0.151945
0.151941
0.151928
0.151909
0.151883
0.15185
0.151811
0.151764
0.151709
0.151646
0.151572
0.151489
0.151394
0.151286
0.151164
0.151027
0.150872
0.150699
0.150504
0.150286
0.150041
0.149766
0.149456
0.149102
0.148693
0.148211
0.147622
0.146881
0.145868
0.144509
0.152054
0.152051
0.152043
0.15203
0.152014
0.151993
0.151968
0.151939
0.151905
0.151867
0.151823
0.151774
0.15172
0.151659
0.151593
0.15152
0.151441
0.151355
0.151264
0.151168
0.151067
0.150963
0.150857
0.150749
0.15064
0.150526
0.150395
0.150227
0.149954
0.149522
0.152165
0.152164
0.15216
0.152154
0.152147
0.152138
0.152128
0.152116
0.152104
0.15209
0.152076
0.152062
0.152048
0.152035
0.152024
0.152015
0.152011
0.152013
0.152024
0.152048
0.152089
0.152153
0.152247
0.152382
0.152568
0.152817
0.153141
0.15355
0.154035
0.154573
0.152277
0.152278
0.152278
0.152279
0.152281
0.152283
0.152288
0.152294
0.152302
0.152314
0.15233
0.15235
0.152376
0.15241
0.152453
0.152507
0.152576
0.152663
0.152774
0.152914
0.153092
0.153317
0.153604
0.15397
0.154437
0.155032
0.155791
0.156752
0.157971
0.159462
0.152389
0.152391
0.152396
0.152403
0.152414
0.152428
0.152447
0.15247
0.152499
0.152536
0.15258
0.152634
0.1527
0.152779
0.152874
0.15299
0.153129
0.153299
0.153504
0.153755
0.154062
0.15444
0.154906
0.155486
0.156212
0.157123
0.158277
0.159739
0.16162
0.163979
0.1525
0.152503
0.152512
0.152526
0.152545
0.152571
0.152603
0.152643
0.152692
0.152753
0.152825
0.152911
0.153015
0.153138
0.153284
0.153458
0.153665
0.153911
0.154207
0.154561
0.154988
0.155504
0.156134
0.156906
0.15786
0.159047
0.16054
0.162425
0.164856
0.167932
0.152608
0.152613
0.152626
0.152646
0.152673
0.152709
0.152754
0.152811
0.152879
0.152962
0.153061
0.153179
0.153318
0.153483
0.153677
0.153906
0.154176
0.154495
0.154873
0.155322
0.155857
0.156499
0.157272
0.15821
0.159357
0.160771
0.162533
0.164744
0.167581
0.171173
0.152713
0.152719
0.152735
0.152761
0.152796
0.152842
0.1529
0.152971
0.153058
0.153163
0.153287
0.153434
0.153607
0.153811
0.15405
0.15433
0.154658
0.155043
0.155496
0.15603
0.156662
0.157412
0.158307
0.159383
0.160684
0.162272
0.164229
0.16666
0.169745
0.173623
0.152813
0.152821
0.15284
0.15287
0.152913
0.152968
0.153037
0.153123
0.153227
0.153352
0.1535
0.153674
0.153879
0.154119
0.154399
0.154726
0.155107
0.155552
0.156072
0.156681
0.157396
0.158237
0.159233
0.160417
0.161834
0.163541
0.165618
0.168164
0.171339
0.17528
0.152908
0.152917
0.152938
0.152973
0.153022
0.153086
0.153166
0.153265
0.153385
0.153528
0.153698
0.153897
0.154131
0.154403
0.154721
0.15509
0.155519
0.156017
0.156596
0.157269
0.158054
0.158971
0.160046
0.16131
0.162805
0.164582
0.16671
0.169275
0.172404
0.176212
0.152997
0.153006
0.15303
0.153069
0.153123
0.153194
0.153284
0.153395
0.153529
0.153689
0.153878
0.1541
0.15436
0.154662
0.155013
0.15542
0.15589
0.156434
0.157063
0.157791
0.158633
0.15961
0.160743
0.162063
0.163603
0.165407
0.167529
0.170035
0.173009
0.176539
0.153079
0.153088
0.153114
0.153155
0.153214
0.153292
0.153391
0.153512
0.153659
0.153834
0.15404
0.154282
0.154565
0.154893
0.155273
0.155713
0.156219
0.156803
0.157475
0.158247
0.159136
0.160157
0.161333
0.162686
0.164244
0.16604
0.168112
0.170502
0.173252
0.176415
0.153154
0.153163
0.153189
0.153232
0.153295
0.153378
0.153484
0.153615
0.153772
0.15396
0.154182
0.154441
0.154744
0.155095
0.1555
0.155967
0.156504
0.157119
0.157825
0.158633
0.159557
0.160612
0.161815
0.163185
0.164741
0.166506
0.168499
0.170743
0.173234
0.175997
0.153221
0.15323
0.153254
0.153297
0.153363
0.153452
0.153564
0.153703
0.153869
0.154068
0.154302
0.154576
0.154895
0.155265
0.155691
0.156182
0.156744
0.157387
0.158121
0.158956
0.159906
0.160983
0.162202
0.163575
0.165116
0.166836
0.168738
0.170825
0.173058
0.175431
0.153283
0.153289
0.153309
0.153351
0.153419
0.153512
0.153629
0.153773
0.153947
0.154154
0.154399
0.154685
0.155018
0.155403
0.155845
0.156354
0.156935
0.157598
0.158352
0.159208
0.160177
0.161269
0.162496
0.163865
0.165385
0.167055
0.168868
0.170807
0.17281
0.174846
0.15334
0.153339
0.153352
0.153394
0.153465
0.15356
0.15368
0.153828
0.154008
0.154222
0.154474
0.154769
0.155111
0.155507
0.155964
0.156487
0.157084
0.157762
0.15853
0.159399
0.160379
0.161479
0.162708
0.164071
0.165568
0.167194
0.168929
0.170746
0.172568
0.174347
0.153399
0.153373
0.153375
0.153417
0.153491
0.153589
0.153712
0.153863
0.154047
0.154266
0.154523
0.154824
0.155173
0.155577
0.156041
0.156574
0.15718
0.157868
0.158647
0.159524
0.160511
0.161615
0.162842
0.164196
0.165673
0.167262
0.168939
0.170663
0.17237
0.17402
0.153482
0.153407
0.15339
0.153433
0.153508
0.153607
0.15373
0.153883
0.154069
0.15429
0.15455
0.154853
0.155207
0.155615
0.156086
0.156624
0.157235
0.157926
0.158707
0.159586
0.160574
0.161678
0.162903
0.164251
0.165716
0.167285
0.168927
0.170597
0.17224
0.173759
0.110586
0.108753
0.107471
0.106471
0.105414
0.104252
0.103045
0.10182
0.100574
0.0992937
0.0979721
0.0966
0.0951641
0.093646
0.0920229
0.090267
0.0883438
0.086211
0.0838152
0.0810872
0.0779361
0.0742411
0.0698333
0.0644904
0.0578545
0.0495293
0.0386407
0.02384
0.00769282
-0.0345338
0.111511
0.110122
0.108927
0.107881
0.106804
0.10567
0.10453
0.103402
0.102271
0.101119
0.0999356
0.0987115
0.0974328
0.096083
0.0946426
0.0930887
0.0913934
0.0895218
0.0874296
0.0850598
0.0823371
0.0791623
0.075397
0.0708615
0.0652612
0.058294
0.0491525
0.0373122
0.0224249
-0.0100147
0.111876
0.110792
0.109828
0.108881
0.107914
0.106936
0.105967
0.105003
0.104027
0.103028
0.102
0.100937
0.0998296
0.0986648
0.0974282
0.0961021
0.0946645
0.0930879
0.0913374
0.089368
0.0871208
0.0845182
0.0814518
0.0777821
0.0732749
0.0677073
0.0603892
0.051156
0.0384256
0.0144926
0.112796
0.112002
0.111291
0.110479
0.10962
0.108772
0.107939
0.107107
0.106267
0.105413
0.104544
0.103654
0.102735
0.101777
0.10077
0.0996989
0.0985493
0.0973006
0.0959273
0.0943967
0.0926656
0.0906766
0.0883494
0.0855803
0.0821896
0.078021
0.0724905
0.0656516
0.0554309
0.0387079
0.114142
0.113557
0.113037
0.112348
0.111601
0.11089
0.11021
0.109536
0.108859
0.10818
0.107497
0.106806
0.1061
0.105374
0.104623
0.103837
0.103007
0.10212
0.10116
0.100106
0.0989286
0.0975905
0.0960357
0.0941925
0.0919291
0.0891418
0.0853481
0.0807482
0.0731354
0.062434
0.115909
0.115516
0.11519
0.114646
0.114038
0.113481
0.112967
0.112463
0.111961
0.111468
0.110984
0.110506
0.110034
0.109563
0.109093
0.108619
0.108137
0.107643
0.107127
0.106579
0.105985
0.105322
0.104557
0.103644
0.102493
0.101039
0.0988979
0.0963571
0.0912531
0.0854572
0.118138
0.117935
0.117805
0.117416
0.116954
0.116558
0.116218
0.115896
0.115586
0.115295
0.11503
0.11479
0.114573
0.114382
0.114218
0.114082
0.113975
0.113897
0.11385
0.113831
0.113837
0.113859
0.113883
0.113885
0.113806
0.113612
0.113006
0.112307
0.109499
0.107575
0.120875
0.120865
0.120934
0.120709
0.120405
0.120183
0.120031
0.119906
0.119803
0.119733
0.119704
0.119718
0.119776
0.119884
0.120045
0.120266
0.120552
0.120909
0.121344
0.121863
0.122471
0.123172
0.123964
0.124839
0.125766
0.126727
0.127501
0.128388
0.127585
0.128591
0.124166
0.124349
0.124619
0.124568
0.124433
0.124395
0.124443
0.124528
0.124645
0.124809
0.125031
0.125314
0.125662
0.126083
0.126583
0.127173
0.127861
0.128659
0.129577
0.130629
0.131825
0.133178
0.134695
0.13638
0.138216
0.140198
0.142161
0.144349
0.145216
0.148311
0.128042
0.128418
0.128885
0.129015
0.12906
0.129217
0.129473
0.129778
0.130126
0.130534
0.131016
0.131578
0.132224
0.132963
0.133808
0.134768
0.135856
0.137087
0.138475
0.140037
0.141788
0.143745
0.145922
0.148327
0.150953
0.153796
0.156731
0.159927
0.162112
0.166549
0.13251
0.133073
0.13373
0.134045
0.134279
0.134635
0.135105
0.135634
0.136217
0.136874
0.137619
0.138459
0.139402
0.140458
0.141639
0.142958
0.144431
0.146073
0.147901
0.149933
0.152187
0.154681
0.157431
0.160446
0.163722
0.16725
0.17093
0.174851
0.178017
0.183155
0.137538
0.138276
0.139109
0.139607
0.140033
0.140591
0.141272
0.142024
0.142839
0.14374
0.144741
0.145852
0.14708
0.148437
0.149936
0.151591
0.153418
0.155433
0.157654
0.1601
0.162788
0.165735
0.168954
0.172455
0.176229
0.18026
0.184459
0.188848
0.192671
0.197998
0.143041
0.143935
0.14492
0.145595
0.146212
0.146966
0.147849
0.148811
0.149847
0.150978
0.15222
0.153582
0.155072
0.156703
0.158488
0.160442
0.16258
0.164917
0.167472
0.17026
0.173299
0.176602
0.180179
0.184032
0.188149
0.192503
0.197006
0.201629
0.205805
0.210918
0.148868
0.149892
0.151
0.151839
0.152637
0.153573
0.15464
0.155793
0.157029
0.158367
0.159823
0.161407
0.163126
0.164994
0.167022
0.169226
0.17162
0.174218
0.177035
0.180087
0.183387
0.186943
0.190762
0.194838
0.19915
0.203658
0.208273
0.212917
0.217148
0.221752
0.154805
0.155929
0.157124
0.158106
0.159069
0.160164
0.161389
0.162706
0.164113
0.165626
0.167261
0.169027
0.170934
0.172991
0.175213
0.177611
0.180198
0.182989
0.185995
0.189228
0.192698
0.19641
0.200362
0.204542
0.20892
0.213444
0.218016
0.222515
0.226564
0.23051
0.160582
0.161774
0.163023
0.164119
0.165221
0.166448
0.167799
0.169245
0.170785
0.172435
0.174208
0.176113
0.178159
0.180355
0.182714
0.185247
0.187965
0.19088
0.194002
0.197338
0.200895
0.204673
0.208665
0.212851
0.217194
0.221631
0.226057
0.230323
0.234113
0.237482
0.165908
0.167138
0.168409
0.169588
0.170797
0.172123
0.173563
0.1751
0.176734
0.178477
0.180343
0.18234
0.184475
0.186758
0.189199
0.191809
0.194597
0.197572
0.200742
0.204112
0.207684
0.211454
0.21541
0.219527
0.22376
0.228039
0.232252
0.236233
0.239707
0.242464
0.170514
0.171754
0.173022
0.174251
0.175531
0.176917
0.17841
0.179998
0.181684
0.183479
0.185393
0.187434
0.18961
0.19193
0.194402
0.197034
0.199836
0.202814
0.205974
0.209318
0.212845
0.216548
0.220409
0.224398
0.228465
0.232532
0.236479
0.240119
0.243184
0.245273
0.174191
0.17542
0.176667
0.177915
0.179227
0.180637
0.182145
0.183746
0.185445
0.18725
0.18917
0.191213
0.193385
0.195695
0.19815
0.200758
0.203525
0.206457
0.209557
0.212825
0.216258
0.219843
0.223561
0.227376
0.231232
0.235043
0.238681
0.241949
0.24458
0.246137
0.176831
0.178032
0.179245
0.180481
0.181788
0.183187
0.184677
0.186256
0.18793
0.189707
0.191594
0.193599
0.195727
0.197986
0.200383
0.202924
0.205615
0.208459
0.211458
0.214611
0.217911
0.221344
0.224886
0.228496
0.232115
0.235646
0.238956
0.241834
0.244032
0.245008
0.178448
0.179608
0.180779
0.181978
0.183246
0.184602
0.186043
0.18757
0.189188
0.190904
0.192725
0.194658
0.196708
0.198881
0.201185
0.203624
0.206202
0.208923
0.211787
0.21479
0.217924
0.221173
0.224508
0.227885
0.231239
0.234465
0.237427
0.239872
0.24161
0.241654
0.179149
0.180255
0.181375
0.182516
0.183719
0.185004
0.186372
0.187821
0.189356
0.190983
0.192709
0.19454
0.196481
0.198539
0.200718
0.203024
0.205459
0.208025
0.210722
0.213543
0.21648
0.219511
0.222607
0.22572
0.228777
0.231667
0.234253
0.236234
0.23757
0.236552
0.179114
0.180152
0.181211
0.182275
0.18339
0.184583
0.185856
0.187205
0.188633
0.190147
0.191753
0.193458
0.195265
0.19718
0.199207
0.201351
0.203613
0.205995
0.208495
0.211105
0.213813
0.216598
0.219425
0.222241
0.224972
0.227493
0.229672
0.231136
0.232034
0.230121
0.178567
0.179521
0.180504
0.181476
0.182486
0.183571
0.184732
0.185963
0.187266
0.188647
0.190114
0.191671
0.193322
0.195072
0.196924
0.198883
0.200949
0.203122
0.205398
0.207769
0.21022
0.212726
0.21525
0.217734
0.220097
0.222197
0.223909
0.224764
0.225059
0.221972
0.177719
0.178574
0.179468
0.180338
0.181235
0.1822
0.183237
0.184338
0.185504
0.186739
0.188052
0.189446
0.190925
0.192493
0.194152
0.195906
0.197755
0.199696
0.201725
0.20383
0.205995
0.208192
0.210377
0.212485
0.214428
0.216043
0.217204
0.217333
0.216878
0.212262
0.17676
0.177502
0.178291
0.179051
0.179828
0.180666
0.181568
0.182526
0.183541
0.184619
0.185765
0.186984
0.188279
0.189653
0.191107
0.192643
0.19426
0.195954
0.197717
0.199538
0.201393
0.203252
0.205065
0.206757
0.20823
0.209295
0.209821
0.209106
0.207798
0.201314
0.175849
0.176466
0.17714
0.177793
0.178458
0.179171
0.179939
0.180754
0.181617
0.182533
0.183507
0.184543
0.185644
0.186813
0.18805
0.189357
0.190729
0.192162
0.193645
0.195162
0.196687
0.198183
0.199592
0.200829
0.201782
0.20223
0.202041
0.200356
0.198098
0.189353
0.175103
0.175548
0.176063
0.176594
0.177141
0.177717
0.17833
0.178984
0.179683
0.180432
0.181233
0.182087
0.182996
0.183962
0.184985
0.186063
0.187192
0.188363
0.189564
0.190775
0.191965
0.193088
0.194081
0.194841
0.195244
0.195029
0.194065
0.191296
0.188033
0.176566
0.174828
0.175056
0.175381
0.175819
0.176286
0.176765
0.177252
0.17775
0.178271
0.178832
0.179439
0.180094
0.180797
0.181549
0.182347
0.183188
0.184064
0.184966
0.185876
0.186768
0.187607
0.188339
0.188888
0.189137
0.188942
0.188001
0.186177
0.182162
0.177919
0.163106
0.174472
0.17438
0.174501
0.174811
0.175124
0.175385
0.17566
0.176005
0.176407
0.176834
0.177286
0.17777
0.17829
0.178846
0.179436
0.180056
0.180697
0.181348
0.181988
0.182589
0.183107
0.183479
0.183617
0.183386
0.182621
0.180972
0.178314
0.172877
0.168065
0.14914
0.135382
0.121377
0.106652
0.0920263
0.0781983
0.0654503
0.0541893
0.0448668
0.0381551
0.0345901
0.0349118
0.0394589
0.0486496
0.0627087
0.0799898
0.0945704
0.101213
0.101004
0.0986324
0.0981315
0.0985258
0.0982715
0.0981122
0.0978569
0.0958721
0.0922569
0.0887862
0.0878176
0.0884817
0.0892769
0.15884
0.147149
0.134391
0.121918
0.109891
0.098491
0.0881979
0.0793504
0.0722669
0.067133
0.0651082
0.0666362
0.0711385
0.0789861
0.0899517
0.100441
0.104655
0.101759
0.0989076
0.0999258
0.0994826
0.0981072
0.0968045
0.095102
0.0924532
0.0884578
0.0851913
0.085427
0.0868648
0.0880802
0.163878
0.152908
0.141341
0.12962
0.117806
0.10659
0.0963155
0.0871593
0.0794068
0.0736707
0.0706624
0.0708015
0.0737969
0.079683
0.0876372
0.0953173
0.0984856
0.0980272
0.0979315
0.0996587
0.099406
0.0973592
0.0932876
0.0901464
0.0891539
0.0878343
0.0872697
0.0880822
0.0883886
0.0866423
0.171405
0.162426
0.152088
0.141447
0.130917
0.12064
0.110652
0.101278
0.0930641
0.0865899
0.082367
0.0807542
0.0817158
0.0850352
0.0899293
0.0949315
0.0977383
0.0980209
0.0974078
0.0976651
0.096863
0.0945415
0.0902248
0.0879255
0.0883878
0.0924847
0.0965954
0.097891
0.0954742
0.0876559
0.175023
0.166998
0.157823
0.148382
0.138828
0.129138
0.11952
0.110392
0.102236
0.0955111
0.090656
0.0880327
0.087718
0.0894583
0.0925801
0.095868
0.0979682
0.0982078
0.0975892
0.096724
0.0949859
0.0928269
0.0899131
0.0889035
0.0932649
0.103096
0.11097
0.109572
0.102224
0.0869416
0.177587
0.170723
0.162691
0.15423
0.145455
0.13635
0.127133
0.118199
0.109981
0.102916
0.0974337
0.0938976
0.0924351
0.0928443
0.0945568
0.0965063
0.0979332
0.0979303
0.097126
0.0961412
0.0947076
0.0928859
0.0918804
0.0941143
0.101688
0.112941
0.119508
0.115913
0.101849
0.0791211
0.179075
0.17315
0.166078
0.158494
0.1505
0.142068
0.133367
0.124745
0.116608
0.109378
0.10347
0.0992355
0.096834
0.0961252
0.096636
0.0975623
0.0981419
0.0977649
0.0967492
0.0956177
0.094457
0.0935983
0.0938814
0.097407
0.105927
0.116277
0.119062
0.112441
0.0918415
0.063158
0.1799
0.174798
0.168599
0.161813
0.154524
0.1467
0.138478
0.130171
0.122164
0.114857
0.108646
0.103875
0.100725
0.099114
0.0986528
0.098689
0.0985402
0.0977735
0.0965282
0.0951932
0.09401
0.0934273
0.0941189
0.0972204
0.103249
0.109462
0.108395
0.0973667
0.0742855
0.041292
0.180261
0.175866
0.170429
0.164353
0.157704
0.150451
0.142702
0.134731
0.126893
0.119565
0.113129
0.107925
0.104154
0.101782
0.100497
0.0997523
0.0989754
0.0978009
0.0962757
0.0946986
0.0933352
0.092554
0.0928076
0.0944408
0.0968708
0.0974977
0.0915715
0.0754365
0.0509905
0.0163016
0.180315
0.176524
0.171753
0.166308
0.160243
0.15352
0.146225
0.138595
0.130952
0.123651
0.117059
0.11151
0.107223
0.104203
0.102204
0.100771
0.0994127
0.0978057
0.0959471
0.0940595
0.0923723
0.0911211
0.0904651
0.0901857
0.0891101
0.0847652
0.0740603
0.0538167
0.0264575
-0.00815574
0.180165
0.176889
0.172686
0.167812
0.162277
0.156045
0.149179
0.141884
0.13445
0.12721
0.120515
0.114693
0.109974
0.1064
0.10378
0.101731
0.099829
0.0977802
0.0955463
0.0932762
0.09113
0.0891999
0.0873754
0.085069
0.0808691
0.0725871
0.0577332
0.0349757
0.0047453
-0.0288661
0.179886
0.177055
0.173352
0.168971
0.163916
0.158135
0.151671
0.144701
0.137484
0.130328
0.123569
0.117529
0.112445
0.10839
0.10522
0.102615
0.1002
0.097707
0.0950641
0.0923511
0.0896415
0.0868866
0.0837629
0.0794715
0.0725655
0.0612691
0.0436834
0.0195231
-0.011958
-0.0428901
0.17953
0.177081
0.17381
0.169866
0.165243
0.159876
0.153788
0.147128
0.140129
0.133074
0.126281
0.120065
0.114671
0.110194
0.106532
0.103417
0.100517
0.0975767
0.0944978
0.0912929
0.0879468
0.084285
0.079833
0.073697
0.0645323
0.0509826
0.0318312
0.00769818
-0.0225183
-0.0494912
0.179131
0.177012
0.174116
0.170559
0.166325
0.161337
0.155599
0.149233
0.142448
0.135504
0.1287
0.122343
0.116681
0.111831
0.107725
0.104138
0.100774
0.0973879
0.0938529
0.0901203
0.0860922
0.0814919
0.0757522
0.0679704
0.0569909
0.0418623
0.0220289
-0.00140633
-0.0285087
-0.0519518
0.178717
0.176883
0.174313
0.171099
0.167216
0.162574
0.157158
0.15107
0.144494
0.137666
0.130867
0.124395
0.118501
0.113317
0.108807
0.104781
0.100972
0.097142
0.0931377
0.0888547
0.0841227
0.0785896
0.0716454
0.0624426
0.050059
0.0339285
0.01405
-0.00821087
-0.032193
-0.0527223
0.178304
0.17672
0.174434
0.171524
0.167956
0.16363
0.158513
0.152685
0.146308
0.139598
0.132816
0.12625
0.120152
0.114667
0.109786
0.105348
0.101112
0.0968418
0.0923613
0.0875166
0.0820781
0.0756439
0.0676026
0.0572063
0.0437832
0.0271178
0.00763291
-0.013178
-0.0342894
-0.0519023
0.177904
0.176539
0.174502
0.171862
0.16858
0.164542
0.1597
0.154115
0.147928
0.141334
0.134578
0.127933
0.121654
0.115895
0.110669
0.105844
0.101195
0.0964919
0.0915337
0.0861254
0.0799917
0.0727051
0.0636848
0.0523113
0.0381612
0.0213258
0.00253925
-0.0166698
-0.0350852
-0.0500334
0.177526
0.176355
0.174537
0.172138
0.169114
0.165339
0.16075
0.155391
0.149384
0.142904
0.136176
0.129465
0.123022
0.117012
0.111465
0.106273
0.101227
0.0960975
0.0906644
0.0846982
0.077891
0.0698103
0.0599306
0.0477765
0.0331607
0.0164346
-0.00144476
-0.0189582
-0.034777
-0.0469328
0.177175
0.176177
0.174552
0.17237
0.169579
0.166044
0.161689
0.15654
0.150702
0.14433
0.137633
0.130864
0.124271
0.118028
0.112181
0.106639
0.101211
0.0956636
0.089762
0.0832492
0.0757969
0.0669847
0.05636
0.0435983
0.0287307
0.0123248
-0.00450685
-0.0202725
-0.0336011
-0.0430342
0.176853
0.17601
0.174559
0.172571
0.169993
0.166679
0.162538
0.157584
0.151904
0.145633
0.138967
0.132146
0.125415
0.118953
0.112823
0.106948
0.10115
0.0951955
0.088835
0.0817909
0.0737256
0.064245
0.0529806
0.0397597
0.0248121
0.00888212
-0.00681528
-0.0208403
-0.0318558
-0.0388483
0.17656
0.17586
0.174563
0.172753
0.17037
0.167258
0.163315
0.158542
0.153008
0.146833
0.140195
0.133325
0.126463
0.119796
0.113396
0.107204
0.101048
0.0946971
0.0878887
0.0803308
0.0716857
0.0615963
0.0497859
0.0362301
0.0213379
0.00599381
-0.00852898
-0.0208727
-0.0297864
-0.0346658
0.176292
0.175726
0.174573
0.172925
0.170722
0.167796
0.164036
0.15943
0.154032
0.147944
0.14133
0.134413
0.127426
0.120563
0.113907
0.107411
0.100912
0.0941759
0.086933
0.0788809
0.0696891
0.0590459
0.0467701
0.0329809
0.0182477
0.00356264
-0.00978122
-0.0205371
-0.0275683
-0.0306652
0.176047
0.175607
0.17459
0.173096
0.171058
0.168303
0.164713
0.160262
0.154989
0.14898
0.142387
0.13542
0.128312
0.12126
0.114358
0.107568
0.100736
0.0936267
0.085962
0.0774343
0.0677259
0.0565764
0.0439025
0.0299608
0.0154642
0.00148126
-0.0107075
-0.0199897
-0.0253492
-0.0269611
0.175825
0.1755
0.174615
0.173266
0.171384
0.168789
0.165357
0.16105
0.155891
0.149952
0.143374
0.136357
0.129131
0.121899
0.114763
0.107695
0.100544
0.0930768
0.085006
0.0760225
0.0658255
0.0542102
0.0411912
0.0271572
0.0129516
-0.000308906
-0.0113835
-0.0193149
-0.023193
-0.0235829
0.175633
0.175409
0.174648
0.173441
0.171705
0.16926
0.165977
0.161805
0.156751
0.150872
0.1443
0.137224
0.129871
0.122455
0.115089
0.10775
0.100289
0.0924735
0.0840093
0.0745869
0.0639232
0.0518725
0.0385518
0.0244756
0.0106019
-0.00193027
-0.0119448
-0.0186403
-0.0211864
-0.0206105
0.175468
0.175338
0.174692
0.173621
0.172026
0.16972
0.166577
0.162533
0.157581
0.151758
0.145195
0.138071
0.130606
0.12302
0.115437
0.107842
0.100089
0.0919402
0.0830974
0.0732531
0.0621424
0.0496764
0.0360692
0.0219686
0.00844474
-0.00337841
-0.0124117
-0.0180079
-0.0193381
-0.0180354
0.175319
0.175285
0.174747
0.173809
0.172355
0.17018
0.167166
0.163228
0.158353
0.152561
0.145962
0.13875
0.131154
0.12339
0.115588
0.107744
0.099712
0.0912432
0.0820347
0.0717832
0.0602375
0.0473906
0.0335504
0.0194685
0.00633019
-0.00475037
-0.0127954
-0.0173535
-0.017743
-0.0156907
0.175188
0.175236
0.174807
0.173995
0.172684
0.170656
0.167792
0.163998
0.159229
0.153493
0.146882
0.139595
0.13188
0.123955
0.115955
0.107878
0.0995778
0.0907842
0.0811938
0.0705125
0.0585051
0.0452546
0.0311148
0.0169994
0.00417244
-0.0063624
-0.013631
-0.0171906
-0.0167194
-0.0139591
0.175105
0.175183
0.174875
0.174182
0.172938
0.171026
0.16826
0.164543
0.159791
0.154024
0.147343
0.139946
0.132092
0.124011
0.115841
0.10758
0.0990679
0.0900188
0.0801211
0.0690799
0.0567563
0.0432601
0.0289676
0.0149523
0.0027609
-0.00695516
-0.0135732
-0.0163335
-0.0155132
-0.0126642
0.175099
0.175151
0.17497
0.174466
0.173434
0.17171
0.169149
0.165634
0.161043
0.15535
0.148644
0.141129
0.133084
0.124761
0.116312
0.107748
0.0989135
0.0895014
0.0791163
0.0674472
0.0544574
0.0402609
0.0254389
0.011178
-0.000908746
-0.00974491
-0.0151476
-0.0165121
-0.0148811
-0.0120669
-0.0912078
-0.0929193
-0.0835237
-0.0692324
-0.060238
-0.0509854
-0.0405545
-0.0303065
-0.020225
-0.010384
-0.00102901
0.00770244
0.0157798
0.0232072
0.0300024
0.0361959
0.0418241
0.0469215
0.0515258
0.0556771
0.0594187
0.0627851
0.0658355
0.0685826
0.0711446
0.0734767
0.0758588
0.0781029
0.0806884
0.0802605
-0.0898049
-0.0895036
-0.0826752
-0.0703458
-0.0631967
-0.0553605
-0.0461499
-0.0364014
-0.0265206
-0.0166688
-0.00713533
0.0018667
0.0102621
0.0180346
0.0251877
0.031742
0.0377297
0.043186
0.0481464
0.0526441
0.0567163
0.0603864
0.0636999
0.0666578
0.0693355
0.0716778
0.0738373
0.0755769
0.0775083
0.0784966
-0.0867696
-0.0870194
-0.0813516
-0.0701526
-0.0656331
-0.0600994
-0.0530442
-0.0441994
-0.0345256
-0.0246456
-0.0149595
-0.00568025
0.00309574
0.0113093
0.0189289
0.0259591
0.0324277
0.038367
0.0438089
0.0487826
0.0533197
0.0574431
0.0611844
0.0645545
0.0675939
0.0702938
0.0727352
0.0748456
0.0768975
0.0787858
-0.0860852
-0.0869645
-0.0762877
-0.0682634
-0.067433
-0.0646095
-0.0582163
-0.0511831
-0.0420628
-0.0319749
-0.0219489
-0.0123165
-0.003126
0.00556243
0.0136792
0.0212024
0.0281523
0.0345609
0.0404608
0.045883
0.0508599
0.055419
0.0595892
0.063391
0.0668522
0.0699846
0.0728211
0.0753525
0.0775986
0.0796302
-0.0887376
-0.0865884
-0.072379
-0.065338
-0.0682836
-0.0703872
-0.0652561
-0.0585397
-0.0502867
-0.0402372
-0.029775
-0.0196608
-0.0100003
-0.000819068
0.00780999
0.0158448
0.0232922
0.0301791
0.0365374
0.0424021
0.0478087
0.0527885
0.0573693
0.0615743
0.0654248
0.0689373
0.0721255
0.0750068
0.0775575
0.0798986
-0.0910855
-0.087521
-0.0736373
-0.0622024
-0.0665536
-0.0761881
-0.0757127
-0.0686702
-0.0606971
-0.0508055
-0.0399506
-0.0291561
-0.0187761
-0.00892194
0.000334448
0.0089741
0.0170133
0.0244703
0.0313673
0.0377405
0.0436333
0.0490834
0.0541215
0.0587738
0.0630631
0.0670104
0.0706288
0.0739447
0.076928
0.0797187
-0.0918746
-0.0879376
-0.0815234
-0.0719608
-0.0702763
-0.0799729
-0.0870194
-0.0833364
-0.0742219
-0.0638108
-0.0526607
-0.0412181
-0.0298297
-0.0189262
-0.00878718
0.000604062
0.00935675
0.0175108
0.0250647
0.0320432
0.0384982
0.0444806
0.0500306
0.055181
0.0599602
0.0643936
0.0684959
0.072296
0.075757
0.0790307
-0.0991615
-0.0936356
-0.0985143
-0.0973307
-0.092005
-0.0923958
-0.0987307
-0.100853
-0.0937145
-0.0813356
-0.068594
-0.0564396
-0.0439643
-0.0314534
-0.0198889
-0.00944885
0.000166848
0.00913948
0.0174744
0.0251741
0.0322873
0.0388748
0.0449886
0.0506729
0.0559657
0.060901
0.0654999
0.0697988
0.0737611
0.0775467
-0.119789
-0.113241
-0.123038
-0.128136
-0.125583
-0.121157
-0.120254
-0.121082
-0.117633
-0.106467
-0.0906073
-0.0761113
-0.0624729
-0.048016
-0.0341923
-0.0219443
-0.0109881
-0.000945715
0.00831519
0.0168537
0.0247326
0.0320166
0.0387657
0.0450359
0.050877
0.0563345
0.0614399
0.0662403
0.0707051
0.0750027
-0.148262
-0.140269
-0.148516
-0.156176
-0.15811
-0.155892
-0.151928
-0.148196
-0.143844
-0.135465
-0.121068
-0.103048
-0.0860101
-0.0701927
-0.0538769
-0.0389573
-0.0255129
-0.0135472
-0.00285276
0.00682748
0.015668
0.0237833
0.0312626
0.0381845
0.044617
0.0506197
0.0562365
0.0615273
0.0664704
0.0712448
-0.175406
-0.167481
-0.172866
-0.181651
-0.187147
-0.188612
-0.186354
-0.181074
-0.174173
-0.165607
-0.153545
-0.137316
-0.117792
-0.097187
-0.0789538
-0.0620632
-0.0453685
-0.0304624
-0.0173263
-0.00571323
0.00462696
0.0139319
0.0223744
0.0300925
0.0371982
0.0437832
0.0499166
0.0556777
0.0610596
0.066254
-0.193854
-0.187838
-0.192423
-0.202517
-0.211082
-0.216443
-0.217769
-0.214461
-0.207251
-0.197641
-0.185891
-0.171307
-0.15335
-0.132603
-0.111147
-0.0895777
-0.0702162
-0.0527582
-0.0364412
-0.0219735
-0.00934446
0.00184643
0.011778
0.0206506
0.0286483
0.0359338
0.0426332
0.0488607
0.0546394
0.0601756
-0.198965
-0.197484
-0.203464
-0.215234
-0.226626
-0.235735
-0.241047
-0.241746
-0.237283
-0.22859
-0.217045
-0.20318
-0.186771
-0.167601
-0.146115
-0.123517
-0.100984
-0.0793749
-0.0596935
-0.0423222
-0.0268995
-0.0130649
-0.000942962
0.00970264
0.0190487
0.0273368
0.0347806
0.0415491
0.0477213
0.0535167
-0.190433
-0.194906
-0.203587
-0.217479
-0.23145
-0.243629
-0.252392
-0.257105
-0.2571
-0.251846
-0.242318
-0.229718
-0.214588
-0.196976
-0.176904
-0.154899
-0.131719
-0.108527
-0.086377
-0.0658424
-0.0469339
-0.0303137
-0.0157511
-0.00293095
0.00829883
0.0180926
0.0266519
0.0342117
0.0409318
0.0470422
-0.169513
-0.179306
-0.191466
-0.208212
-0.225113
-0.240218
-0.251959
-0.259509
-0.262913
-0.26181
-0.255872
-0.245899
-0.232771
-0.216993
-0.198711
-0.178142
-0.155757
-0.132335
-0.108745
-0.0859231
-0.0645467
-0.0454324
-0.0287592
-0.014075
-0.00114409
0.0101141
0.0198551
0.0283056
0.035658
0.0421313
-0.138527
-0.152229
-0.167789
-0.187161
-0.206856
-0.224978
-0.239957
-0.25088