/*--------------------------------*- C++ -*----------------------------------*\
  =========                 |
  \\      /  F ield         | OpenFOAM: The Open Source CFD Toolbox
   \\    /   O peration     | Website:  https://openfoam.org
    \\  /    A nd           | Version:  11
     \\/     M anipulation  |
\*---------------------------------------------------------------------------*/
FoamFile
{
    format      ascii;
    class       volScalarField;
    location    "4.2";
    object      p;
}
// * * * * * * * * * * * * * * * * * * * * * * * * * * * * * * * * * * * * * //

dimensions      [0 2 -2 0 0 0 0];

internalField   nonuniform List<scalar> 
12600
(
0.224974
0.224876
0.224784
0.224697
0.22459
0.224455
0.224289
0.224089
0.223852
0.223573
0.223247
0.222865
0.222421
0.221904
0.221305
0.220609
0.219803
0.218867
0.217782
0.216523
0.215061
0.213362
0.211388
0.209093
0.206423
0.20332
0.19972
0.195544
0.190749
0.185164
0.224924
0.22487
0.224795
0.224709
0.224604
0.22447
0.224306
0.224109
0.223876
0.2236
0.223278
0.222902
0.222463
0.221954
0.221362
0.220676
0.21988
0.218957
0.217886
0.216642
0.215198
0.21352
0.211569
0.209298
0.206655
0.203579
0.200002
0.195847
0.191038
0.185465
0.224925
0.22489
0.224825
0.22474
0.224635
0.224505
0.224345
0.224153
0.223925
0.223656
0.223341
0.222973
0.222545
0.222048
0.22147
0.2208
0.220023
0.219122
0.218077
0.216863
0.215453
0.213813
0.211904
0.20968
0.207087
0.204064
0.200536
0.196429
0.191629
0.186091
0.224943
0.224917
0.22486
0.224779
0.224677
0.224552
0.224398
0.224213
0.223993
0.223734
0.22343
0.223076
0.222663
0.222184
0.221627
0.220982
0.220233
0.219365
0.218357
0.217187
0.215827
0.214244
0.212399
0.210247
0.207731
0.204789
0.201343
0.197311
0.192561
0.187057
0.224979
0.224959
0.224908
0.224833
0.224737
0.224618
0.224472
0.224295
0.224086
0.223839
0.22355
0.223212
0.222819
0.222363
0.221834
0.22122
0.220508
0.219683
0.218724
0.217612
0.216317
0.214809
0.213049
0.210992
0.208581
0.205751
0.202418
0.198498
0.193837
0.188404
0.225031
0.225013
0.224968
0.224899
0.224809
0.224697
0.22456
0.224394
0.224197
0.223965
0.223694
0.223377
0.223008
0.222581
0.222084
0.221509
0.220842
0.220069
0.219172
0.218129
0.216916
0.215501
0.213847
0.21191
0.209632
0.206947
0.203767
0.2
0.195473
0.190153
0.225096
0.22508
0.22504
0.224977
0.224894
0.224791
0.224664
0.224511
0.224329
0.224115
0.223864
0.223571
0.223231
0.222836
0.222379
0.221849
0.221235
0.220523
0.219697
0.218737
0.217619
0.216315
0.214788
0.212994
0.210879
0.208374
0.205387
0.201821
0.197483
0.192334
0.225173
0.225159
0.225123
0.225067
0.224992
0.224898
0.224783
0.224644
0.224478
0.224284
0.224056
0.223791
0.223483
0.223125
0.222712
0.222233
0.221678
0.221035
0.22029
0.219425
0.218416
0.217239
0.215859
0.214234
0.212311
0.210022
0.207274
0.203964
0.199881
0.194979
0.22526
0.225248
0.225217
0.225167
0.2251
0.225017
0.224914
0.224791
0.224644
0.224471
0.224269
0.224034
0.223761
0.223445
0.22308
0.222657
0.222168
0.221602
0.220947
0.220186
0.2193
0.218264
0.21705
0.215617
0.213916
0.21188
0.209418
0.206425
0.202675
0.198115
0.225357
0.225346
0.225319
0.225276
0.225219
0.225146
0.225058
0.224951
0.224824
0.224674
0.2245
0.224298
0.224063
0.223792
0.223478
0.223116
0.222699
0.222216
0.221657
0.22101
0.220257
0.219377
0.218345
0.217126
0.215674
0.213928
0.211801
0.209189
0.205862
0.201756
0.225461
0.225452
0.22543
0.225394
0.225346
0.225285
0.225211
0.225122
0.225016
0.224892
0.224747
0.224579
0.224385
0.22416
0.223902
0.223605
0.223263
0.222868
0.222413
0.221886
0.221275
0.220563
0.219727
0.21874
0.217563
0.216141
0.214395
0.21223
0.20942
0.205895
0.225572
0.225565
0.225547
0.225518
0.22548
0.225432
0.225373
0.225302
0.225218
0.22512
0.225006
0.224874
0.224722
0.224547
0.224347
0.224117
0.223853
0.223551
0.223203
0.222803
0.222341
0.221804
0.221177
0.220437
0.219554
0.218486
0.217163
0.215505
0.213308
0.210496
0.225688
0.225683
0.22567
0.225648
0.22562
0.225584
0.225541
0.225489
0.225428
0.225357
0.225275
0.22518
0.225072
0.224948
0.224807
0.224646
0.224463
0.224255
0.224018
0.223748
0.223439
0.223083
0.222671
0.222189
0.221615
0.220921
0.220056
0.218956
0.217457
0.215482
0.225808
0.225805
0.225796
0.225782
0.225764
0.225741
0.225714
0.225681
0.225643
0.2256
0.22555
0.225493
0.225429
0.225357
0.225276
0.225186
0.225085
0.224972
0.224847
0.224708
0.224554
0.224381
0.224187
0.223966
0.22371
0.223402
0.223014
0.222507
0.221769
0.220733
0.225931
0.225929
0.225925
0.225919
0.225911
0.225901
0.225889
0.225876
0.225862
0.225846
0.225828
0.22581
0.22579
0.22577
0.225749
0.225729
0.22571
0.225693
0.225679
0.22567
0.225669
0.225678
0.2257
0.225739
0.225797
0.225875
0.225969
0.226067
0.22612
0.226083
0.226054
0.226055
0.226055
0.226056
0.226058
0.226061
0.226066
0.226072
0.226081
0.226092
0.226107
0.226127
0.226151
0.226182
0.226221
0.22627
0.226331
0.226408
0.226503
0.226622
0.22677
0.226955
0.227187
0.227476
0.227838
0.228289
0.22885
0.229537
0.230369
0.231334
0.226178
0.22618
0.226185
0.226193
0.226205
0.226221
0.226241
0.226267
0.226298
0.226337
0.226383
0.22644
0.226508
0.226589
0.226686
0.226802
0.226942
0.227108
0.227309
0.22755
0.227841
0.228193
0.228623
0.229148
0.229794
0.230592
0.231585
0.232818
0.234371
0.236272
0.2263
0.226304
0.226313
0.226329
0.22635
0.226378
0.226413
0.226457
0.226511
0.226576
0.226654
0.226746
0.226856
0.226986
0.227139
0.22732
0.227534
0.227787
0.228087
0.228443
0.228868
0.229376
0.229988
0.230728
0.23163
0.232738
0.234111
0.235819
0.237992
0.240696
0.226419
0.226425
0.226438
0.22646
0.226491
0.226531
0.226581
0.226643
0.226718
0.226808
0.226915
0.227042
0.227192
0.227368
0.227575
0.227818
0.228102
0.228436
0.228829
0.229292
0.229839
0.230489
0.231264
0.232194
0.233319
0.234689
0.236377
0.238469
0.241125
0.244444
0.226535
0.226542
0.226559
0.226588
0.226627
0.226678
0.226741
0.22682
0.226916
0.22703
0.227165
0.227325
0.227513
0.227733
0.22799
0.22829
0.22864
0.229049
0.229527
0.230087
0.230744
0.231519
0.232437
0.233529
0.234838
0.236419
0.238349
0.240722
0.243706
0.24742
0.226645
0.226653
0.226674
0.226708
0.226756
0.226817
0.226894
0.226989
0.227103
0.22724
0.227402
0.227592
0.227815
0.228075
0.228379
0.228732
0.229142
0.229619
0.230174
0.230821
0.231576
0.232459
0.233497
0.234722
0.236176
0.237914
0.240011
0.242559
0.245716
0.249602
0.22675
0.226759
0.226783
0.226822
0.226876
0.226947
0.227036
0.227145
0.227278
0.227435
0.227621
0.22784
0.228095
0.228393
0.228739
0.22914
0.229604
0.230143
0.230766
0.231489
0.232327
0.233302
0.234438
0.235767
0.237328
0.239172
0.241366
0.243992
0.247181
0.25104
0.226847
0.226857
0.226884
0.226927
0.226988
0.227067
0.227167
0.22729
0.227438
0.227614
0.227822
0.228066
0.228351
0.228682
0.229066
0.22951
0.230023
0.230615
0.231298
0.232086
0.232995
0.234044
0.235258
0.236664
0.238298
0.240203
0.242433
0.245054
0.248163
0.251839
0.226937
0.226948
0.226976
0.227022
0.227088
0.227175
0.227285
0.227419
0.227582
0.227775
0.228003
0.22827
0.22858
0.228941
0.229358
0.22984
0.230395
0.231034
0.231768
0.23261
0.233577
0.234686
0.235958
0.237419
0.239096
0.241024
0.243242
0.245798
0.248747
0.252137
0.227019
0.22703
0.227058
0.227107
0.227177
0.227271
0.227389
0.227533
0.227708
0.227916
0.22816
0.228447
0.22878
0.229167
0.229613
0.230127
0.230718
0.231396
0.232172
0.233059
0.234072
0.235227
0.236542
0.238037
0.239735
0.241658
0.243832
0.246284
0.249028
0.252083
0.227093
0.227103
0.22713
0.227179
0.227253
0.227352
0.227477
0.227631
0.227816
0.228036
0.228295
0.228598
0.228951
0.229359
0.229829
0.23037
0.230991
0.2317
0.232511
0.233434
0.234482
0.235671
0.237016
0.238531
0.240232
0.242133
0.244245
0.246574
0.249104
0.251823
0.22716
0.227168
0.22719
0.227238
0.227315
0.227418
0.227549
0.227709
0.227902
0.228132
0.228403
0.22872
0.229088
0.229513
0.230003
0.230565
0.23121
0.231945
0.232782
0.233732
0.234807
0.23602
0.237383
0.238907
0.240602
0.242472
0.244516
0.246725
0.249057
0.251476
0.227221
0.227222
0.227238
0.227285
0.227365
0.227472
0.227606
0.22777
0.22797
0.228208
0.228488
0.228814
0.229193
0.229632
0.230136
0.230715
0.231377
0.232131
0.232988
0.233957
0.235051
0.23628
0.237654
0.23918
0.240863
0.242701
0.244683
0.246787
0.248963
0.251148
0.227283
0.227259
0.227262
0.22731
0.227394
0.227504
0.227641
0.227809
0.228014
0.228257
0.228543
0.228876
0.229263
0.22971
0.230224
0.230814
0.231488
0.232256
0.233125
0.234107
0.235213
0.236451
0.237831
0.239356
0.241027
0.242838
0.24477
0.246792
0.248858
0.250895
0.227371
0.227295
0.22728
0.227328
0.227413
0.227523
0.227661
0.227831
0.228038
0.228284
0.228573
0.22891
0.229301
0.229753
0.230273
0.230868
0.231548
0.232322
0.233198
0.234186
0.235296
0.236539
0.237919
0.239441
0.241103
0.242894
0.244794
0.246765
0.24874
0.250641
0.180653
0.178689
0.177302
0.176205
0.175032
0.17373
0.172364
0.170967
0.169529
0.168036
0.166475
0.164833
0.163095
0.161234
0.159215
0.157003
0.154554
0.15181
0.148697
0.145123
0.140969
0.136074
0.130222
0.123119
0.114321
0.103301
0.0891228
0.0695061
0.0499429
-0.00444356
0.181543
0.180059
0.178803
0.177676
0.176481
0.1752
0.173893
0.172581
0.171247
0.169868
0.168431
0.166921
0.165321
0.163606
0.161749
0.159718
0.157473
0.154966
0.152133
0.148897
0.145153
0.140767
0.135554
0.129274
0.121554
0.111979
0.0996494
0.0835229
0.0647618
0.0219056
0.181928
0.180731
0.179682
0.17863
0.177529
0.176397
0.175257
0.174104
0.172917
0.171682
0.170389
0.169028
0.167584
0.166039
0.164369
0.162548
0.160544
0.158314
0.155807
0.152957
0.14968
0.145865
0.141361
0.135977
0.129408
0.121335
0.110986
0.0978268
0.0811595
0.0482878
0.182837
0.181919
0.18111
0.180182
0.179183
0.178175
0.177167
0.176139
0.175078
0.173977
0.172831
0.17163
0.170361
0.169007
0.167551
0.165971
0.164239
0.162323
0.160182
0.157763
0.155
0.151805
0.148061
0.143619
0.138235
0.131679
0.123285
0.112828
0.098809
0.0744184
0.184161
0.183447
0.18282
0.182003
0.181106
0.180226
0.179361
0.178481
0.177573
0.176636
0.175664
0.174649
0.173581
0.172447
0.171234
0.169927
0.168504
0.166941
0.165208
0.163266
0.161064
0.158538
0.1556
0.152137
0.147964
0.142919
0.136439
0.128525
0.117355
0.100117
0.185904
0.185379
0.184937
0.184255
0.183484
0.18275
0.182042
0.181323
0.18058
0.179817
0.179034
0.178222
0.177376
0.176487
0.175546
0.174542
0.173462
0.172289
0.171001
0.169573
0.16797
0.166147
0.164041
0.161575
0.15861
0.155039
0.1504
0.144855
0.136484
0.125173
0.188108
0.187772
0.18752
0.186982
0.186347
0.185764
0.185222
0.184676
0.184116
0.183548
0.182974
0.18239
0.181792
0.181175
0.180535
0.179865
0.179158
0.178405
0.177594
0.17671
0.175732
0.174632
0.173371
0.171896
0.170112
0.167952
0.165047
0.161657
0.155897
0.149382
0.19083
0.190685
0.190627
0.190244
0.189757
0.189339
0.188978
0.188622
0.188261
0.187907
0.187563
0.187228
0.1869
0.186578
0.186262
0.185951
0.185642
0.185333
0.18502
0.184697
0.184356
0.183982
0.183554
0.183042
0.182382
0.181537
0.180222
0.178729
0.175297
0.172529
0.19412
0.194169
0.194309
0.194091
0.193765
0.193524
0.193357
0.193206
0.193061
0.192936
0.19284
0.192773
0.192734
0.192726
0.192753
0.192818
0.192922
0.193071
0.193265
0.193507
0.193797
0.194132
0.194505
0.1949
0.195279
0.195622
0.195714
0.19583
0.194392
0.194415
0.198022
0.198265
0.198601
0.198559
0.198406
0.198355
0.198392
0.198458
0.198542
0.198661
0.198826
0.199038
0.199301
0.19962
0.2
0.200448
0.200971
0.201576
0.202271
0.203063
0.20396
0.204966
0.206082
0.207304
0.208609
0.209987
0.211272
0.212691
0.212885
0.214875
0.202554
0.202987
0.203514
0.203653
0.203684
0.203831
0.20408
0.20437
0.204691
0.205061
0.205494
0.205993
0.206561
0.207208
0.20794
0.208767
0.209699
0.210746
0.21192
0.21323
0.214689
0.216306
0.218086
0.220032
0.222127
0.224363
0.226611
0.229028
0.230492
0.233749
0.207698
0.208309
0.209013
0.209336
0.209559
0.209908
0.210371
0.210887
0.211445
0.212066
0.212764
0.213545
0.214413
0.215378
0.21645
0.217638
0.218956
0.220414
0.222026
0.223805
0.225764
0.227913
0.230261
0.232809
0.235546
0.238456
0.241433
0.244564
0.246957
0.250894
0.21338
0.214153
0.215012
0.215514
0.215932
0.216481
0.217152
0.217886
0.218674
0.219536
0.220488
0.221536
0.222687
0.223949
0.225333
0.226852
0.228517
0.230341
0.232338
0.234521
0.236903
0.239493
0.242299
0.245321
0.248545
0.251951
0.25544
0.259045
0.262069
0.266218
0.219462
0.220371
0.221357
0.22203
0.222637
0.223376
0.22424
0.225177
0.226178
0.227262
0.228446
0.229737
0.23114
0.232666
0.234326
0.236131
0.238094
0.240228
0.242545
0.245056
0.247775
0.250708
0.253859
0.257226
0.26079
0.264522
0.268331
0.272209
0.275605
0.279671
0.225736
0.226751
0.227832
0.228657
0.22944
0.230352
0.231388
0.232503
0.233691
0.23497
0.236355
0.237853
0.239471
0.241219
0.243107
0.245147
0.247351
0.249729
0.252294
0.255056
0.258023
0.2612
0.264588
0.268178
0.271946
0.275854
0.279812
0.283774
0.287291
0.291128
0.231935
0.233025
0.234167
0.23512
0.236059
0.237119
0.238297
0.23956
0.240902
0.242341
0.243888
0.245553
0.247341
0.249263
0.251328
0.253546
0.255929
0.258487
0.261228
0.264162
0.267293
0.270625
0.274151
0.277858
0.281716
0.285677
0.289646
0.293536
0.296975
0.300416
0.237762
0.238898
0.240071
0.241124
0.24219
0.243367
0.244655
0.246029
0.247489
0.249048
0.250716
0.252503
0.254415
0.25646
0.258648
0.260989
0.263492
0.266165
0.269016
0.272052
0.275275
0.278683
0.282268
0.28601
0.289873
0.293798
0.297688
0.301421
0.304676
0.307603
0.242933
0.24409
0.245269
0.246391
0.247551
0.248812
0.250174
0.251624
0.253162
0.254799
0.256547
0.258411
0.2604
0.26252
0.264781
0.267191
0.269759
0.272491
0.275395
0.278473
0.281726
0.28515
0.288732
0.292449
0.296259
0.300098
0.303862
0.30741
0.310466
0.31295
0.247223
0.24838
0.24955
0.25071
0.251926
0.253237
0.254639
0.256127
0.257705
0.259383
0.261168
0.263068
0.265089
0.26724
0.269528
0.27196
0.274544
0.277287
0.280193
0.283264
0.286499
0.289891
0.293424
0.297073
0.300791
0.304509
0.308119
0.311463
0.314286
0.316337
0.250501
0.251644
0.252792
0.253961
0.255199
0.256524
0.257934
0.259427
0.26101
0.26269
0.264476
0.266373
0.268388
0.270529
0.272802
0.275215
0.277774
0.280485
0.283351
0.286374
0.28955
0.29287
0.296318
0.299863
0.303456
0.307023
0.31045
0.313564
0.316109
0.317727
0.25275
0.253866
0.254983
0.256137
0.257362
0.258669
0.260056
0.261524
0.263079
0.264729
0.26648
0.26834
0.270315
0.272412
0.274637
0.276994
0.27949
0.28213
0.28492
0.287859
0.290942
0.294159
0.29749
0.300903
0.304345
0.307736
0.310956
0.313822
0.316075
0.317315
0.25406
0.255137
0.256217
0.257333
0.258517
0.259779
0.261117
0.262532
0.26403
0.26562
0.267306
0.269096
0.270995
0.27301
0.275148
0.277418
0.279826
0.282373
0.285059
0.287884
0.290845
0.293928
0.297113
0.300364
0.303626
0.306812
0.309798
0.31238
0.314318
0.315021
0.254588
0.255615
0.25665
0.257709
0.258829
0.260023
0.261289
0.262629
0.264049
0.265554
0.267152
0.268849
0.270651
0.272564
0.274595
0.276749
0.279032
0.281447
0.283995
0.286675
0.289479
0.292396
0.295402
0.298458
0.301504
0.304447
0.307159
0.309402
0.311007
0.310911
0.254538
0.255501
0.256478
0.257464
0.2585
0.259606
0.260783
0.262028
0.263347
0.264747
0.266235
0.267816
0.269496
0.271281
0.273178
0.275191
0.277325
0.279583
0.281967
0.284472
0.287092
0.289811
0.292605
0.295431
0.298226
0.300887
0.303288
0.305138
0.306397
0.305551
0.254115
0.255002
0.255907
0.256809
0.257749
0.258756
0.259829
0.260965
0.26217
0.26345
0.264811
0.266259
0.2678
0.269438
0.271181
0.273031
0.274995
0.277072
0.279265
0.281568
0.283974
0.286464
0.289011
0.29157
0.294072
0.296404
0.298439
0.299826
0.300635
0.298958
0.253513
0.25431
0.255128
0.255933
0.256768
0.257663
0.258619
0.259635
0.260712
0.261858
0.263078
0.26438
0.265767
0.267244
0.268818
0.270491
0.272266
0.274145
0.276127
0.278207
0.280372
0.282605
0.284873
0.287125
0.289289
0.291233
0.292831
0.293651
0.293854
0.290938
0.252885
0.253581
0.2543
0.255007
0.25574
0.256523
0.257361
0.258251
0.259197
0.260204
0.261279
0.262426
0.26365
0.264956
0.266347
0.267828
0.269401
0.271065
0.272817
0.274652
0.276553
0.278499
0.280454
0.282359
0.284132
0.285624
0.286699
0.28683
0.286307
0.281761
0.252372
0.252925
0.253498
0.254089
0.254712
0.255372
0.25608
0.256838
0.257646
0.258506
0.259425
0.260413
0.261471
0.262602
0.263809
0.265094
0.266458
0.267901
0.269417
0.270997
0.272623
0.274267
0.275889
0.277419
0.278766
0.279754
0.280242
0.279581
0.278281
0.271722
0.252214
0.252587
0.252983
0.253477
0.254008
0.254541
0.255118
0.255765
0.256454
0.257168
0.257927
0.258745
0.259627
0.260573
0.261585
0.262664
0.26381
0.26502
0.266286
0.267596
0.268927
0.270247
0.271505
0.272622
0.273494
0.273915
0.273734
0.272145
0.27008
0.260967
0.251991
0.252088
0.252306
0.252694
0.253139
0.253578
0.25401
0.254482
0.255007
0.255579
0.256194
0.256857
0.257572
0.25834
0.259165
0.260045
0.26098
0.261964
0.262989
0.26404
0.26509
0.2661
0.267012
0.267733
0.26814
0.267997
0.267151
0.264492
0.26195
0.249652
0.238326
0.226932
0.215046
0.20314
0.191715
0.181073
0.171496
0.163415
0.157325
0.153685
0.153072
0.15572
0.161826
0.171334
0.181276
0.186869
0.186983
0.18525
0.18359
0.182511
0.181722
0.180383
0.178519
0.176086
0.173677
0.169929
0.16501
0.15923
0.153662
0.147142
0.254321
0.245035
0.234792
0.224508
0.214469
0.204834
0.196003
0.188366
0.182112
0.177352
0.174953
0.175132
0.177353
0.181793
0.187774
0.191437
0.189781
0.185599
0.184016
0.183102
0.18167
0.180204
0.17824
0.175585
0.171941
0.166449
0.159857
0.153317
0.147879
0.141865
0.257057
0.248186
0.238788
0.229579
0.220048
0.210602
0.201904
0.194104
0.187328
0.182065
0.178826
0.177879
0.178947
0.181696
0.185775
0.187637
0.186946
0.185111
0.184442
0.183493
0.182465
0.18147
0.179147
0.175299
0.169215
0.16101
0.152089
0.14459
0.138824
0.133283
0.261315
0.254283
0.246493
0.237926
0.229197
0.220626
0.212346
0.20447
0.197428
0.191635
0.187443
0.185111
0.184569
0.18545
0.187293
0.18818
0.187781
0.185999
0.184792
0.18413
0.183431
0.182229
0.179451
0.173729
0.164398
0.152644
0.140714
0.13126
0.125521
0.1221
0.26296
0.256769
0.249678
0.242203
0.234437
0.226468
0.218502
0.210882
0.20397
0.198031
0.193403
0.190359
0.188901
0.188727
0.189281
0.18962
0.188905
0.187291
0.185516
0.184011
0.18334
0.181014
0.177084
0.169511
0.156094
0.138935
0.122944
0.11083
0.106604
0.109721
0.263842
0.258642
0.252607
0.24603
0.238978
0.231561
0.224006
0.216607
0.209669
0.2035
0.198431
0.194726
0.192435
0.191347
0.190881
0.190641
0.189586
0.187827
0.185859
0.183512
0.181701
0.17828
0.171789
0.160932
0.143418
0.120839
0.0994896
0.0865092
0.0851458
0.100283
0.264029
0.259641
0.25443
0.248579
0.242196
0.235384
0.228317
0.221235
0.214427
0.208207
0.202885
0.198713
0.195775
0.193928
0.192751
0.191792
0.190337
0.18832
0.186032
0.183329
0.180059
0.174588
0.165454
0.151507
0.130814
0.105421
0.08356
0.074768
0.0807579
0.106871
0.263802
0.260114
0.255651
0.250489
0.244725
0.238462
0.231841
0.225072
0.218427
0.212212
0.206724
0.202209
0.198779
0.196343
0.194579
0.193039
0.191219
0.188939
0.186275
0.183077
0.178744
0.172299
0.16146
0.1465
0.126784
0.104362
0.0878284
0.0869715
0.101059
0.130439
0.263306
0.260218
0.256402
0.251847
0.246642
0.240887
0.234703
0.228266
0.22182
0.215656
0.210063
0.20529
0.201469
0.198552
0.196282
0.194276
0.19212
0.189576
0.18658
0.18292
0.178025
0.171214
0.161274
0.148168
0.132265
0.117258
0.110521
0.1187
0.139127
0.167256
0.262652
0.260073
0.256819
0.252804
0.248106
0.242821
0.237051
0.230943
0.224714
0.218637
0.212995
0.208035
0.203904
0.200593
0.1979
0.195499
0.193028
0.190229
0.186966
0.183004
0.177893
0.171131
0.162325
0.151851
0.141376
0.134148
0.13597
0.15014
0.172854
0.201453
0.261909
0.259766
0.256996
0.253457
0.249216
0.244364
0.238984
0.233196
0.227192
0.221228
0.215577
0.210484
0.206112
0.202478
0.199432
0.196695
0.193944
0.190924
0.187464
0.183343
0.178234
0.171868
0.164318
0.156514
0.15056
0.149486
0.156948
0.173804
0.196917
0.222966
0.261126
0.259356
0.257003
0.253883
0.250053
0.245598
0.240582
0.235101
0.229325
0.22349
0.217859
0.212677
0.208113
0.204215
0.200872
0.197848
0.194857
0.191656
0.188067
0.183907
0.178975
0.173245
0.167136
0.161906
0.159662
0.162875
0.173441
0.19092
0.212693
0.234449
0.260337
0.258886
0.256893
0.254142
0.25068
0.246587
0.241911
0.236722
0.23117
0.225474
0.219885
0.214644
0.209931
0.205815
0.202221
0.198952
0.195759
0.192416
0.188759
0.184659
0.180043
0.175092
0.170469
0.167548
0.16821
0.174201
0.186286
0.203272
0.222478
0.239805
0.259563
0.258386
0.256705
0.25428
0.251148
0.247384
0.24302
0.238107
0.232773
0.227221
0.22169
0.216416
0.211585
0.207288
0.203481
0.200005
0.196642
0.193194
0.189524
0.18556
0.181352
0.177237
0.174025
0.173059
0.175876
0.183552
0.196118
0.211818
0.228254
0.241827
0.258819
0.257878
0.256468
0.254329
0.251494
0.24803
0.243953
0.239298
0.234174
0.228767
0.223303
0.218013
0.213092
0.208644
0.204656
0.201003
0.197501
0.193981
0.19034
0.186568
0.182817
0.179538
0.177597
0.178228
0.18255
0.191157
0.203488
0.217541
0.231266
0.240978
0.258114
0.257377
0.256202
0.254317
0.251748
0.248556
0.244743
0.240329
0.235405
0.23014
0.224749
0.219458
0.214464
0.20989
0.205747
0.201943
0.198328
0.194764
0.191186
0.187643
0.184368
0.181881
0.181051
0.182937
0.188222
0.197219
0.208832
0.221057
0.232207
0.238546
0.257454
0.256895
0.255923
0.254263
0.251936
0.24899
0.245419
0.241228
0.236493
0.231366
0.226051
0.220767
0.215716
0.211034
0.206758
0.202824
0.199117
0.195532
0.192042
0.188749
0.185946
0.184184
0.184287
0.187061
0.19304
0.201935
0.212507
0.222847
0.231361
0.235151
0.25684
0.256437
0.255643
0.254185
0.252074
0.249353
0.246004
0.242019
0.237461
0.232467
0.227227
0.221957
0.216859
0.212084
0.20769
0.203644
0.199862
0.196274
0.192889
0.189853
0.187502
0.18639
0.18726
0.190634
0.197023
0.205478
0.214809
0.223196
0.228857
0.230014
0.256273
0.256008
0.255371
0.254093
0.25218
0.249663
0.246517
0.242723
0.23833
0.233461
0.228295
0.223039
0.217902
0.213045
0.208547
0.204402
0.200559
0.19698
0.19371
0.190931
0.189002
0.188464
0.189941
0.193799
0.200142
0.207982
0.215968
0.222334
0.225201
0.223452
0.255749
0.255608
0.255113
0.253998
0.252265
0.249934
0.246974
0.243356
0.239116
0.234364
0.229267
0.224028
0.218855
0.213922
0.209329
0.205097
0.201203
0.197642
0.194491
0.191961
0.19042
0.190372
0.19232
0.196505
0.20254
0.209637
0.216193
0.220529
0.220793
0.216559
0.255267
0.255239
0.254872
0.253907
0.252338
0.250178
0.247389
0.243932
0.239834
0.235191
0.230157
0.224931
0.219725
0.214722
0.21004
0.205727
0.201789
0.198252
0.19522
0.192925
0.191733
0.192097
0.194394
0.198687
0.204379
0.210597
0.215668
0.218023
0.215894
0.209461
0.254821
0.254897
0.254648
0.253824
0.252408
0.250406
0.247772
0.244465
0.240497
0.235952
0.230976
0.225761
0.220519
0.215447
0.210681
0.206291
0.202314
0.198804
0.195889
0.193815
0.192933
0.193637
0.196181
0.200441
0.205728
0.210975
0.21455
0.214992
0.210632
0.202108
0.254411
0.25458
0.254443
0.253751
0.25248
0.250624
0.248135
0.244964
0.241115
0.236661
0.231734
0.226523
0.221244
0.216103
0.211253
0.206789
0.202774
0.199289
0.196484
0.194612
0.194004
0.194987
0.197693
0.201838
0.206628
0.210868
0.212964
0.211555
0.205088
0.194527
0.254039
0.25429
0.254254
0.253689
0.252557
0.250841
0.248484
0.245439
0.2417
0.237325
0.232439
0.227225
0.221904
0.216691
0.211759
0.207222
0.203172
0.199712
0.197013
0.195328
0.19496
0.196172
0.198974
0.202939
0.207169
0.210383
0.211019
0.2078
0.199318
0.186726
0.253706
0.254029
0.254082
0.253638
0.252643
0.251059
0.248826
0.245898
0.242259
0.237956
0.233102
0.227879
0.222508
0.217217
0.212194
0.207577
0.203484
0.200043
0.197438
0.195922
0.195765
0.197168
0.200021
0.203757
0.207394
0.209581
0.208784
0.203792
0.193383
0.178799
0.253404
0.253795
0.253925
0.253596
0.252737
0.251287
0.249169
0.246345
0.242794
0.238551
0.23372
0.228479
0.223055
0.217689
0.212586
0.207895
0.203763
0.200338
0.197822
0.196461
0.196488
0.198048
0.200922
0.204397
0.207413
0.208559
0.206324
0.199556
0.187273
0.170728
0.253127
0.253581
0.253781
0.253561
0.252828
0.251525
0.24953
0.24681
0.243341
0.239148
0.234324
0.229043
0.223536
0.218062
0.212844
0.208069
0.203891
0.200476
0.198035
0.19682
0.197039
0.198739
0.201594
0.204816
0.207229
0.207358
0.203722
0.195239
0.181205
0.162734
0.252881
0.253376
0.253652
0.25355
0.252927
0.251695
0.249846
0.247228
0.243842
0.239708
0.23491
0.229617
0.224056
0.218484
0.213151
0.208285
0.204056
0.20064
0.198263
0.197181
0.19758
0.199389
0.202203
0.20515
0.206933
0.205978
0.200826
0.190491
0.17459
0.154267
0.252689
0.253164
0.253521
0.253577
0.253138
0.252057
0.250238
0.247694
0.244345
0.240197
0.235347
0.229969
0.224309
0.218627
0.213192
0.208246
0.203976
0.200577
0.19829
0.197368
0.197952
0.199878
0.20267
0.205398
0.20662
0.204762
0.198362
0.186482
0.169074
0.14742
0.252572
0.252939
0.25329
0.253451
0.25318
0.252282
0.250682
0.248308
0.245106
0.241046
0.236202
0.230744
0.224946
0.219099
0.213492
0.208388
0.203999
0.200542
0.198273
0.197457
0.198216
0.2003
0.203109
0.205577
0.206027
0.202726
0.194183
0.179601
0.159384
0.135676
0.0107139
0.00323928
0.0102542
0.0266125
0.0311648
0.0389394
0.0483146
0.0571424
0.0652433
0.0729354
0.0799601
0.0862352
0.0917605
0.0965812
0.100741
0.104289
0.107277
0.109755
0.111774
0.113382
0.11463
0.115557
0.116236
0.116674
0.117016
0.117178
0.117449
0.117592
0.117997
0.116001
0.00954219
0.00768062
0.0160541
0.0267924
0.0303041
0.036685
0.0452095
0.0535069
0.0614651
0.0691836
0.0764017
0.0829395
0.0887698
0.0939229
0.0984342
0.102343
0.105693
0.10853
0.110898
0.112836
0.114386
0.115574
0.116455
0.117029
0.117382
0.117473
0.117446
0.117155
0.116921
0.116082
0.0124798
0.0157643
0.0227681
0.0286728
0.0287089
0.0339502
0.0407649
0.0485731
0.0564637
0.0642412
0.0716987
0.0785961
0.0848485
0.0904547
0.0954356
0.0998236
0.103656
0.10697
0.109805
0.112193
0.114171
0.115764
0.117005
0.11791
0.118517
0.118831
0.118914
0.118734
0.118507
0.118215
0.0154127
0.0208236
0.0295649
0.032497
0.0283427
0.0316926
0.0371837
0.0446598
0.0524916
0.0603652
0.0680569
0.0753003
0.0819716
0.0880182
0.0934343
0.0982485
0.102498
0.106218
0.109445
0.112215
0.114562
0.116514
0.118103
0.119349
0.12028
0.120912
0.121277
0.121377
0.121242
0.120983
0.0102601
0.0202087
0.0405785
0.0395896
0.0285143
0.0277041
0.0327731
0.0396082
0.0476242
0.055966
0.064022
0.0716126
0.0787017
0.0852026
0.0910696
0.0963224
0.100999
0.105135
0.108767
0.111931
0.114662
0.11699
0.118942
0.120542
0.121811
0.122766
0.123423
0.123805
0.123887
0.123854
0.00255107
0.0166017
0.0450594
0.0466371
0.0285351
0.0226595
0.026359
0.0321096
0.0400096
0.0492775
0.0581534
0.0663549
0.0740275
0.0811246
0.0875733
0.0933808
0.098588
0.103234
0.107356
0.110994
0.114184
0.116959
0.119346
0.121368
0.123046
0.124399
0.125437
0.126192
0.126626
0.126946
-7.25396e-05
0.0130538
0.0359335
0.0443964
0.0304343
0.0165571
0.0167846
0.0222691
0.0296973
0.0397809
0.0499698
0.0592355
0.0677548
0.0756367
0.082838
0.0893515
0.0952167
0.10048
0.105185
0.109375
0.113094
0.116379
0.119263
0.121773
0.123932
0.12576
0.127266
0.128482
0.129361
0.130116
-0.00678351
0.00932881
0.0156204
0.0210204
0.0196243
0.00800235
0.00224321
0.00741369
0.0159788
0.0263763
0.038343
0.0495356
0.0594833
0.068464
0.0766275
0.0840148
0.0906755
0.0966691
0.102051
0.106873
0.111187
0.11504
0.11847
0.121514
0.124197
0.126547
0.128574
0.130313
0.131714
0.132993
-0.0238709
-0.00371785
-0.0104686
-0.012639
-0.00962645
-0.0121528
-0.0180265
-0.0151519
-0.00447441
0.00776515
0.0212001
0.0351733
0.0477298
0.0586329
0.0682535
0.0768376
0.0845291
0.091431
0.0976259
0.103188
0.108185
0.112676
0.11671
0.120332
0.123577
0.126478
0.129055
0.13135
0.133313
0.135164
-0.0523969
-0.0259683
-0.036888
-0.0421844
-0.0424404
-0.0429464
-0.0453176
-0.0440807
-0.0339653
-0.0184464
-0.00249495
0.013863
0.0300884
0.0443387
0.0564618
0.0669132
0.0760984
0.0842433
0.0914915
0.0979671
0.103776
0.109005
0.11372
0.117978
0.121825
0.125307
0.128449
0.131303
0.133827
0.13624
-0.0840899
-0.0539357
-0.0633096
-0.0682562
-0.0712272
-0.0742223
-0.0762333
-0.0755763
-0.0687329
-0.0541052
-0.0344479
-0.0147295
0.00429266
0.0229767
0.0391032
0.0526129
0.0641749
0.0742048
0.0829626
0.0906715
0.0975175
0.103643
0.109153
0.11413
0.118639
0.122738
0.126467
0.129886
0.132961
0.135913
-0.114141
-0.0825383
-0.0885111
-0.0913313
-0.0960623
-0.101241
-0.10498
-0.105817
-0.10228
-0.0920419
-0.0746379
-0.0524108
-0.0286432
-0.00617505
0.0141996
0.0319512
0.0470992
0.0599884
0.0710069
0.0805034
0.0887786
0.0960716
0.102561
0.10838
0.113632
0.118399
0.12274
0.12673
0.130344
0.133807
-0.139246
-0.107954
-0.110623
-0.111269
-0.116895
-0.123306
-0.128626
-0.131686
-0.131118
-0.125383
-0.112806
-0.0932536
-0.069063
-0.0434561
-0.0188165
0.0035933
0.0232061
0.0400014
0.0542552
0.0663518
0.0766832
0.0855974
0.0933777
0.100244
0.106365
0.111869
0.116851
0.121409
0.125539
0.129463
-0.157497
-0.127374
-0.12776
-0.127096
-0.132999
-0.139939
-0.146393
-0.151383
-0.153495
-0.151447
-0.143881
-0.12956
-0.108809
-0.0837669
-0.0571846
-0.0312338
-0.00736045
0.0137001
0.0318175
0.0472366
0.0603097
0.0714174
0.0809268
0.0891533
0.096348
0.10271
0.108385
0.113513
0.118129
0.122442
-0.167554
-0.138865
-0.138829
-0.137663
-0.143371
-0.150492
-0.157806
-0.164105
-0.168268
-0.169084
-0.1655
-0.156229
-0.140502
-0.119014
-0.0937321
-0.0669969
-0.0408241
-0.016438
0.00517026
0.0238958
0.0399179
0.0535207
0.0650596
0.074899
0.0833575
0.0906992
0.0971314
0.102836
0.107912
0.112539
-0.16895
-0.14203
-0.142553
-0.141416
-0.147051
-0.154258
-0.162145
-0.169301
-0.174746
-0.177554
-0.17675
-0.17128
-0.160108
-0.14305
-0.121088
-0.0960818
-0.0700325
-0.0448899
-0.0214204
-0.000496083
0.0178053
0.0335442
0.04692
0.0582738
0.0679446
0.0762278
0.0833736
0.0895966
0.0950652
0.0999139
-0.162041
-0.136966
-0.138029
-0.137492
-0.143365
-0.150608
-0.158752
-0.166401
-0.172544
-0.176498
-0.177368
-0.174285
-0.166318
-0.152979
-0.134659
-0.112558
-0.0882972
-0.0638698
-0.0405024
-0.0194611
-0.000777173
0.0156841
0.0298496
0.0419201
0.0521887
0.0609314
0.0683995
0.0748149
0.0803933
0.0851999
-0.147475
-0.124802
-0.125744
-0.126106
-0.131953
-0.139252
-0.147324
-0.155015
-0.161293
-0.165582
-0.167161
-0.165218
-0.159023
-0.148152
-0.132836
-0.113903
-0.092643
-0.0704843
-0.0492202
-0.0294708
-0.0116525
0.0039911
0.0174969
0.02902
0.0387849
0.0470266
0.0539829
0.059849
0.0648816
0.0690773
-0.126572
-0.105927
-0.107001
-0.107641
-0.113447
-0.120603