/*--------------------------------*- C++ -*----------------------------------*\
  =========                 |
  \\      /  F ield         | OpenFOAM: The Open Source CFD Toolbox
   \\    /   O peration     | Website:  https://openfoam.org
    \\  /    A nd           | Version:  11
     \\/     M anipulation  |
\*---------------------------------------------------------------------------*/
FoamFile
{
    format      ascii;
    class       surfaceScalarField;
    location    "4.2";
    object      phi;
}
// * * * * * * * * * * * * * * * * * * * * * * * * * * * * * * * * * * * * * //

dimensions      [0 3 -1 0 0 0 0];

internalField   nonuniform List<scalar> 
24840
(
1.9242e-05
6.14918e-09
1.92364e-05
5.6248e-09
1.92335e-05
2.81908e-09
1.92337e-05
-1.58284e-10
1.92368e-05
-3.12732e-09
1.92432e-05
-6.33437e-09
1.92528e-05
-9.6589e-09
1.9266e-05
-1.31669e-08
1.92829e-05
-1.69346e-08
1.9304e-05
-2.10729e-08
1.93297e-05
-2.56824e-08
1.93606e-05
-3.08838e-08
1.93974e-05
-3.68251e-08
1.94411e-05
-4.36831e-08
1.94927e-05
-5.16665e-08
1.95538e-05
-6.10158e-08
1.96258e-05
-7.20019e-08
1.97107e-05
-8.49294e-08
1.98108e-05
-1.00137e-07
1.99288e-05
-1.17992e-07
2.00677e-05
-1.38885e-07
2.02309e-05
-1.63217e-07
2.04223e-05
-1.91353e-07
2.0646e-05
-2.23688e-07
2.09066e-05
-2.60655e-07
2.12088e-05
-3.02191e-07
2.1558e-05
-3.49208e-07
2.1954e-05
-3.96023e-07
2.24187e-05
-4.64673e-07
-4.40307e-07
2.2859e-05
1.92529e-05
1.34261e-09
1.92596e-05
-9.93967e-10
1.92684e-05
-6.07206e-09
1.92803e-05
-1.20313e-08
1.92954e-05
-1.82314e-08
1.93139e-05
-2.47977e-08
1.9336e-05
-3.17688e-08
1.9362e-05
-3.91675e-08
1.93921e-05
-4.69965e-08
1.94263e-05
-5.5272e-08
1.94647e-05
-6.41177e-08
1.95077e-05
-7.38386e-08
1.95557e-05
-8.48671e-08
1.96097e-05
-9.76638e-08
1.96707e-05
-1.12671e-07
1.974e-05
-1.30329e-07
1.98191e-05
-1.51126e-07
1.99098e-05
-1.75625e-07
2.00141e-05
-2.04461e-07
2.01345e-05
-2.38337e-07
2.02736e-05
-2.78022e-07
2.04347e-05
-3.24343e-07
2.06215e-05
-3.78128e-07
2.0838e-05
-4.40189e-07
2.10887e-05
-5.1132e-07
2.13784e-05
-5.91944e-07
2.17125e-05
-6.83249e-07
2.20961e-05
-7.79595e-07
2.25358e-05
-9.04414e-07
-9.31655e-07
2.30271e-05
1.92512e-05
-1.72906e-09
1.92571e-05
-6.9379e-09
1.92657e-05
-1.45754e-08
1.92771e-05
-2.34583e-08
1.92917e-05
-3.28556e-08
1.93096e-05
-4.27196e-08
1.9331e-05
-5.31232e-08
1.93559e-05
-6.40865e-08
1.93845e-05
-7.56346e-08
1.94171e-05
-8.78628e-08
1.9454e-05
-1.01003e-07
1.94956e-05
-1.15461e-07
1.95426e-05
-1.31785e-07
1.95955e-05
-1.50589e-07
1.96553e-05
-1.72511e-07
1.97232e-05
-1.98225e-07
1.98006e-05
-2.28475e-07
1.9889e-05
-2.64109e-07
1.99907e-05
-3.06087e-07
2.01078e-05
-3.55476e-07
2.02432e-05
-4.13456e-07
2.04002e-05
-4.81306e-07
2.05824e-05
-5.60358e-07
2.07942e-05
-6.5193e-07
2.10402e-05
-7.57316e-07
2.13256e-05
-8.77325e-07
2.1656e-05
-1.01369e-06
2.20367e-05
-1.16029e-06
2.24743e-05
-1.342e-06
-1.43328e-06
2.29759e-05
1.92503e-05
-3.86699e-09
1.92556e-05
-1.22639e-08
1.92636e-05
-2.26271e-08
1.92746e-05
-3.43672e-08
1.92886e-05
-4.68927e-08
1.93059e-05
-6.00231e-08
1.93265e-05
-7.37696e-08
1.93506e-05
-8.81532e-08
1.93782e-05
-1.03243e-07
1.94096e-05
-1.19233e-07
1.94451e-05
-1.36476e-07
1.94851e-05
-1.55489e-07
1.95302e-05
-1.76924e-07
1.95812e-05
-2.01522e-07
1.96388e-05
-2.30098e-07
1.97041e-05
-2.63544e-07
1.97785e-05
-3.02857e-07
1.98635e-05
-3.49171e-07
1.99612e-05
-4.03769e-07
2.00738e-05
-4.68094e-07
2.02041e-05
-5.43744e-07
2.03553e-05
-6.32459e-07
2.0531e-05
-7.36082e-07
2.07355e-05
-8.56498e-07
2.09738e-05
-9.95606e-07
2.12513e-05
-1.15481e-06
2.1574e-05
-1.33639e-06
2.19486e-05
-1.53491e-06
2.23811e-05
-1.77445e-06
-1.93727e-06
2.28851e-05
1.92498e-05
-5.48738e-09
1.92545e-05
-1.69687e-08
1.92619e-05
-3.01117e-08
1.92722e-05
-4.46629e-08
1.92855e-05
-6.0187e-08
1.93019e-05
-7.64395e-08
1.93216e-05
-9.33757e-08
1.93444e-05
-1.11034e-07
1.93707e-05
-1.29532e-07
1.94006e-05
-1.49133e-07
1.94344e-05
-1.70276e-07
1.94725e-05
-1.93582e-07
1.95154e-05
-2.19819e-07
1.95638e-05
-2.49871e-07
1.96184e-05
-2.84724e-07
1.96803e-05
-3.25478e-07
1.97508e-05
-3.73367e-07
1.98315e-05
-4.298e-07
1.99241e-05
-4.96372e-07
2.00309e-05
-5.74885e-07
2.01545e-05
-6.67348e-07
2.0298e-05
-7.75978e-07
2.04651e-05
-9.03168e-07
2.066e-05
-1.05143e-06
2.08877e-05
-1.22335e-06
2.11541e-05
-1.42112e-06
2.14654e-05
-1.64777e-06
2.18298e-05
-1.89929e-06
2.22536e-05
-2.1982e-06
-2.43728e-06
2.27536e-05
1.92495e-05
-6.85655e-09
1.92537e-05
-2.11636e-08
1.92606e-05
-3.70165e-08
1.92702e-05
-5.42799e-08
1.92827e-05
-7.26379e-08
1.92981e-05
-9.18374e-08
1.93165e-05
-1.11791e-07
1.9338e-05
-1.32535e-07
1.93627e-05
-1.54228e-07
1.93907e-05
-1.77196e-07
1.94224e-05
-2.01965e-07
1.94581e-05
-2.29256e-07
1.94982e-05
-2.59952e-07
1.95434e-05
-2.95073e-07
1.95945e-05
-3.35765e-07
1.96523e-05
-3.83313e-07
1.97181e-05
-4.39173e-07
1.97933e-05
-5.05004e-07
1.98797e-05
-5.82703e-07
1.99792e-05
-6.74422e-07
2.00944e-05
-7.82587e-07
2.02284e-05
-9.09898e-07
2.03845e-05
-1.05932e-06
2.05671e-05
-1.23403e-06
2.07812e-05
-1.43743e-06
2.10328e-05
-1.67271e-06
2.13289e-05
-1.94386e-06
2.16785e-05
-2.24887e-06
2.2089e-05
-2.60874e-06
-2.92949e-06
2.25812e-05
1.92493e-05
-8.07029e-09
1.92531e-05
-2.49082e-08
1.92594e-05
-4.33027e-08
1.92682e-05
-6.31242e-08
1.92797e-05
-8.41207e-08
1.92939e-05
-1.06048e-07
1.93109e-05
-1.28793e-07
1.93308e-05
-1.52392e-07
1.93536e-05
-1.77034e-07
1.93795e-05
-2.03104e-07
1.94087e-05
-2.312e-07
1.94416e-05
-2.62133e-07
1.94785e-05
-2.96894e-07
1.95201e-05
-3.36629e-07
1.9567e-05
-3.82631e-07
1.962e-05
-4.36358e-07
1.96803e-05
-4.99464e-07
1.97491e-05
-5.73843e-07
1.98281e-05
-6.61671e-07
1.99191e-05
-7.65433e-07
2.00245e-05
-8.87951e-07
2.0147e-05
-1.0324e-06
2.029e-05
-1.20233e-06
2.04576e-05
-1.40165e-06
2.06548e-05
-1.63464e-06
2.08878e-05
-1.90568e-06
2.11639e-05
-2.22e-06
2.14932e-05
-2.57815e-06
2.18844e-05
-2.99991e-06
-3.40783e-06
2.23627e-05
1.92492e-05
-9.1502e-09
1.92525e-05
-2.82349e-08
1.92582e-05
-4.89472e-08
1.92662e-05
-7.11235e-08
1.92766e-05
-9.45332e-08
1.92895e-05
-1.18943e-07
1.93049e-05
-1.44226e-07
1.93229e-05
-1.70415e-07
1.93436e-05
-1.97726e-07
1.93671e-05
-2.26589e-07
1.93936e-05
-2.57667e-07
1.94233e-05
-2.91851e-07
1.94566e-05
-3.30231e-07
1.94941e-05
-3.74068e-07
1.95362e-05
-4.24788e-07
1.95839e-05
-4.83998e-07
1.96379e-05
-5.53526e-07
1.96996e-05
-6.35474e-07
1.97702e-05
-7.32268e-07
1.98514e-05
-8.467e-07
1.99455e-05
-9.81963e-07
2.00547e-05
-1.14169e-06
2.01824e-05
-1.33001e-06
2.03324e-05
-1.55157e-06
2.05093e-05
-1.81162e-06
2.07195e-05
-2.11583e-06
2.09705e-05
-2.47097e-06
2.1273e-05
-2.88068e-06
2.1637e-05
-3.36395e-06
-3.86333e-06
2.20925e-05
1.92491e-05
-1.00992e-08
1.9252e-05
-3.11556e-08
1.9257e-05
-5.3929e-08
1.92641e-05
-7.82161e-08
1.92733e-05
-1.03784e-07
1.92848e-05
-1.30401e-07
1.92985e-05
-1.57936e-07
1.93145e-05
-1.86417e-07
1.93329e-05
-2.1608e-07
1.93537e-05
-2.47393e-07
1.93771e-05
-2.81076e-07
1.94033e-05
-3.18087e-07
1.94327e-05
-3.59603e-07
1.94656e-05
-4.06983e-07
1.95026e-05
-4.61766e-07
1.95443e-05
-5.25685e-07
1.95914e-05
-6.00716e-07
1.96451e-05
-6.89139e-07
1.97064e-05
-7.93595e-07
1.97769e-05
-9.17143e-07
1.98582e-05
-1.06331e-06
1.99527e-05
-1.23615e-06
2.0063e-05
-1.44032e-06
2.01926e-05
-1.6812e-06
2.0346e-05
-1.96501e-06
2.0529e-05
-2.29881e-06
2.07491e-05
-2.69111e-06
2.10175e-05
-3.14908e-06
2.13449e-05
-3.69134e-06
-4.28384e-06
2.17654e-05
1.9249e-05
-1.0916e-08
1.92515e-05
-3.36685e-08
1.92558e-05
-5.82255e-08
1.92619e-05
-8.43487e-08
1.92699e-05
-1.11791e-07
1.92798e-05
-1.40318e-07
1.92917e-05
-1.69791e-07
1.93055e-05
-2.0024e-07
1.93213e-05
-2.31913e-07
1.93392e-05
-2.65308e-07
1.93594e-05
-3.01189e-07
1.93818e-05
-3.40573e-07
1.94069e-05
-3.84704e-07
1.9435e-05
-4.35025e-07
1.94664e-05
-4.93165e-07
1.95017e-05
-5.60959e-07
1.95414e-05
-6.40499e-07
1.95865e-05
-7.34204e-07
1.96378e-05
-8.44891e-07
1.96965e-05
-9.75835e-07
1.9764e-05
-1.13084e-06
1.98422e-05
-1.31431e-06
1.99332e-05
-1.53138e-06
2.00401e-05
-1.78809e-06
2.01667e-05
-2.09158e-06
2.03182e-05
-2.45028e-06
2.05016e-05
-2.8745e-06
2.07277e-05
-3.3752e-06
2.10074e-05
-3.97109e-06
-4.65399e-06
2.13776e-05
1.92488e-05
-1.15978e-08
1.92509e-05
-3.57659e-08
1.92545e-05
-6.18147e-08
1.92596e-05
-8.94764e-08
1.92663e-05
-1.18487e-07
1.92746e-05
-1.48604e-07
1.92845e-05
-1.79682e-07
1.9296e-05
-2.11752e-07
1.93092e-05
-2.4507e-07
1.9324e-05
-2.80156e-07
1.93406e-05
-3.17807e-07
1.93591e-05
-3.59084e-07
1.93797e-05
-4.05284e-07
1.94026e-05
-4.57912e-07
1.94281e-05
-5.18665e-07
1.94566e-05
-5.89452e-07
1.94886e-05
-6.72444e-07
1.95245e-05
-7.70162e-07
1.95652e-05
-8.85547e-07
1.96114e-05
-1.02203e-06
1.96641e-05
-1.18362e-06
1.97248e-05
-1.37498e-06
1.97951e-05
-1.60163e-06
1.98771e-05
-1.87013e-06
1.99739e-05
-2.18841e-06
2.00898e-05
-2.56614e-06
2.02307e-05
-3.01535e-06
2.04061e-05
-3.55068e-06
2.06263e-05
-4.19127e-06
-4.95576e-06
2.09281e-05
1.92487e-05
-1.21419e-08
1.92504e-05
-3.7439e-08
1.92532e-05
-6.4677e-08
1.92573e-05
-9.3564e-08
1.92626e-05
-1.23819e-07
1.92692e-05
-1.55188e-07
1.92771e-05
-1.87523e-07
1.92862e-05
-2.20849e-07
1.92965e-05
-2.5543e-07
1.93082e-05
-2.91799e-07
1.93211e-05
-3.30775e-07
1.93355e-05
-3.73448e-07
1.93514e-05
-4.21152e-07
1.93689e-05
-4.75433e-07
1.93882e-05
-5.38031e-07
1.94097e-05
-6.10895e-07
1.94335e-05
-6.96245e-07
1.946e-05
-7.96655e-07
1.94896e-05
-9.15135e-07
1.95227e-05
-1.05521e-06
1.95601e-05
-1.22098e-06
1.96024e-05
-1.41729e-06
1.96507e-05
-1.64988e-06
1.97062e-05
-1.92566e-06
1.97709e-05
-2.25313e-06
1.98477e-05
-2.6429e-06
1.99408e-05
-3.10844e-06
2.00576e-05
-3.66756e-06
2.02063e-05
-4.33998e-06
-5.16971e-06
2.04203e-05
1.92485e-05
-1.25461e-08
1.92498e-05
-3.86807e-08
1.92519e-05
-6.67978e-08
1.92549e-05
-9.65855e-08
1.92589e-05
-1.27748e-07
1.92637e-05
-1.60021e-07
1.92694e-05
-1.93249e-07
1.9276e-05
-2.27456e-07
1.92835e-05
-2.62905e-07
1.92918e-05
-3.00139e-07
1.9301e-05
-3.39985e-07
1.93111e-05
-3.83549e-07
1.93222e-05
-4.32183e-07
1.93342e-05
-4.87452e-07
1.93473e-05
-5.51112e-07
1.93615e-05
-6.25125e-07
1.9377e-05
-7.11719e-07
1.93938e-05
-8.13476e-07
1.94121e-05
-9.33414e-07
1.94319e-05
-1.07506e-06
1.94535e-05
-1.24255e-06
1.9477e-05
-1.44074e-06
1.95025e-05
-1.67542e-06
1.95305e-05
-1.95362e-06
1.95615e-05
-2.28413e-06
1.95966e-05
-2.67804e-06
1.96379e-05
-3.1497e-06
1.96895e-05
-3.71922e-06
1.97562e-05
-4.40664e-06
-5.27708e-06
1.98636e-05
1.92484e-05
-1.28091e-08
1.92492e-05
-3.9487e-08
1.92506e-05
-6.81685e-08
1.92525e-05
-9.85255e-08
1.9255e-05
-1.3025e-07
1.92581e-05
-1.63069e-07
1.92616e-05
-1.96821e-07
1.92657e-05
-2.31525e-07
1.92702e-05
-2.67444e-07
1.92752e-05
-3.05117e-07
1.92806e-05
-3.45375e-07
1.92864e-05
-3.89322e-07
1.92925e-05
-4.38312e-07
1.9299e-05
-4.93905e-07
1.93057e-05
-5.5785e-07
1.93127e-05
-6.32088e-07
1.93198e-05
-7.18818e-07
1.93269e-05
-8.20583e-07
1.93338e-05
-9.40348e-07
1.93403e-05
-1.08157e-06
1.93461e-05
-1.24829e-06
1.93506e-05
-1.44524e-06
1.93532e-05
-1.67809e-06
1.93533e-05
-1.95372e-06
1.935e-05
-2.28077e-06
1.93423e-05
-2.67033e-06
1.93294e-05
-3.13686e-06
1.93116e-05
-3.7014e-06
1.92886e-05
-4.38367e-06
-5.26277e-06
1.92743e-05
1.92483e-05
-1.29295e-08
1.92486e-05
-3.98586e-08
1.92492e-05
-6.8788e-08
1.92501e-05
-9.93801e-08
1.92512e-05
-1.31318e-07
1.92524e-05
-1.64321e-07
1.92538e-05
-1.98224e-07
1.92553e-05
-2.3304e-07
1.92569e-05
-2.69027e-07
1.92585e-05
-3.06717e-07
1.92601e-05
-3.46931e-07
1.92615e-05
-3.9076e-07
1.92627e-05
-4.39539e-07
1.92636e-05
-4.94806e-07
1.92641e-05
-5.58272e-07
1.92638e-05
-6.31833e-07
1.92626e-05
-7.17622e-07
1.92601e-05
-8.18095e-07
1.92559e-05
-9.36103e-07
1.92493e-05
-1.07496e-06
1.92395e-05
-1.23849e-06
1.92254e-05
-1.43118e-06
1.92056e-05
-1.65834e-06
1.91784e-05
-1.92644e-06
1.91412e-05
-2.24358e-06
1.9091e-05
-2.62019e-06
1.90241e-05
-3.0699e-06
1.89358e-05
-3.61313e-06
1.88202e-05
-4.26811e-06
-5.11862e-06
1.86761e-05
1.92481e-05
-1.29128e-08
1.92481e-05
-3.97973e-08
1.92479e-05
-6.86612e-08
1.92477e-05
-9.9156e-08
1.92473e-05
-1.30958e-07
1.92468e-05
-1.63786e-07
1.92461e-05
-1.97467e-07
1.9245e-05
-2.32013e-07
1.92437e-05
-2.6767e-07
1.92419e-05
-3.04961e-07
1.92397e-05
-3.44684e-07
1.92368e-05
-3.87905e-07
1.92332e-05
-4.35925e-07
1.92286e-05
-4.90236e-07
1.92228e-05
-5.52492e-07
1.92155e-05
-6.24513e-07
1.92062e-05
-7.08336e-07
1.91944e-05
-8.06286e-07
1.91794e-05
-9.21044e-07
1.91601e-05
-1.05569e-06
1.91354e-05
-1.21377e-06
1.91036e-05
-1.39936e-06
1.90625e-05
-1.61725e-06
1.90092e-05
-1.87318e-06
1.89399e-05
-2.17431e-06
1.88495e-05
-2.52978e-06
1.87311e-05
-2.95147e-06
1.85754e-05
-3.45741e-06
1.83703e-05
-4.06302e-06
-4.8463e-06
1.8098e-05
1.9248e-05
-1.27573e-08
1.92475e-05
-3.93153e-08
1.92466e-05
-6.78051e-08
1.92454e-05
-9.78741e-08
1.92436e-05
-1.29197e-07
1.92413e-05
-1.61491e-07
1.92384e-05
-1.94585e-07
1.92349e-05
-2.28483e-07
1.92306e-05
-2.63423e-07
1.92256e-05
-2.99907e-07
1.92196e-05
-3.38707e-07
1.92126e-05
-3.80851e-07
1.92042e-05
-4.27587e-07
1.91943e-05
-4.80347e-07
1.91825e-05
-5.40703e-07
1.91684e-05
-6.10378e-07
1.91514e-05
-6.91281e-07
1.91306e-05
-7.85572e-07
1.91053e-05
-8.95714e-07
1.90741e-05
-1.0245e-06
1.90354e-05
-1.17509e-06
1.89871e-05
-1.35104e-06
1.89263e-05
-1.55645e-06
1.88492e-05
-1.79612e-06
1.87508e-05
-2.07588e-06
1.86241e-05
-2.40305e-06
1.84595e-05
-2.7869e-06
1.82436e-05
-3.24147e-06
1.79586e-05
-3.77805e-06
-4.45898e-06
1.75713e-05
1.92478e-05
-1.24703e-08
1.9247e-05
-3.84256e-08
1.92454e-05
-6.62425e-08
1.92431e-05
-9.5566e-08
1.924e-05
-1.26072e-07
1.9236e-05
-1.57485e-07
1.9231e-05
-1.89634e-07
1.9225e-05
-2.2252e-07
1.9218e-05
-2.56366e-07
1.92097e-05
-2.91652e-07
1.92001e-05
-3.29115e-07
1.9189e-05
-3.69736e-07
1.91761e-05
-4.14698e-07
1.91611e-05
-4.65352e-07
1.91436e-05
-5.23172e-07
1.9123e-05
-5.89762e-07
1.90986e-05
-6.66882e-07
1.90695e-05
-7.56497e-07
1.90346e-05
-8.60815e-07
1.89924e-05
-9.82291e-07
1.8941e-05
-1.12363e-06
1.88777e-05
-1.2878e-06
1.87994e-05
-1.47808e-06
1.87014e-05
-1.69816e-06
1.85778e-05
-1.95228e-06
1.84203e-05
-2.24552e-06
1.82173e-05
-2.58391e-06
1.79521e-05
-2.97633e-06
1.7603e-05
-3.42894e-06
-3.98084e-06
1.71249e-05
1.92477e-05
-1.2058e-08
1.92464e-05
-3.71487e-08
1.92442e-05
-6.40068e-08
1.92409e-05
-9.22764e-08
1.92365e-05
-1.2164e-07
1.92308e-05
-1.51833e-07
1.92239e-05
-1.82692e-07
1.92156e-05
-2.14215e-07
1.92058e-05
-2.46609e-07
1.91945e-05
-2.80326e-07
1.91815e-05
-3.16063e-07
1.91665e-05
-3.54744e-07
1.91492e-05
-3.97477e-07
1.91294e-05
-4.45516e-07
1.91065e-05
-5.00224e-07
1.90798e-05
-5.6307e-07
1.90485e-05
-6.35648e-07
1.90117e-05
-7.19709e-07
1.89681e-05
-8.17178e-07
1.8916e-05
-9.3014e-07
1.88531e-05
-1.06082e-06
1.87769e-05
-1.21153e-06
1.86834e-05
-1.38467e-06
1.8568e-05
-1.58273e-06
1.8424e-05
-1.80823e-06
1.82422e-05
-2.06379e-06
1.80103e-05
-2.35196e-06
1.77097e-05
-2.67579e-06
1.73168e-05
-3.03598e-06
-3.44432e-06
1.67803e-05
1.92476e-05
-1.1529e-08
1.9246e-05
-3.55114e-08
1.92431e-05
-6.11414e-08
1.92389e-05
-8.80629e-08
1.92332e-05
-1.15971e-07
1.9226e-05
-1.4462e-07
1.92172e-05
-1.73861e-07
1.92066e-05
-2.03688e-07
1.91943e-05
-2.3429e-07
1.91801e-05
-2.66089e-07
1.91638e-05
-2.99738e-07
1.91451e-05
-3.36094e-07
1.91238e-05
-3.76182e-07
1.90995e-05
-4.21149e-07
1.90715e-05
-4.72238e-07
1.90392e-05
-5.30769e-07
1.90017e-05
-5.98158e-07
1.89579e-05
-6.75931e-07
1.89064e-05
-7.65719e-07
1.88455e-05
-8.69228e-07
1.87729e-05
-9.88181e-07
1.86856e-05
-1.12424e-06
1.85799e-05
-1.27894e-06
1.84507e-05
-1.45353e-06
1.82913e-05
-1.64885e-06
1.80926e-05
-1.86511e-06
1.7842e-05
-2.10138e-06
1.75213e-05
-2.355e-06
1.71068e-05
-2.62154e-06
-2.88566e-06
1.65482e-05
1.92475e-05
-1.08945e-08
1.92455e-05
-3.35481e-08
1.92421e-05
-5.77009e-08
1.9237e-05
-8.29955e-08
1.92302e-05
-1.09148e-07
1.92215e-05
-1.35946e-07
1.92109e-05
-1.63259e-07
1.91983e-05
-1.91076e-07
1.91836e-05
-2.19571e-07
1.91666e-05
-2.49131e-07
1.91473e-05
-2.80359e-07
1.91252e-05
-3.14042e-07
1.91001e-05
-3.51111e-07
1.90716e-05
-3.92604e-07
1.9039e-05
-4.39633e-07
1.90016e-05
-4.93365e-07
1.89585e-05
-5.55034e-07
1.89085e-05
-6.25935e-07
1.88502e-05
-7.07408e-07
1.87817e-05
-8.00788e-07
1.87009e-05
-9.0732e-07
1.86047e-05
-1.02805e-06
1.84894e-05
-1.16367e-06
1.83502e-05
-1.31434e-06
1.81807e-05
-1.47933e-06
1.79722e-05
-1.65666e-06
1.77132e-05
-1.84239e-06
1.73871e-05
-2.02885e-06
1.69729e-05
-2.20739e-06
-2.33954e-06
1.64268e-05
1.92474e-05
-1.01686e-08
1.92452e-05
-3.13033e-08
1.92412e-05
-5.37529e-08
1.92354e-05
-7.7157e-08
1.92275e-05
-1.0127e-07
1.92175e-05
-1.25929e-07
1.92052e-05
-1.51024e-07
1.91907e-05
-1.76542e-07
1.91738e-05
-2.02636e-07
1.91543e-05
-2.29662e-07
1.91321e-05
-2.58168e-07
1.91069e-05
-2.88865e-07
1.90784e-05
-3.22589e-07
1.90461e-05
-3.6026e-07
1.90093e-05
-4.02857e-07
1.89673e-05
-4.51395e-07
1.89192e-05
-5.06922e-07
1.88638e-05
-5.70511e-07
1.87996e-05
-6.43226e-07
1.87249e-05
-7.26054e-07
1.86374e-05
-8.19805e-07
1.85343e-05
-9.24973e-07
1.84121e-05
-1.04154e-06
1.82665e-05
-1.16869e-06
1.80916e-05
-1.30445e-06
1.788e-05
-1.44507e-06
1.76219e-05
-1.58422e-06
1.73035e-05
-1.71046e-06
1.69083e-05
-1.81222e-06
-1.8344e-06
1.64032e-05
1.92473e-05
-9.36977e-09
1.92449e-05
-2.88356e-08
1.92405e-05
-4.9381e-08
1.9234e-05
-7.06424e-08
1.92252e-05
-9.24451e-08
1.92139e-05
-1.14696e-07
1.92002e-05
-1.37308e-07
1.91839e-05
-1.60262e-07
1.9165e-05
-1.83691e-07
1.91432e-05
-2.07917e-07
1.91185e-05
-2.33433e-07
1.90905e-05
-2.6087e-07
1.90589e-05
-2.90964e-07
1.90231e-05
-3.24519e-07
1.89827e-05
-3.62378e-07
1.89367e-05
-4.05406e-07
1.88842e-05
-4.54473e-07
1.88242e-05
-5.10445e-07
1.87551e-05
-5.74128e-07
1.86752e-05
-6.46205e-07
1.85825e-05
-7.27113e-07
1.84744e-05
-8.16889e-07
1.83478e-05
-9.14942e-07
1.81989e-05
-1.01975e-06
1.80228e-05
-1.12839e-06
1.78137e-05
-1.23589e-06
1.75638e-05
-1.33439e-06
1.72635e-05
-1.41013e-06
1.69014e-05
-1.45008e-06
-1.39028e-06
1.64572e-05
1.92473e-05
-8.52399e-09
1.92447e-05
-2.62254e-08
1.924e-05
-4.46858e-08
1.92329e-05
-6.35567e-08
1.92232e-05
-8.27938e-08
1.92109e-05
-1.02392e-07
1.91959e-05
-1.22278e-07
1.91781e-05
-1.42422e-07
1.91573e-05
-1.62947e-07
1.91336e-05
-1.84141e-07
1.91066e-05
-2.06434e-07
1.90761e-05
-2.30375e-07
1.90417e-05
-2.56599e-07
1.9003e-05
-2.85793e-07
1.89593e-05
-3.1867e-07
1.89098e-05
-3.55947e-07
1.88537e-05
-3.98331e-07
1.87897e-05
-4.46494e-07
1.87166e-05
-5.01022e-07
1.86327e-05
-5.62337e-07
1.85362e-05
-6.30577e-07
1.84247e-05
-7.05439e-07
1.82957e-05
-7.85936e-07
1.81461e-05
-8.70083e-07
1.79721e-05
-9.54416e-07
1.77695e-05
-1.03332e-06
1.75334e-05
-1.09828e-06
1.7258e-05
-1.13474e-06
1.69375e-05
-1.12959e-06
-1.0176e-06
1.65648e-05
1.92473e-05
-7.6752e-09
1.92447e-05
-2.35918e-08
1.92397e-05
-3.97828e-08
1.92322e-05
-5.60033e-08
1.92218e-05
-7.24403e-08
1.92086e-05
-8.91744e-08
1.91925e-05
-1.0612e-07
1.91733e-05
-1.23239e-07
1.9151e-05
-1.4065e-07
1.91254e-05
-1.58605e-07
1.90965e-05
-1.77472e-07
1.90638e-05
-1.97715e-07
1.90271e-05
-2.19867e-07
1.89858e-05
-2.44503e-07
1.89393e-05
-2.72207e-07
1.8887e-05
-3.03559e-07
1.88277e-05
-3.39113e-07
1.87606e-05
-3.79373e-07
1.86843e-05
-4.24735e-07
1.85974e-05
-4.75415e-07
1.84982e-05
-5.31335e-07
1.83847e-05
-5.91972e-07
1.82549e-05
-6.56123e-07
1.81064e-05
-7.21601e-07
1.79368e-05
-7.84792e-07
1.77435e-05
-8.40024e-07
1.75241e-05
-8.78928e-07
1.7277e-05
-8.87602e-07
1.70013e-05
-8.53923e-07
-7.1794e-07
1.67017e-05
1.92474e-05
-6.90378e-09
1.92449e-05
-2.11288e-08
1.92399e-05
-3.48066e-08
1.9232e-05
-4.80869e-08
1.92211e-05
-6.15052e-08
1.92071e-05
-7.51782e-08
1.91899e-05
-8.8988e-08
1.91696e-05
-1.02901e-07
1.9146e-05
-1.17026e-07
1.9119e-05
-1.31577e-07
1.90883e-05
-1.46852e-07
1.90539e-05
-1.63233e-07
1.90151e-05
-1.81155e-07
1.89717e-05
-2.01079e-07
1.8923e-05
-2.23466e-07
1.88682e-05
-2.48768e-07
1.88065e-05
-2.77407e-07
1.87368e-05
-3.09743e-07
1.86581e-05
-3.46016e-07
1.8569e-05
-3.86281e-07
1.8468e-05
-4.30327e-07
1.83535e-05
-4.77529e-07
1.82241e-05
-5.26643e-07
1.8078e-05
-5.75532e-07
1.7914e-05
-6.20786e-07
1.77311e-05
-6.57174e-07
1.75294e-05
-6.77174e-07
1.73104e-05
-6.6863e-07
1.70779e-05
-6.21404e-07
-4.85519e-07
1.68455e-05
1.92476e-05
-6.37176e-09
1.92456e-05
-1.90947e-08
1.92407e-05
-2.99036e-08
1.92325e-05
-3.99701e-08
1.92212e-05
-5.01919e-08
1.92067e-05
-6.06148e-08
1.91888e-05
-7.10984e-08
1.91675e-05
-8.1636e-08
1.91428e-05
-9.23269e-08
1.91146e-05
-1.03332e-07
1.90826e-05
-1.1488e-07
1.90466e-05
-1.27266e-07
1.90063e-05
-1.40829e-07
1.89612e-05
-1.55924e-07
1.89106e-05
-1.72897e-07
1.88539e-05
-1.9208e-07
1.87903e-05
-2.13778e-07
1.87188e-05
-2.38234e-07
1.86383e-05
-2.65554e-07
1.85477e-05
-2.95679e-07
1.84457e-05
-3.28341e-07
1.83311e-05
-3.62922e-07
1.82027e-05
-3.98284e-07
1.80598e-05
-4.32548e-07
1.79018e-05
-4.62811e-07
1.77293e-05
-4.8468e-07
1.75441e-05
-4.92029e-07
1.73506e-05
-4.75064e-07
1.71558e-05
-4.26678e-07
-3.08666e-07
1.6979e-05
1.92484e-05
-6.62125e-09
1.92469e-05
-1.76219e-08
1.9242e-05
-2.50392e-08
1.92338e-05
-3.17012e-08
1.92222e-05
-3.86004e-08
1.92072e-05
-4.56299e-08
1.91888e-05
-5.26691e-08
1.91669e-05
-5.97332e-08
1.91414e-05
-6.6891e-08
1.91123e-05
-7.42486e-08
1.90794e-05
-8.19672e-08
1.90424e-05
-9.02642e-08
1.9001e-05
-9.93884e-08
1.89547e-05
-1.0959e-07
1.89029e-05
-1.21104e-07
1.88449e-05
-1.34144e-07
1.87801e-05
-1.48926e-07
1.87074e-05
-1.65604e-07
1.8626e-05
-1.84132e-07
1.85347e-05
-2.04375e-07
1.84325e-05
-2.26105e-07
1.83184e-05
-2.48802e-07
1.81916e-05
-2.7155e-07
1.8052e-05
-2.92885e-07
1.78998e-05
-3.10621e-07
1.77365e-05
-3.21447e-07
1.75655e-05
-3.20978e-07
1.73921e-05
-3.01671e-07
1.72268e-05
-2.61414e-07
-1.70877e-07
1.70891e-05
1.92511e-05
-9.62e-09
1.92496e-05
-1.60436e-08
1.92442e-05
-1.96362e-08
1.92356e-05
-2.31817e-08
1.92237e-05
-2.66404e-08
1.92081e-05
-3.00289e-08
1.91888e-05
-3.3421e-08
1.91659e-05
-3.68539e-08
1.91394e-05
-4.0374e-08
1.91092e-05
-4.40648e-08
1.90753e-05
-4.80256e-08
1.90374e-05
-5.23533e-08
1.89951e-05
-5.71433e-08
1.89481e-05
-6.24967e-08
1.88955e-05
-6.8518e-08
1.88366e-05
-7.53018e-08
1.87706e-05
-8.28908e-08
1.86963e-05
-9.13045e-08
1.86128e-05
-1.00617e-07
1.85192e-05
-1.10793e-07
1.84147e-05
-1.21608e-07
1.82986e-05
-1.32716e-07
1.81706e-05
-1.43566e-07
1.8031e-05
-1.53296e-07
1.7881e-05
-1.60632e-07
1.77233e-05
-1.63711e-07
1.75624e-05
-1.60059e-07
1.74061e-05
-1.45418e-07
1.72632e-05
-1.18466e-07
-4.47422e-08
1.71371e-05
1.92385e-05
1.92225e-05
1.92028e-05
1.91797e-05
1.9153e-05
1.9123e-05
1.90896e-05
1.90527e-05
1.90123e-05
1.89683e-05
1.89202e-05
1.88679e-05
1.88107e-05
1.87482e-05
1.86797e-05
1.86044e-05
1.85215e-05
1.84302e-05
1.83296e-05
1.82188e-05
1.80972e-05
1.79645e-05
1.78209e-05
1.76676e-05
1.7507e-05
1.73433e-05
1.71832e-05
1.70378e-05
1.69194e-05
1.68746e-05
2.24141e-05
-1.06199e-05
1.10648e-05
2.19659e-05
-1.07558e-05
1.1204e-05
2.14896e-05
-1.08851e-05
1.13615e-05
2.09818e-05
-1.10034e-05
1.15112e-05
2.0449e-05
-1.11197e-05
1.16525e-05
1.98972e-05
-1.12378e-05
1.17895e-05
1.93306e-05
-1.13587e-05
1.19253e-05
1.87522e-05
-1.14835e-05
1.2062e-05
1.81638e-05
-1.16136e-05
1.22019e-05
1.75665e-05
-1.17497e-05
1.23471e-05
1.69602e-05
-1.18926e-05
1.24989e-05
1.63442e-05
-1.20427e-05
1.26586e-05
1.5718e-05
-1.22008e-05
1.28271e-05
1.50808e-05
-1.23681e-05
1.30053e-05
1.44315e-05
-1.25461e-05
1.31954e-05
1.37691e-05
-1.27365e-05
1.33989e-05
1.30921e-05
-1.29415e-05
1.36185e-05
1.23986e-05
-1.31634e-05
1.38569e-05
1.16861e-05
-1.34053e-05
1.41178e-05
1.09513e-05
-1.36705e-05
1.44054e-05
1.01898e-05
-1.39634e-05
1.47249e-05
9.39586e-06
-1.4289e-05
1.50829e-05
8.56205e-06
-1.46537e-05
1.54875e-05
7.67801e-06
-1.50656e-05
1.59497e-05
6.72945e-06
-1.55325e-05
1.6481e-05
5.69606e-06
-1.60696e-05
1.7103e-05
4.55832e-06
-1.66804e-05
1.78182e-05
3.23498e-06
-1.74068e-05
1.87302e-05
1.81169e-06
-1.81501e-05
1.95734e-05
-1.93548e-05
2.11665e-05
2.25569e-05
-1.01497e-05
2.20512e-05
-1.025e-05
2.15192e-05
-1.03531e-05
2.09714e-05
-1.04557e-05
2.04128e-05
-1.05611e-05
1.98458e-05
-1.06708e-05
1.92719e-05
-1.07847e-05
1.86913e-05
-1.09029e-05
1.81036e-05
-1.10259e-05
1.75078e-05
-1.11539e-05
1.69029e-05
-1.12877e-05
1.6288e-05
-1.14278e-05
1.56623e-05
-1.15752e-05
1.50252e-05
-1.1731e-05
1.43758e-05
-1.18966e-05
1.37127e-05
-1.20735e-05
1.30345e-05
-1.22633e-05
1.23391e-05
-1.2468e-05
1.16239e-05
-1.269e-05
1.08853e-05
-1.2932e-05
1.01192e-05
-1.31972e-05
9.31971e-06
-1.34896e-05
8.47951e-06
-1.38135e-05
7.58862e-06
-1.41747e-05
6.63378e-06
-1.45776e-05
5.59747e-06
-1.50333e-05
4.45486e-06
-1.55378e-05
3.16854e-06
-1.61205e-05
1.73974e-06
-1.67213e-05
-1.76151e-05
2.24638e-05
-9.63752e-06
2.19369e-05
-9.72324e-06
2.13977e-05
-9.81387e-06
2.08512e-05
-9.90924e-06
2.02988e-05
-1.00087e-05
1.97396e-05
-1.01115e-05
1.91726e-05
-1.02177e-05
1.85971e-05
-1.03275e-05
1.80125e-05
-1.04413e-05
1.74184e-05
-1.05598e-05
1.68142e-05
-1.06835e-05
1.61997e-05
-1.08133e-05
1.55745e-05
-1.09499e-05
1.49378e-05
-1.10943e-05
1.42886e-05
-1.12474e-05
1.36256e-05
-1.14104e-05
1.29469e-05
-1.15846e-05
1.22504e-05
-1.17716e-05
1.15335e-05
-1.19731e-05
1.07927e-05
-1.21912e-05
1.00236e-05
-1.24281e-05
9.22071e-06
-1.26867e-05
8.37683e-06
-1.29696e-05
7.4825e-06
-1.32804e-05
6.52548e-06
-1.36206e-05
5.48962e-06
-1.39974e-05
4.35251e-06
-1.44007e-05
3.08915e-06
-1.48572e-05
1.66879e-06
-1.5301e-05
-1.59463e-05
2.23643e-05
-9.11672e-06
2.18346e-05
-9.19362e-06
2.12959e-05
-9.27512e-06
2.07496e-05
-9.363e-06
2.01961e-05
-9.45513e-06
1.96345e-05
-9.54995e-06
1.90644e-05
-9.64759e-06
1.84856e-05
-9.74869e-06
1.78981e-05
-9.85382e-06
1.73018e-05
-9.96341e-06
1.66962e-05
-1.00779e-05
1.60807e-05
-1.01979e-05
1.54547e-05
-1.03239e-05
1.4817e-05
-1.04567e-05
1.41666e-05
-1.0597e-05
1.35018e-05
-1.07457e-05
1.2821e-05
-1.09038e-05
1.21219e-05
-1.10725e-05
1.1402e-05
-1.12531e-05
1.06577e-05
-1.14469e-05
9.88494e-06
-1.16554e-05
9.07827e-06
-1.188e-05
8.23093e-06
-1.21222e-05
7.33417e-06
-1.23836e-05
6.37699e-06
-1.26634e-05
5.34488e-06
-1.29653e-05
4.21935e-06
-1.32752e-05
2.97976e-06
-1.36176e-05
1.58918e-06
-1.39104e-05
-1.43571e-05
2.22266e-05
-8.58972e-06
2.16922e-05
-8.65917e-06
2.11497e-05
-8.73263e-06
2.05999e-05
-8.81323e-06
2.0043e-05
-8.89828e-06
1.94787e-05
-8.98564e-06
1.89066e-05
-9.0755e-06
1.83266e-05
-9.16864e-06
1.77383e-05
-9.26552e-06
1.71412e-05
-9.36637e-06
1.65348e-05
-9.47152e-06
1.59184e-05
-9.58139e-06
1.52909e-05
-9.69647e-06
1.46516e-05
-9.81731e-06
1.39991e-05
-9.94448e-06
1.33321e-05
-1.00786e-05
1.26488e-05
-1.02205e-05
1.1947e-05
-1.03708e-05
1.12241e-05
-1.05302e-05
1.04769e-05
-1.06997e-05
9.70123e-06
-1.08797e-05
8.89215e-06
-1.10709e-05
8.04339e-06
-1.12735e-05
7.14707e-06
-1.14873e-05
6.19351e-06
-1.17099e-05
5.17013e-06
-1.19419e-05
4.06196e-06
-1.2167e-05
2.85054e-06
-1.24062e-05
1.50378e-06
-1.25636e-05
-1.28533e-05
2.20492e-05
-8.05775e-06
2.15106e-05
-8.12057e-06
2.09648e-05
-8.1868e-06
2.04121e-05
-8.26058e-06
1.98527e-05
-8.33882e-06
1.92861e-05
-8.41901e-06
1.87118e-05
-8.50128e-06
1.81297e-05
-8.58648e-06
1.75392e-05
-8.67502e-06
1.69398e-05
-8.76703e-06
1.6331e-05
-8.86273e-06
1.57121e-05
-8.96244e-06
1.50822e-05
-9.06655e-06
1.44403e-05
-9.17541e-06
1.37852e-05
-9.28942e-06
1.31155e-05
-9.40897e-06
1.24295e-05
-9.53446e-06
1.1725e-05
-9.66627e-06
1.09995e-05
-9.80474e-06
1.02499e-05
-9.95007e-06
9.47251e-06
-1.01023e-05
8.66269e-06
-1.02611e-05
7.81487e-06
-1.04257e-05
6.92214e-06
-1.05946e-05
5.97626e-06
-1.0764e-05
4.96662e-06
-1.09323e-05
3.88144e-06
-1.10818e-05
2.70481e-06
-1.12295e-05
1.41318e-06
-1.1272e-05
-1.14401e-05
2.18259e-05
-7.52098e-06
2.12831e-05
-7.57774e-06
2.07336e-05
-7.63725e-06
2.01775e-05
-7.70447e-06
1.96147e-05
-7.77608e-06
1.9045e-05
-7.84925e-06
1.84677e-05
-7.92407e-06
1.78827e-05
-8.00145e-06
1.72894e-05
-8.08174e-06
1.66874e-05
-8.16499e-06
1.6076e-05
-8.25132e-06
1.54545e-05
-8.34093e-06
1.4822e-05
-8.43409e-06
1.41776e-05
-8.53099e-06
1.352e-05
-8.63185e-06
1.28479e-05
-8.73684e-06
1.21596e-05
-8.84612e-06
1.1453e-05
-8.95974e-06
1.07259e-05
-9.07766e-06
9.97549e-06
-9.19962e-06
9.19828e-06
-9.32508e-06
8.39026e-06
-9.4531e-06
7.54659e-06
-9.58199e-06
6.66141e-06
-9.70939e-06
5.72795e-06
-9.83055e-06
4.7376e-06
-9.94196e-06
3.68159e-06
-1.00258e-05
2.54694e-06
-1.00949e-05
1.31931e-06
-1.00444e-05
-1.01208e-05
2.1551e-05
-6.97942e-06
2.10038e-05
-7.03057e-06
2.04504e-05
-7.08381e-06
1.98906e-05
-7.14472e-06
1.93244e-05
-7.20984e-06
1.87513e-05
-7.27616e-06
1.81709e-05
-7.34371e-06
1.75829e-05
-7.4134e-06
1.69867e-05
-7.48556e-06
1.63818e-05
-7.56016e-06
1.57677e-05
-7.6372e-06
1.51436e-05
-7.71681e-06
1.45086e-05
-7.79913e-06
1.38619e-05
-7.88424e-06
1.32022e-05
-7.97218e-06
1.25283e-05
-8.06294e-06
1.18386e-05
-8.15644e-06
1.11314e-05
-8.25248e-06
1.04044e-05
-8.35067e-06
9.65517e-06
-8.4504e-06
8.88077e-06
-8.55068e-06
8.07773e-06
-8.65005e-06
7.24199e-06
-8.74625e-06
6.36882e-06
-8.83622e-06
5.4529e-06
-8.91463e-06
4.48761e-06
-8.97667e-06
3.46699e-06
-9.0052e-06
2.38116e-06
-9.00904e-06
1.22432e-06
-8.88753e-06
-8.89649e-06
2.12191e-05
-6.43311e-06
2.06676e-05
-6.47906e-06
2.01103e-05
-6.52648e-06
1.95468e-05
-6.5813e-06
1.89771e-05
-6.64008e-06
1.84006e-05
-6.69971e-06
1.78171e-05
-6.76018e-06
1.72261e-05
-6.82238e-06
1.66271e-05
-6.8866e-06
1.60197e-05
-6.95273e-06
1.54032e-05
-7.02071e-06
1.4777e-05
-7.09058e-06
1.41402e-05
-7.16238e-06
1.34921e-05
-7.23607e-06
1.28314e-05
-7.31155e-06
1.21572e-05
-7.38865e-06
1.14678e-05
-7.4671e-06
1.07618e-05
-7.54647e-06
1.00373e-05
-7.62615e-06
9.2921e-06
-7.70521e-06
8.52377e-06
-7.78236e-06
7.72947e-06
-7.85576e-06
6.906e-06
-7.92278e-06
6.0497e-06
-7.97992e-06
5.15666e-06
-8.02159e-06
4.22219e-06
-8.0422e-06
3.24286e-06
-8.02586e-06
2.21168e-06
-7.97787e-06
1.13e-06
-7.80585e-06
-7.76649e-06
2.08267e-05
-5.88226e-06
2.02711e-05
-5.92346e-06
1.97102e-05
-5.96552e-06
1.91434e-05
-6.01451e-06
1.85704e-05
-6.06713e-06
1.7991e-05
-6.1203e-06
1.74048e-05
-6.17396e-06
1.68114e-05
-6.22895e-06
1.62103e-05
-6.28552e-06
1.56011e-05
-6.34352e-06
1.49832e-05
-6.40281e-06
1.4356e-05
-6.46336e-06
1.37187e-05
-6.52512e-06
1.30706e-05
-6.58796e-06
1.24107e-05
-6.65167e-06
1.1738e-05
-6.71594e-06
1.10513e-05
-6.78035e-06
1.03491e-05
-6.84432e-06
9.63001e-06