/*--------------------------------*- C++ -*----------------------------------*\
  =========                 |
  \\      /  F ield         | OpenFOAM: The Open Source CFD Toolbox
   \\    /   O peration     | Website:  https://openfoam.org
    \\  /    A nd           | Version:  11
     \\/     M anipulation  |
\*---------------------------------------------------------------------------*/
FoamFile
{
    format      ascii;
    class       surfaceScalarField;
    location    "5.5";
    object      phi;
}
// * * * * * * * * * * * * * * * * * * * * * * * * * * * * * * * * * * * * * //

dimensions      [0 3 -1 0 0 0 0];

internalField   nonuniform List<scalar> 
24840
(
1.92413e-05
6.84016e-09
1.9231e-05
1.0252e-08
1.92212e-05
9.82718e-09
1.92115e-05
9.68442e-09
1.92018e-05
9.7629e-09
1.9192e-05
9.72459e-09
1.91826e-05
9.4827e-09
1.91735e-05
9.03405e-09
1.91652e-05
8.28998e-09
1.91581e-05
7.14573e-09
1.91526e-05
5.53373e-09
1.91492e-05
3.34939e-09
1.91485e-05
6.80751e-10
1.91512e-05
-2.7199e-09
1.91582e-05
-6.9654e-09
1.91704e-05
-1.22215e-08
1.91887e-05
-1.8304e-08
1.92145e-05
-2.57206e-08
1.92488e-05
-3.43304e-08
1.92925e-05
-4.3696e-08
1.93474e-05
-5.49393e-08
1.94164e-05
-6.9011e-08
1.95022e-05
-8.57905e-08
1.96077e-05
-1.05519e-07
1.97365e-05
-1.28723e-07
1.98921e-05
-1.55655e-07
2.00794e-05
-1.87239e-07
2.02998e-05
-2.20416e-07
2.05692e-05
-2.69412e-07
-2.7309e-07
2.08423e-05
1.92525e-05
2.47724e-09
1.92568e-05
5.95922e-09
1.92608e-05
5.78598e-09
1.92645e-05
5.98027e-09
1.9268e-05
6.30789e-09
1.92715e-05
6.25395e-09
1.92751e-05
5.84773e-09
1.9279e-05
5.15068e-09
1.92833e-05
3.94825e-09
1.92884e-05
2.02693e-09
1.92946e-05
-5.77406e-10
1.93022e-05
-4.33195e-09
1.93119e-05
-9.02385e-09
1.93242e-05
-1.49707e-08
1.93395e-05
-2.23237e-08
1.93586e-05
-3.12537e-08
1.93822e-05
-4.19704e-08
1.94112e-05
-5.46263e-08
1.9447e-05
-7.01918e-08
1.94936e-05
-9.03218e-08
1.95533e-05
-1.14606e-07
1.96264e-05
-1.42154e-07
1.97144e-05
-1.73718e-07
1.98194e-05
-2.10587e-07
1.99447e-05
-2.53971e-07
2.00938e-05
-3.04748e-07
2.02708e-05
-3.64281e-07
2.04804e-05
-4.30036e-07
2.07267e-05
-5.15652e-07
-5.49604e-07
2.10032e-05
1.92499e-05
7.41947e-10
1.92534e-05
2.43405e-09
1.92566e-05
2.59067e-09
1.926e-05
2.53422e-09
1.92635e-05
2.7984e-09
1.9267e-05
2.81663e-09
1.92704e-05
2.39067e-09
1.9274e-05
1.57057e-09
1.92779e-05
6.45661e-11
1.92824e-05
-2.47692e-09
1.92879e-05
-6.04596e-09
1.92947e-05
-1.11619e-08
1.93036e-05
-1.78721e-08
1.9315e-05
-2.64544e-08
1.93299e-05
-3.71891e-08
1.9349e-05
-5.03778e-08
1.93734e-05
-6.63703e-08
1.94043e-05
-8.55359e-08
1.94428e-05
-1.0861e-07
1.94892e-05
-1.36794e-07
1.95452e-05
-1.706e-07
1.96131e-05
-2.10034e-07
1.96953e-05
-2.55915e-07
1.97945e-05
-3.09765e-07
1.99137e-05
-3.73241e-07
2.00567e-05
-4.47721e-07
2.02277e-05
-5.35301e-07
2.04311e-05
-6.33414e-07
2.06729e-05
-7.57476e-07
-8.36676e-07
2.096e-05
1.92493e-05
-4.01452e-10
1.92521e-05
-3.46067e-10
1.9255e-05
-3.93656e-10
1.92581e-05
-5.40607e-10
1.92613e-05
-4.16286e-10
1.92646e-05
-4.08188e-10
1.92678e-05
-8.3586e-10
1.92711e-05
-1.7516e-09
1.92748e-05
-3.58888e-09
1.92789e-05
-6.61808e-09
1.9284e-05
-1.11334e-08
1.92904e-05
-1.75493e-08
1.92987e-05
-2.61586e-08
1.93095e-05
-3.72735e-08
1.93235e-05
-5.12438e-08
1.93416e-05
-6.84436e-08
1.93645e-05
-8.93088e-08
1.93934e-05
-1.14373e-07
1.94292e-05
-1.44411e-07
1.94728e-05
-1.80466e-07
1.95256e-05
-2.23379e-07
1.95894e-05
-2.73843e-07
1.96666e-05
-3.33117e-07
1.97599e-05
-4.03051e-07
1.98725e-05
-4.8577e-07
2.0008e-05
-5.83261e-07
2.01711e-05
-6.98369e-07
2.03672e-05
-8.29516e-07
2.06017e-05
-9.92054e-07
-1.12234e-06
2.08874e-05
1.9249e-05
-1.25695e-09
1.92511e-05
-2.46139e-09
1.92537e-05
-2.9959e-09
1.92564e-05
-3.278e-09
1.92594e-05
-3.33976e-09
1.92623e-05
-3.37392e-09
1.92653e-05
-3.80166e-09
1.92684e-05
-4.84428e-09
1.92718e-05
-6.94772e-09
1.92756e-05
-1.04697e-08
1.92803e-05
-1.58442e-08
1.92863e-05
-2.34935e-08
1.92939e-05
-3.38303e-08
1.93039e-05
-4.72468e-08
1.93168e-05
-6.41546e-08
1.93334e-05
-8.50011e-08
1.93544e-05
-1.10305e-07
1.93807e-05
-1.40699e-07
1.94133e-05
-1.77007e-07
1.94531e-05
-2.20276e-07
1.95013e-05
-2.71624e-07
1.95598e-05
-3.32266e-07
1.96305e-05
-4.03875e-07
1.97162e-05
-4.88689e-07
1.98198e-05
-5.89391e-07
1.99453e-05
-7.08744e-07
2.00974e-05
-8.5045e-07
2.02823e-05
-1.01447e-06
2.05057e-05
-1.21549e-06
-1.39928e-06
2.07827e-05
1.92488e-05
-1.93968e-09
1.92505e-05
-4.17793e-09
1.92528e-05
-5.27455e-09
1.92553e-05
-5.78674e-09
1.92579e-05
-5.96083e-09
1.92606e-05
-6.05018e-09
1.92633e-05
-6.50654e-09
1.92662e-05
-7.68892e-09
1.92692e-05
-1.00085e-08
1.92727e-05
-1.39602e-08
1.92769e-05
-2.00507e-08
1.92822e-05
-2.88004e-08
1.92891e-05
-4.06859e-08
1.9298e-05
-5.61627e-08
1.93095e-05
-7.56947e-08
1.93243e-05
-9.97837e-08
1.9343e-05
-1.29009e-07
1.93664e-05
-1.64075e-07
1.93953e-05
-2.05877e-07
1.94305e-05
-2.55538e-07
1.94733e-05
-3.14394e-07
1.95251e-05
-3.84043e-07
1.95878e-05
-4.66571e-07
1.96638e-05
-5.64678e-07
1.97561e-05
-6.81674e-07
1.98685e-05
-8.21211e-07
2.00061e-05
-9.88e-07
2.01755e-05
-1.18393e-06
2.03831e-05
-1.42308e-06
-1.66277e-06
2.06466e-05
1.92487e-05
-2.51185e-09
1.92502e-05
-5.62353e-09
1.92521e-05
-7.25045e-09
1.92543e-05
-8.00696e-09
1.92567e-05
-8.28031e-09
1.9259e-05
-8.42813e-09
1.92615e-05
-8.92628e-09
1.9264e-05
-1.02059e-08
1.92667e-05
-1.27117e-08
1.92697e-05
-1.7013e-08
1.92734e-05
-2.37213e-08
1.9278e-05
-3.34203e-08
1.9284e-05
-4.66418e-08
1.92917e-05
-6.38896e-08
1.93017e-05
-8.56692e-08
1.93144e-05
-1.12523e-07
1.93305e-05
-1.45076e-07
1.93505e-05
-1.84088e-07
1.93751e-05
-2.30514e-07
1.94052e-05
-2.85568e-07
1.94415e-05
-3.50762e-07
1.94855e-05
-4.28001e-07
1.95387e-05
-5.19754e-07
1.96032e-05
-6.29199e-07
1.96818e-05
-7.60308e-07
1.97783e-05
-9.1771e-07
1.98976e-05
-1.10728e-06
2.00469e-05
-1.33321e-06
2.0233e-05
-1.60921e-06
-1.9065e-06
2.04767e-05
1.92486e-05
-2.99878e-09
1.92499e-05
-6.85633e-09
1.92516e-05
-8.9519e-09
1.92535e-05
-9.94668e-09
1.92555e-05
-1.03169e-08
1.92576e-05
-1.05038e-08
1.92597e-05
-1.10452e-08
1.92619e-05
-1.24063e-08
1.92643e-05
-1.50479e-08
1.92669e-05
-1.96079e-08
1.92699e-05
-2.68019e-08
1.92738e-05
-3.72757e-08
1.92787e-05
-5.15975e-08
1.92852e-05
-7.03009e-08
1.92934e-05
-9.39188e-08
1.93039e-05
-1.2302e-07
1.93171e-05
-1.58256e-07
1.93334e-05
-2.0042e-07
1.93534e-05
-2.50511e-07
1.93777e-05
-3.09813e-07
1.94069e-05
-3.79978e-07
1.9442e-05
-4.63145e-07
1.94844e-05
-5.62114e-07
1.95357e-05
-6.80519e-07
1.95984e-05
-8.22999e-07
1.96759e-05
-9.95192e-07
1.97729e-05
-1.20426e-06
1.98967e-05
-1.45703e-06
2.00546e-05
-1.76716e-06
-2.1221e-06
2.02702e-05
1.92485e-05
-3.41258e-09
1.92496e-05
-7.90737e-09
1.92511e-05
-1.04066e-08
1.92527e-05
-1.16166e-08
1.92545e-05
-1.20725e-08
1.92563e-05
-1.22817e-08
1.92581e-05
-1.28545e-08
1.92599e-05
-1.42678e-08
1.92619e-05
-1.69851e-08
1.9264e-05
-2.17154e-08
1.92664e-05
-2.92645e-08
1.92695e-05
-4.0329e-08
1.92734e-05
-5.54975e-08
1.92784e-05
-7.53179e-08
1.92848e-05
-1.00336e-07
1.92929e-05
-1.31132e-07
1.9303e-05
-1.68363e-07
1.93155e-05
-2.12829e-07
1.93305e-05
-2.65546e-07
1.93485e-05
-3.27837e-07
1.937e-05
-4.01441e-07
1.93955e-05
-4.88658e-07
1.94259e-05
-5.92546e-07
1.94625e-05
-7.17131e-07
1.95072e-05
-8.67661e-07
1.95628e-05
-1.05075e-06
1.96334e-05
-1.2749e-06
1.97261e-05
-1.54975e-06
1.98482e-05
-1.88923e-06
-2.29905e-06
2.00251e-05
1.92485e-05
-3.75966e-09
1.92494e-05
-8.79531e-09
1.92506e-05
-1.16328e-08
1.9252e-05
-1.3025e-08
1.92535e-05
-1.35527e-08
1.9255e-05
-1.37682e-08
1.92565e-05
-1.43535e-08
1.9258e-05
-1.57852e-08
1.92595e-05
-1.85222e-08
1.92611e-05
-2.33333e-08
1.9263e-05
-3.11024e-08
1.92652e-05
-4.2564e-08
1.9268e-05
-5.83139e-08
1.92716e-05
-7.89001e-08
1.92761e-05
-1.04867e-07
1.92818e-05
-1.36784e-07
1.92887e-05
-1.75294e-07
1.92971e-05
-2.21177e-07
1.9307e-05
-2.75429e-07
1.93185e-05
-3.39367e-07
1.93318e-05
-4.14755e-07
1.93471e-05
-5.03971e-07
1.93648e-05
-6.10229e-07
1.93855e-05
-7.37834e-07
1.94104e-05
-8.92524e-07
1.94414e-05
-1.08177e-06
1.94818e-05
-1.3153e-06
1.95376e-05
-1.60559e-06
1.96154e-05
-1.96705e-06
-2.42482e-06
1.97412e-05
1.92484e-05
-4.04451e-09
1.92492e-05
-9.53088e-09
1.92502e-05
-1.26466e-08
1.92513e-05
-1.41802e-08
1.92525e-05
-1.47642e-08
1.92537e-05
-1.49742e-08
1.92549e-05
-1.55484e-08
1.92561e-05
-1.6965e-08
1.92573e-05
-1.96636e-08
1.92584e-05
-2.4466e-08
1.92596e-05
-3.23222e-08
1.9261e-05
-4.39877e-08
1.92628e-05
-6.00514e-08
1.92649e-05
-8.10488e-08
1.92676e-05
-1.07506e-07
1.92707e-05
-1.39967e-07
1.92745e-05
-1.79033e-07
1.92787e-05
-2.25432e-07
1.92834e-05
-2.80104e-07
1.92883e-05
-3.44305e-07
1.92933e-05
-4.1975e-07
1.92982e-05
-5.08797e-07
1.93026e-05
-6.14688e-07
1.93066e-05
-7.41851e-07
1.93104e-05
-8.96313e-07
1.93148e-05
-1.08615e-06
1.93216e-05
-1.3221e-06
1.93351e-05
-1.61912e-06
1.93603e-05
-1.99219e-06
-2.48557e-06
1.9421e-05
1.92484e-05
-4.26989e-09
1.92489e-05
-1.01196e-08
1.92498e-05
-1.34587e-08
1.92507e-05
-1.5094e-08
1.92516e-05
-1.57193e-08
1.92526e-05
-1.59131e-08
1.92535e-05
-1.64508e-08
1.92543e-05
-1.78196e-08
1.92551e-05
-2.04259e-08
1.92558e-05
-2.51358e-08
1.92564e-05
-3.29513e-08
1.9257e-05
-4.46312e-08
1.92577e-05
-6.07456e-08
1.92585e-05
-8.18058e-08
1.92593e-05
-1.08306e-07
1.92601e-05
-1.40742e-07
1.92607e-05
-1.79651e-07
1.92609e-05
-2.25679e-07
1.92605e-05
-2.79665e-07
1.92589e-05
-3.42747e-07
1.92557e-05
-4.16512e-07
1.92501e-05
-5.03182e-07
1.92413e-05
-6.05877e-07
1.92284e-05
-7.28945e-07
1.92105e-05
-8.78429e-07
1.9187e-05
-1.06265e-06
1.91578e-05
-1.29289e-06
1.91246e-05
-1.58592e-06
1.90895e-05
-1.95712e-06
-2.46744e-06
1.90714e-05
1.92483e-05
-4.43794e-09
1.92487e-05
-1.05638e-08
1.92494e-05
-1.40815e-08
1.92501e-05
-1.57802e-08
1.92508e-05
-1.64326e-08
1.92515e-05
-1.65987e-08
1.92521e-05
-1.70813e-08
1.92526e-05
-1.83701e-08
1.9253e-05
-2.08353e-08
1.92533e-05
-2.53773e-08
1.92534e-05
-3.30326e-08
1.92533e-05
-4.45468e-08
1.9253e-05
-6.04609e-08
1.92524e-05
-8.12515e-08
1.92515e-05
-1.07366e-07
1.925e-05
-1.39235e-07
1.92477e-05
-1.77309e-07
1.92441e-05
-2.2212e-07
1.92388e-05
-2.74361e-07
1.9231e-05
-3.34997e-07
1.92199e-05
-4.05397e-07
1.92043e-05
-4.87533e-07
1.91826e-05
-5.84232e-07
1.91532e-05
-6.99521e-07
1.91139e-05
-8.39128e-07
1.90624e-05
-1.01113e-06
1.89962e-05
-1.22672e-06
1.89137e-05
-1.50342e-06
1.8813e-05
-1.85643e-06
-2.35857e-06
1.87042e-05
1.92482e-05
-4.55084e-09
1.92486e-05
-1.08696e-08
1.9249e-05
-1.45229e-08
1.92495e-05
-1.62573e-08
1.925e-05
-1.69217e-08
1.92504e-05
-1.7045e-08
1.92508e-05
-1.74663e-08
1.92511e-05
-1.86413e-08
1.92512e-05
-2.09276e-08
1.9251e-05
-2.52378e-08
1.92506e-05
-3.26244e-08
1.92499e-05
-4.38065e-08
1.92487e-05
-5.92882e-08
1.92469e-05
-7.95016e-08
1.92444e-05
-1.04835e-07
1.92408e-05
-1.35637e-07
1.92358e-05
-1.72251e-07
1.92287e-05
-2.15065e-07
1.92189e-05
-2.64592e-07
1.92055e-05
-3.21559e-07
1.91871e-05
-3.87042e-07
1.91622e-05
-4.62638e-07
1.91287e-05
-5.50708e-07
1.90839e-05
-6.54705e-07
1.90244e-05
-7.79659e-07
1.89462e-05
-9.32852e-07
1.8844e-05
-1.12458e-06
1.87123e-05
-1.37169e-06
1.85441e-05
-1.68828e-06
-2.15185e-06
1.83374e-05
1.92482e-05
-4.61077e-09
1.92484e-05
-1.10452e-08
1.92486e-05
-1.47902e-08
1.92489e-05
-1.65446e-08
1.92492e-05
-1.72019e-08
1.92494e-05
-1.72824e-08
1.92496e-05
-1.76296e-08
1.92496e-05
-1.86649e-08
1.92494e-05
-2.07444e-08
1.9249e-05
-2.4773e-08
1.92482e-05
-3.17975e-08
1.92468e-05
-4.24996e-08
1.92449e-05
-5.73408e-08
1.92421e-05
-7.67022e-08
1.92382e-05
-1.00902e-07
1.92327e-05
-1.30195e-07
1.92253e-05
-1.64797e-07
1.92151e-05
-2.04932e-07
1.92014e-05
-2.50895e-07
1.9183e-05
-3.03132e-07
1.91583e-05
-3.62347e-07
1.91253e-05
-4.29654e-07
1.90814e-05
-5.06783e-07
1.90231e-05
-5.96362e-07
1.89458e-05
-7.02345e-07
1.88435e-05
-8.30626e-07
1.87087e-05
-9.89718e-07
1.85312e-05
-1.19419e-06
1.82987e-05
-1.45578e-06
-1.84765e-06
1.79945e-05
1.92481e-05
-4.61978e-09
1.92482e-05
-1.10985e-08
1.92483e-05
-1.48967e-08
1.92484e-05
-1.66553e-08
1.92485e-05
-1.72873e-08
1.92486e-05
-1.73647e-08
1.92485e-05
-1.75878e-08
1.92484e-05
-1.84768e-08
1.92479e-05
-2.03315e-08
1.92472e-05
-2.40453e-08
1.9246e-05
-3.06322e-08
1.92443e-05
-4.07282e-08
1.92417e-05
-5.47503e-08
1.9238e-05
-7.30243e-08
1.92329e-05
-9.57903e-08
1.92259e-05
-1.23199e-07
1.92164e-05
-1.55328e-07
1.92037e-05
-1.92221e-07
1.91868e-05
-2.3393e-07
1.91642e-05
-2.8058e-07
1.91343e-05
-3.3245e-07
1.90947e-05
-3.90077e-07
1.90424e-05
-4.54422e-07
1.89731e-05
-5.27071e-07
1.88813e-05
-6.10561e-07
1.87595e-05
-7.08854e-07
1.85976e-05
-8.27835e-07
1.83816e-05
-9.78179e-07
1.80937e-05
-1.1679e-06
-1.45627e-06
1.77024e-05
1.92481e-05
-4.58286e-09
1.9248e-05
-1.10336e-08
1.9248e-05
-1.48557e-08
1.92479e-05
-1.66069e-08
1.92479e-05
-1.72121e-08
1.92478e-05
-1.73092e-08
1.92476e-05
-1.73818e-08
1.92472e-05
-1.81163e-08
1.92467e-05
-1.97404e-08
1.92457e-05
-2.31213e-08
1.92443e-05
-2.92136e-08
1.92422e-05
-3.86017e-08
1.92391e-05
-5.16598e-08
1.92347e-05
-6.86556e-08
1.92287e-05
-8.97471e-08
1.92205e-05
-1.14975e-07
1.92094e-05
-1.44275e-07
1.91947e-05
-1.77499e-07
1.91752e-05
-2.14447e-07
1.91495e-05
-2.54901e-07
1.91157e-05
-2.98674e-07
1.90713e-05
-3.45674e-07
1.90129e-05
-3.9599e-07
1.89359e-05
-4.50013e-07
1.88339e-05
-5.08604e-07
1.86984e-05
-5.73368e-07
1.85175e-05
-6.46888e-07
1.82739e-05
-7.34583e-07
1.79455e-05
-8.3957e-07
-9.98697e-07
1.7488e-05
1.92481e-05
-4.50433e-09
1.92479e-05
-1.08622e-08
1.92477e-05
-1.46814e-08
1.92475e-05
-1.6423e-08
1.92473e-05
-1.70123e-08
1.92471e-05
-1.7112e-08
1.92468e-05
-1.70588e-08
1.92463e-05
-1.76379e-08
1.92456e-05
-1.90272e-08
1.92446e-05
-2.20651e-08
1.9243e-05
-2.76264e-08
1.92406e-05
-3.62338e-08
1.92372e-05
-4.82195e-08
1.92323e-05
-6.3794e-08
1.92256e-05
-8.30327e-08
1.92165e-05
-1.05868e-07
1.92043e-05
-1.32093e-07
1.91882e-05
-1.61373e-07
1.9167e-05
-1.93253e-07
1.91392e-05
-2.27172e-07
1.9103e-05
-2.62468e-07
1.90558e-05
-2.98395e-07
1.89939e-05
-3.34133e-07
1.89127e-05
-3.68797e-07
1.88055e-05
-4.01445e-07
1.86633e-05
-4.31087e-07
1.8473e-05
-4.56601e-07
1.82157e-05
-4.77317e-07
1.78669e-05
-4.90784e-07
-5.05541e-07
1.73738e-05
1.9248e-05
-4.38806e-09
1.92478e-05
-1.06005e-08
1.92475e-05
-1.43887e-08
1.92472e-05
-1.61325e-08
1.92469e-05
-1.67105e-08
1.92466e-05
-1.67986e-08
1.92461e-05
-1.66496e-08
1.92456e-05
-1.7092e-08
1.92448e-05
-1.82506e-08
1.92437e-05
-2.09422e-08
1.9242e-05
-2.59542e-08
1.92395e-05
-3.3736e-08
1.92359e-05
-4.45784e-08
1.92307e-05
-5.86368e-08
1.92236e-05
-7.59086e-08
1.9214e-05
-9.62243e-08
1.92011e-05
-1.19245e-07
1.91842e-05
-1.44459e-07
1.91621e-05
-1.71173e-07
1.91335e-05
-1.985e-07
1.90963e-05
-2.25324e-07
1.90482e-05
-2.50266e-07
1.89857e-05
-2.71617e-07
1.89041e-05
-2.87237e-07
1.8797e-05
-2.94387e-07
1.86555e-05
-2.89502e-07
1.84666e-05
-2.6769e-07
1.82112e-05
-2.21969e-07
1.78649e-05
-1.44496e-07
-1.39513e-08
1.73733e-05
1.9248e-05
-4.2391e-09
1.92477e-05
-1.02693e-08
1.92473e-05
-1.39936e-08
1.92469e-05
-1.57599e-08
1.92465e-05
-1.63292e-08
1.92461e-05
-1.64031e-08
1.92457e-05
-1.61981e-08
1.92451e-05
-1.65123e-08
1.92443e-05
-1.74643e-08
1.92432e-05
-1.982e-08
1.92415e-05
-2.42754e-08
1.9239e-05
-3.12106e-08
1.92353e-05
-4.08756e-08
1.923e-05
-5.33721e-08
1.92227e-05
-6.86269e-08
1.92129e-05
-8.63805e-08
1.91998e-05
-1.06178e-07
1.91827e-05
-1.27353e-07
1.91605e-05
-1.49007e-07
1.9132e-05
-1.69961e-07
1.90954e-05
-1.88696e-07
1.90484e-05
-2.03267e-07
1.89879e-05
-2.11158e-07
1.89098e-05
-2.09089e-07
1.88081e-05
-1.92684e-07
1.86746e-05
-1.56054e-07
1.84977e-05
-9.08156e-08
1.82602e-05
1.56116e-08
1.79395e-05
1.76182e-07
4.38179e-07
1.74873e-05
1.9248e-05
-4.06494e-09
1.92476e-05
-9.88898e-09
1.92471e-05
-1.35263e-08
1.92467e-05
-1.53242e-08
1.92462e-05
-1.58907e-08
1.92458e-05
-1.59589e-08
1.92453e-05
-1.57477e-08
1.92448e-05
-1.59308e-08
1.9244e-05
-1.67098e-08
1.92429e-05
-1.87592e-08
1.92413e-05
-2.26627e-08
1.92389e-05
-2.87528e-08
1.92352e-05
-3.72398e-08
1.923e-05
-4.81727e-08
1.92228e-05
-6.14181e-08
1.92131e-05
-7.66435e-08
1.92002e-05
-9.33014e-08
1.91835e-05
-1.10604e-07
1.91619e-05
-1.27487e-07
1.91345e-05
-1.42539e-07
1.90997e-05
-1.53916e-07
1.90557e-05
-1.5921e-07
1.89998e-05
-1.55243e-07
1.89285e-05
-1.37787e-07
1.88369e-05
-1.01093e-07
1.87187e-05
-3.78406e-08
1.85633e-05
6.45349e-08
1.83576e-05
2.21338e-07
1.80834e-05
4.504e-07
8.17251e-07
1.77043e-05
1.92479e-05
-3.87459e-09
1.92475e-05
-9.48215e-09
1.9247e-05
-1.30242e-08
1.92466e-05
-1.48533e-08
1.92461e-05
-1.54218e-08
1.92456e-05
-1.54994e-08
1.92452e-05
-1.53122e-08
1.92447e-05
-1.5394e-08
1.9244e-05
-1.60329e-08
1.9243e-05
-1.7803e-08
1.92415e-05
-2.11717e-08
1.92392e-05
-2.64428e-08
1.92358e-05
-3.37812e-08
1.92308e-05
-4.31872e-08
1.92238e-05
-5.44806e-08
1.92145e-05
-6.72782e-08
1.92021e-05
-8.09681e-08
1.91862e-05
-9.46804e-08
1.9166e-05
-1.07237e-07
1.91405e-05
-1.17072e-07
1.91087e-05
-1.22113e-07
1.90691e-05
-1.19624e-07
1.90198e-05
-1.05969e-07
1.89583e-05
-7.62786e-08
1.88812e-05
-2.39949e-08
1.87829e-05
6.05392e-08
1.86575e-05
1.89937e-07
1.84951e-05
3.83667e-07
1.82838e-05
6.61713e-07
1.09865e-06
1.80024e-05
1.92479e-05
-3.67887e-09
1.92475e-05
-9.08851e-09
1.92471e-05
-1.25342e-08
1.92466e-05
-1.43656e-08
1.92461e-05
-1.49506e-08
1.92456e-05
-1.50513e-08
1.92452e-05
-1.49048e-08
1.92448e-05
-1.49411e-08
1.92442e-05
-1.54705e-08
1.92434e-05
-1.69821e-08
1.92421e-05
-1.98522e-08
1.924e-05
-2.43498e-08
1.92368e-05
-3.05915e-08
1.92322e-05
-3.85363e-08
1.92256e-05
-4.79746e-08
1.92169e-05
-5.84972e-08
1.92054e-05
-6.94595e-08
1.91906e-05
-7.99525e-08
1.91721e-05
-8.87498e-08
1.91493e-05
-9.42115e-08
1.91213e-05
-9.41549e-08
1.90874e-05
-8.5672e-08
1.90463e-05
-6.48929e-08
1.89968e-05
-2.67743e-08
1.89364e-05
3.63894e-08
1.88628e-05
1.34105e-07
1.87726e-05
2.80134e-07
1.86612e-05
4.95079e-07
1.85229e-05
8.00038e-07
1.26873e-06
1.83528e-05
1.9248e-05
-3.49639e-09
1.92476e-05
-8.75814e-09
1.92472e-05
-1.21168e-08
1.92467e-05
-1.38899e-08
1.92463e-05
-1.45e-08
1.92459e-05
-1.46336e-08
1.92455e-05
-1.45489e-08
1.92451e-05
-1.45819e-08
1.92447e-05
-1.50366e-08
1.9244e-05
-1.63188e-08
1.92429e-05
-1.8741e-08
1.92411e-05
-2.25229e-08
1.92383e-05
-2.77347e-08
1.9234e-05
-3.43025e-08
1.92281e-05
-4.20091e-08
1.922e-05
-5.04464e-08
1.92095e-05
-5.89676e-08
1.91962e-05
-6.66716e-08
1.91798e-05
-7.23505e-08
1.916e-05
-7.4382e-08
1.91364e-05
-7.05915e-08
1.91089e-05
-5.80937e-08
1.90771e-05
-3.30883e-08
1.90404e-05
9.85905e-09
1.89989e-05
7.79473e-08
1.8952e-05
1.80928e-07
1.88998e-05
3.32424e-07
1.88425e-05
5.52288e-07
1.87808e-05
8.61742e-07
1.32492e-06
1.87246e-05
1.9248e-05
-3.36274e-09
1.92478e-05
-8.57144e-09
1.92475e-05
-1.18287e-08
1.92471e-05
-1.34647e-08
1.92467e-05
-1.40903e-08
1.92463e-05
-1.42738e-08
1.9246e-05
-1.42621e-08
1.92458e-05
-1.43356e-08
1.92455e-05
-1.4748e-08
1.9245e-05
-1.58349e-08
1.92441e-05
-1.78575e-08
1.92426e-05
-2.09894e-08
1.92401e-05
-2.52517e-08
1.92364e-05
-3.054e-08
1.9231e-05
-3.66555e-08
1.92238e-05
-4.32173e-08
1.92144e-05
-4.96036e-08
1.92027e-05
-5.49678e-08
1.91886e-05
-5.81943e-08
1.91719e-05
-5.77677e-08
1.9153e-05
-5.16432e-08
1.9132e-05
-3.71191e-08
1.91096e-05
-1.06586e-08
1.90864e-05
3.30416e-08
1.90639e-05
1.00411e-07
1.90441e-05
2.00815e-07
1.90296e-05
3.46877e-07
1.90257e-05
5.56192e-07
1.90382e-05
8.49233e-07
1.27382e-06
1.90893e-05
1.92481e-05
-3.35196e-09
1.92482e-05
-8.68566e-09
1.92481e-05
-1.17061e-08
1.92478e-05
-1.31072e-08
1.92474e-05
-1.3726e-08
1.92471e-05
-1.39705e-08
1.92469e-05
-1.40423e-08
1.92467e-05
-1.41802e-08
1.92466e-05
-1.45907e-08
1.92463e-05
-1.55329e-08
1.92456e-05
-1.72155e-08
1.92444e-05
-1.97661e-08
1.92423e-05
-2.31552e-08
1.9239e-05
-2.72538e-08
1.92343e-05
-3.19162e-08
1.92279e-05
-3.68146e-08
1.92196e-05
-4.13793e-08
1.92095e-05
-4.48426e-08
1.91976e-05
-4.62658e-08
1.91841e-05
-4.43164e-08
1.91697e-05
-3.71914e-08
1.91551e-05
-2.25595e-08
1.91417e-05
2.7741e-09
1.91314e-05
4.33349e-08
1.9127e-05
1.04791e-07
1.91325e-05
1.95355e-07
1.91532e-05
3.26109e-07
1.91982e-05
5.11199e-07
1.92778e-05
7.69685e-07
1.1287e-06
1.94229e-05
1.92484e-05
-3.59096e-09
1.92491e-05
-9.38298e-09
1.92492e-05
-1.18226e-08
1.9249e-05
-1.28809e-08
1.92487e-05
-1.34579e-08
1.92485e-05
-1.37409e-08
1.92483e-05
-1.38924e-08
1.92482e-05
-1.41173e-08
1.92482e-05
-1.45751e-08
1.92481e-05
-1.53927e-08
1.92477e-05
-1.67875e-08
1.92467e-05
-1.88454e-08
1.9245e-05
-2.1442e-08
1.92422e-05
-2.444e-08
1.92381e-05
-2.78027e-08
1.92325e-05
-3.12165e-08
1.92254e-05
-3.42346e-08
1.92167e-05
-3.61796e-08
1.92068e-05
-3.63791e-08
1.91962e-05
-3.37453e-08
1.91859e-05
-2.68054e-08
1.9177e-05
-1.37092e-08
1.91717e-05
8.10575e-09
1.91728e-05
4.21971e-08
1.91845e-05
9.30904e-08
1.92122e-05
1.67645e-07
1.92634e-05
2.74938e-07
1.93498e-05
4.24763e-07
1.94857e-05
6.33785e-07
9.06556e-07
1.97079e-05
1.92489e-05
-4.39773e-09
1.92504e-05
-1.08025e-08
1.92506e-05
-1.20618e-08
1.92506e-05
-1.28353e-08
1.92504e-05
-1.33252e-08
1.92503e-05
-1.35998e-08
1.92502e-05
-1.381e-08
1.92502e-05
-1.41382e-08
1.92503e-05
-1.46721e-08
1.92504e-05
-1.54692e-08
1.92502e-05
-1.66258e-08
1.92495e-05
-1.81164e-08
1.9248e-05
-1.99385e-08
1.92456e-05
-2.20229e-08
1.92421e-05
-2.43121e-08
1.92373e-05
-2.64086e-08
1.92311e-05
-2.80063e-08
1.92237e-05
-2.88086e-08
1.92156e-05
-2.83001e-08
1.92076e-05
-2.56948e-08
1.92006e-05
-1.98956e-08
1.91967e-05
-9.74199e-09
1.91982e-05
6.55874e-09
1.92088e-05
3.15893e-08
1.92342e-05
6.77296e-08
1.92804e-05
1.2143e-07
1.93559e-05
1.99433e-07
1.94745e-05
3.06209e-07
1.96538e-05
4.54494e-07
6.26865e-07
1.99334e-05
1.92517e-05
-8.00045e-09
1.92536e-05
-1.26544e-08
1.92543e-05
-1.2763e-08
1.92545e-05
-1.30392e-08
1.92545e-05
-1.33767e-08
1.92545e-05
-1.35725e-08
1.92544e-05
-1.36857e-08
1.92541e-05
-1.38573e-08
1.92536e-05
-1.41531e-08
1.92527e-05
-1.4616e-08
1.92514e-05
-1.52899e-08
1.92495e-05
-1.61622e-08
1.92467e-05
-1.7218e-08
1.92431e-05
-1.84144e-08
1.92386e-05
-1.97677e-08
1.92331e-05
-2.09807e-08
1.9227e-05
-2.18147e-08
1.92204e-05
-2.22495e-08
1.9214e-05
-2.19338e-08
1.92088e-05
-2.04759e-08
1.92061e-05
-1.71682e-08
1.92076e-05
-1.12447e-08
1.92162e-05
-2.06388e-09
1.92349e-05
1.28896e-08
1.92672e-05
3.54365e-08
1.93227e-05
6.59747e-08
1.94144e-05
1.07683e-07
1.95554e-05
1.65174e-07
1.97624e-05
2.47489e-07
3.18228e-07
2.00711e-05
1.92401e-05
1.92275e-05
1.92147e-05
1.92017e-05
1.91883e-05
1.91747e-05
1.9161e-05
1.91472e-05
1.9133e-05
1.91184e-05
1.91031e-05
1.9087e-05
1.90697e-05
1.90513e-05
1.90316e-05
1.90106e-05
1.89888e-05
1.89665e-05
1.89446e-05
1.89241e-05
1.89069e-05
1.88957e-05
1.88936e-05
1.89065e-05
1.8942e-05
1.90079e-05
1.91156e-05
1.92808e-05
1.95283e-05
1.98465e-05
2.04079e-05
-9.63013e-06
1.00645e-05
1.99626e-05
-9.71646e-06
1.01618e-05
1.9493e-05
-9.79563e-06
1.02652e-05
1.89983e-05
-9.86508e-06
1.03599e-05
1.84836e-05
-9.93172e-06
1.04463e-05
1.79541e-05
-9.99907e-06
1.05286e-05
1.74129e-05
-1.00676e-05
1.06088e-05
1.68624e-05
-1.01381e-05
1.06886e-05
1.63043e-05
-1.02111e-05
1.07693e-05
1.57392e-05
-1.02874e-05
1.08525e-05
1.51672e-05
-1.03673e-05
1.09393e-05
1.45879e-05
-1.0451e-05
1.10303e-05
1.40006e-05
-1.05388e-05
1.1126e-05
1.34047e-05
-1.06313e-05
1.12272e-05
1.27995e-05
-1.07294e-05
1.13347e-05
1.2184e-05
-1.08342e-05
1.14497e-05
1.15572e-05
-1.0947e-05
1.15737e-05
1.09177e-05
-1.10692e-05
1.17087e-05
1.02635e-05
-1.12026e-05
1.18568e-05
9.59201e-06
-1.13494e-05
1.20209e-05
8.89991e-06
-1.15122e-05
1.22043e-05
8.1827e-06
-1.16942e-05
1.24114e-05
7.43438e-06
-1.18993e-05
1.26476e-05
6.6467e-06
-1.21327e-05
1.29204e-05
5.8083e-06
-1.23992e-05
1.32376e-05
4.90291e-06
-1.27094e-05
1.36148e-05
3.91099e-06
-1.3061e-05
1.40529e-05
2.78122e-06
-1.34947e-05
1.46245e-05
1.54492e-06
-1.38982e-05
1.51345e-05
-1.4756e-05
1.63009e-05
2.05354e-05
-9.16231e-06
2.00384e-05
-9.21943e-06
1.95213e-05
-9.27857e-06
1.89927e-05
-9.33652e-06
1.84564e-05
-9.39535e-06
1.79139e-05
-9.45665e-06
1.73663e-05
-9.52003e-06
1.68138e-05
-9.58549e-06
1.62559e-05
-9.65325e-06
1.56919e-05
-9.72348e-06
1.5121e-05
-9.7964e-06
1.45424e-05
-9.87233e-06
1.39554e-05
-9.95176e-06
1.33595e-05
-1.00354e-05
1.27539e-05
-1.01239e-05
1.21379e-05
-1.02182e-05
1.15102e-05
-1.03193e-05
1.08692e-05
-1.04282e-05
1.02129e-05
-1.05463e-05
9.53855e-06
-1.06751e-05
8.84278e-06
-1.08164e-05
8.12108e-06
-1.09725e-05
7.36753e-06
-1.11458e-05
6.57415e-06
-1.13394e-05
5.73037e-06
-1.15554e-05
4.82142e-06
-1.18005e-05
3.82786e-06
-1.20674e-05
2.71948e-06
-1.23863e-05
1.48573e-06
-1.26644e-05
-1.32702e-05
2.04585e-05
-8.66084e-06
1.99461e-05
-8.70701e-06
1.94244e-05
-8.75687e-06
1.88975e-05
-8.80963e-06
1.83665e-05
-8.86433e-06
1.78304e-05
-8.92051e-06
1.72884e-05
-8.97805e-06
1.674e-05
-9.03707e-06
1.61845e-05
-9.09785e-06
1.56217e-05
-9.16065e-06
1.50511e-05
-9.22581e-06
1.44725e-05
-9.29372e-06
1.38856e-05
-9.36479e-06
1.32897e-05
-9.43951e-06
1.26842e-05
-9.5184e-06
1.20681e-05
-9.60203e-06
1.14399e-05
-9.69106e-06
1.0798e-05
-9.78626e-06
1.01402e-05
-9.8885e-06
9.46388e-06
-9.99878e-06
8.76563e-06
-1.01182e-05
8.04101e-06
-1.02479e-05
7.28428e-06
-1.0389e-05
6.48785e-06
-1.05429e-05
5.64193e-06
-1.07095e-05
4.73294e-06
-1.08915e-05
3.7438e-06
-1.10783e-05
2.65068e-06
-1.12932e-05
1.42814e-06
-1.14419e-05
-1.18421e-05
2.038e-05
-8.1534e-06
1.98659e-05
-8.19299e-06
1.93449e-05
-8.23585e-06
1.88182e-05
-8.28292e-06
1.8286e-05
-8.33214e-06
1.77477e-05
-8.3822e-06
1.72029e-05
-8.43321e-06
1.66514e-05
-8.48561e-06
1.60933e-05
-8.53969e-06
1.55283e-05
-8.59564e-06
1.49561e-05
-8.65366e-06
1.43764e-05
-8.714e-06
1.37885e-05
-8.77692e-06
1.31917e-05
-8.84273e-06
1.25851e-05
-8.91175e-06
1.19674e-05
-8.98436e-06
1.13373e-05
-9.06099e-06
1.06932e-05
-9.14208e-06
1.00328e-05
-9.2281e-06
9.3535e-06
-9.31951e-06
8.65201e-06
-9.41669e-06
7.92404e-06
-9.51992e-06
7.16417e-06
-9.62917e-06
6.36538e-06
-9.74414e-06
5.51883e-06
-9.86297e-06
4.61244e-06
-9.98508e-06
3.63206e-06
-1.00979e-05
2.55691e-06
-1.02181e-05
1.36172e-06
-1.02467e-05
-1.04804e-05
2.02704e-05
-7.64115e-06
1.97526e-05
-7.67517e-06
1.92286e-05
-7.71183e-06
1.8699e-05
-7.75335e-06
1.8164e-05
-7.79718e-06
1.76234e-05
-7.84156e-06
1.70768e-05
-7.88664e-06
1.65242e-05
-7.93294e-06
1.59651e-05
-7.98068e-06
1.53994e-05
-8.02991e-06
1.48265e-05
-8.08073e-06
1.42458e-05
-8.13329e-06
1.36566e-05
-8.18778e-06
1.30583e-05
-8.24437e-06
1.24498e-05
-8.30325e-06
1.183e-05
-8.36461e-06
1.11976e-05
-8.42861e-06
1.0551e-05
-8.49539e-06
9.88787e-06
-8.56502e-06
9.20582e-06
-8.63745e-06
8.50159e-06
-8.71246e-06
7.7712e-06
-8.78953e-06
7.00966e-06
-8.86763e-06
6.21067e-06
-8.94515e-06
5.36645e-06
-9.01875e-06
4.46663e-06
-9.08526e-06
3.4997e-06
-9.13097e-06
2.44729e-06
-9.16565e-06
1.29033e-06
-9.08973e-06
-9.19003e-06
2.01305e-05
-7.12502e-06
1.96094e-05
-7.15408e-06
1.90828e-05
-7.18519e-06
1.85508e-05
-7.22144e-06
1.80137e-05
-7.26004e-06
1.74711e-05
-7.29891e-06
1.69226e-05
-7.33815e-06
1.6368e-05
-7.37835e-06
1.5807e-05
-7.41966e-06
1.52391e-05
-7.46207e-06
1.4664e-05
-7.50558e-06
1.4081e-05
-7.5503e-06
1.34895e-05
-7.59629e-06
1.28887e-05
-7.64361e-06
1.22778e-05
-7.6923e-06
1.16555e-05
-7.74232e-06
1.10205e-05
-7.79363e-06
1.03712e-05
-7.84606e-06
9.70548e-06
-7.89933e-06
9.02099e-06
-7.95297e-06
8.31474e-06
-8.00622e-06
7.58311e-06
-8.0579e-06
6.82166e-06
-8.10618e-06
6.02489e-06
-8.14838e-06
5.18621e-06
-8.18007e-06
4.29703e-06
-8.19607e-06
3.34834e-06
-8.18228e-06
2.32467e-06
-8.14199e-06
1.21497e-06
-7.98003e-06
-7.97506e-06
1.99567e-05
-6.60502e-06
1.94322e-05
-6.62951e-06
1.89024e-05
-6.65545e-06
1.83676e-05
-6.68662e-06
1.78276e-05
-6.72006e-06
1.72822e-05
-6.75349e-06
1.67311e-05
-6.78698e-06
1.61738e-05
-6.82113e-06
1.56103e-05
-6.85608e-06
1.50399e-05
-6.89171e-06
1.44623e-05
-6.92796e-06
1.38768e-05
-6.96485e-06
1.32829e-05
-7.00235e-06
1.26797e-05
-7.04039e-06
1.20662e-05
-7.07885e-06
1.14414e-05
-7.11754e-06
1.0804e-05
-7.15621e-06
1.01524e-05
-7.19444e-06
9.48473e-06
-7.23166e-06
8.79879e-06
-7.26703e-06
8.09192e-06
-7.29934e-06
7.36092e-06
-7.3269e-06
6.60199e-06
-7.34725e-06
5.81053e-06
-7.35692e-06
4.98117e-06
-7.3507e-06
4.10714e-06
-7.32205e-06
3.18185e-06
-7.25699e-06
2.19327e-06
-7.15341e-06
1.13844e-06
-6.92519e-06
-6.83662e-06
1.97462e-05
-6.08102e-06
1.9218e-05
-6.10126e-06
1.86849e-05
-6.12238e-06
1.81469e-05
-6.14861e-06
1.76038e-05
-6.17698e-06
1.70554e-05
-6.20507e-06
1.65013e-05
-6.23291e-06
1.59413e-05
-6.26109e-06
1.53749e-05
-6.28972e-06
1.48019e-05
-6.31862e-06
1.42216e-05
-6.34766e-06
1.36335e-05
-6.37676e-06
1.30369e-05
-6.40581e-06
1.24312e-05
-6.43464e-06
1.18153e-05
-6.46301e-06
1.11884e-05
-6.49058e-06
1.05491e-05
-6.5169e-06
9.896e-06
-6.54137e-06
9.22749e-06
-6.56315e-06
8.54158e-06
-6.58112e-06
7.83598e-06
-6.59374e-06
7.10799e-06
-6.59891e-06
6.35448e-06
-6.59374e-06
5.57179e-06
-6.57423e-06
4.7558e-06
-6.53471e-06
3.90155e-06
-6.4678e-06
3.00469e-06
-6.36013e-06
2.05675e-06
-6.20547e-06
1.06134e-06
-5.92977e-06
-5.77529e-06
1.9497e-05
-5.5529e-06
1.8965e-05
-5.56919e-06
1.84284e-05
-5.58582e-06
1.78871e-05
-5.60728e-06
1.73407e-05
-5.63065e-06
1.67892e-05
-5.6535e-06
1.6232e-05
-5.6758e-06
1.56691e-05
-5.69812e-06
1.50999e-05
-5.72053e-06
1.45241e-05
-5.74281e-06
1.39412e-05
-5.76475e-06
1.33506e-05
-5.78622e-06
1.27518e-05
-5.80701e-06
1.2144e-05
-5.82688e-06
1.15265e-05
-5.84546e-06
1.08982e-05
-5.86229e-06
1.02581e-05
-5.87679e-06
9.60492e-06
-5.88819e-06
8.93722e-06
-5.89545e-06
8.25335e-06
-5.89725e-06
7.55141e-06
-5.8918e-06
6.82925e-06
-5.87675e-06
6.08444e-06
-5.84892e-06
5.31426e-06
-5.80405e-06
4.51582e-06
-5.73627e-06
3.68587e-06
-5.63785e-06
2.82207e-06
-5.49633e-06
1.91925e-06
-5.30266e-06
9.85976e-07
-4.99649e-06
-4.78931e-06
1.9209e-05
-5.0207e-06
1.86732e-05
-5.03334e-06
1.81332e-05
-5.04584e-06
1.75886e-05
-5.06269e-06
1.70391e-05
-5.08117e-06
1.64845e-05
-5.0989e-06
1.59245e-05
-5.11582e-06
1.53589e-05
-5.13245e-06
1.47871e-05
-5.14882e-06
1.4209e-05
-5.16467e-06
1.3624e-05
-5.17975e-06
1.30316e-05
-5.19384e-06
1.24313e-05
-5.2067e-06
1.18224e-05
-5.21799e-06
1.12042e-05
-5.22726e-06
1.05759e-05
-5.23396e-06
9.93649e-06
-5.23739e-06
9.28497e-06
-5.23667e-06
8.62015e-06
-5.23063e-06
7.9407e-06
-5.2178e-06
7.24515e-06
-5.19626e-06
6.5319e-06
-5.1635e-06
5.79921e-06