/*--------------------------------*- C++ -*----------------------------------*\
  =========                 |
  \\      /  F ield         | OpenFOAM: The Open Source CFD Toolbox
   \\    /   O peration     | Website:  https://openfoam.org
    \\  /    A nd           | Version:  11
     \\/     M anipulation  |
\*---------------------------------------------------------------------------*/
FoamFile
{
    format      ascii;
    class       volVectorField;
    location    "5.5";
    object      U;
}
// * * * * * * * * * * * * * * * * * * * * * * * * * * * * * * * * * * * * * //

dimensions      [0 1 -1 0 0 0 0];

internalField   nonuniform List<vector> 
12600
(
(0.412112 0.000106116 0)
(0.411841 0.000180305 0)
(0.411429 0.000190934 0)
(0.410958 0.000194123 0)
(0.410493 0.000198512 0)
(0.410037 0.000201391 0)
(0.409584 0.000202811 0)
(0.409132 0.000203503 0)
(0.408684 0.000203645 0)
(0.408241 0.000203204 0)
(0.407805 0.000202138 0)
(0.407379 0.000200351 0)
(0.406965 0.00019767 0)
(0.406567 0.000193978 0)
(0.406188 0.000189257 0)
(0.405832 0.000183191 0)
(0.405503 0.00017532 0)
(0.405209 0.000165408 0)
(0.404957 0.000153483 0)
(0.404757 0.000139011 0)
(0.404622 0.000122401 0)
(0.404566 0.000101267 0)
(0.404606 7.37735e-05 0)
(0.404767 3.34497e-05 0)
(0.405078 -1.51935e-05 0)
(0.405573 -7.04579e-05 0)
(0.406304 -0.000141293 0)
(0.407323 -0.000227223 0)
(0.408821 -0.000365213 0)
(0.409737 -0.000882765 0)
(0.412492 0.000154 0)
(0.412638 0.000281034 0)
(0.412773 0.00026255 0)
(0.412826 0.000254096 0)
(0.412872 0.000256255 0)
(0.412927 0.000256209 0)
(0.412984 0.000253914 0)
(0.413044 0.00025055 0)
(0.413106 0.000246123 0)
(0.413173 0.00024035 0)
(0.413247 0.000233065 0)
(0.41333 0.000224063 0)
(0.413425 0.000212927 0)
(0.413534 0.000199318 0)
(0.413661 0.000182653 0)
(0.413809 0.000162064 0)
(0.413984 0.000138867 0)
(0.41419 0.000110701 0)
(0.414434 7.44467e-05 0)
(0.414726 3.03639e-05 0)
(0.415076 -2.38594e-05 0)
(0.415496 -9.07942e-05 0)
(0.416005 -0.000172325 0)
(0.416618 -0.000271038 0)
(0.417364 -0.000392073 0)
(0.418251 -0.000544047 0)
(0.419392 -0.000731692 0)
(0.420556 -0.000995465 0)
(0.422473 -0.00131163 0)
(0.423066 -0.00214694 0)
(0.41248 8.48253e-05 0)
(0.412554 0.00015208 0)
(0.412645 0.000155479 0)
(0.412712 0.000156128 0)
(0.412765 0.000161293 0)
(0.41282 0.000163204 0)
(0.412879 0.000161418 0)
(0.41294 0.000157812 0)
(0.413003 0.000152455 0)
(0.413071 0.000144826 0)
(0.413144 0.000134602 0)
(0.413225 0.000121497 0)
(0.413316 0.000104995 0)
(0.413422 8.49763e-05 0)
(0.413545 6.00139e-05 0)
(0.413688 3.03424e-05 0)
(0.413856 -6.9936e-06 0)
(0.414054 -5.40922e-05 0)
(0.414287 -0.000111075 0)
(0.414563 -0.000180299 0)
(0.414893 -0.00026506 0)
(0.415288 -0.00036899 0)
(0.415765 -0.000496689 0)
(0.416343 -0.000654397 0)
(0.417045 -0.000847688 0)
(0.417897 -0.00108949 0)
(0.418939 -0.00137924 0)
(0.420187 -0.00176541 0)
(0.421646 -0.00225015 0)
(0.423402 -0.00264415 0)
(0.412472 5.55588e-05 0)
(0.412522 0.000130641 0)
(0.412596 0.00015703 0)
(0.412659 0.000164094 0)
(0.412711 0.00017096 0)
(0.412762 0.000173766 0)
(0.412819 0.000171953 0)
(0.412878 0.000167724 0)
(0.41294 0.000161154 0)
(0.413005 0.000151736 0)
(0.413076 0.000138746 0)
(0.413155 0.000121404 0)
(0.413245 9.77353e-05 0)
(0.413348 6.86412e-05 0)
(0.413468 3.36545e-05 0)
(0.413607 -8.38137e-06 0)
(0.413769 -5.94924e-05 0)
(0.413961 -0.00012134 0)
(0.414187 -0.000196947 0)
(0.414454 -0.00028988 0)
(0.414773 -0.000404299 0)
(0.415156 -0.00054537 0)
(0.415617 -0.000719296 0)
(0.416175 -0.000933558 0)
(0.416853 -0.00119651 0)
(0.417676 -0.00152097 0)
(0.418674 -0.00191781 0)
(0.419886 -0.00240785 0)
(0.421312 -0.00301584 0)
(0.423171 -0.00345403 0)
(0.412468 3.97748e-05 0)
(0.412502 0.000100338 0)
(0.412559 0.000124091 0)
(0.412616 0.000127284 0)
(0.412665 0.000126956 0)
(0.412715 0.000125749 0)
(0.412769 0.000121734 0)
(0.412827 0.00011465 0)
(0.412887 0.000104619 0)
(0.412951 9.08069e-05 0)
(0.41302 7.29633e-05 0)
(0.413097 4.9963e-05 0)
(0.413184 2.08683e-05 0)
(0.413285 -1.58643e-05 0)
(0.4134 -6.05778e-05 0)
(0.413534 -0.000114064 0)
(0.413691 -0.000178115 0)
(0.413874 -0.000255855 0)
(0.414091 -0.00035109 0)
(0.414347 -0.000468062 0)
(0.414653 -0.000611845 0)
(0.415019 -0.000788752 0)
(0.41546 -0.00100651 0)
(0.415993 -0.00127451 0)
(0.416639 -0.00160376 0)
(0.417424 -0.00200832 0)
(0.418374 -0.00250352 0)
(0.419541 -0.00310055 0)
(0.420912 -0.00384333 0)
(0.422776 -0.00450774 0)
(0.412466 2.91438e-05 0)
(0.41249 7.62832e-05 0)
(0.412535 9.91777e-05 0)
(0.412586 0.000104674 0)
(0.412634 0.000105618 0)
(0.412682 0.000105319 0)
(0.412734 0.00010223 0)
(0.41279 9.56373e-05 0)
(0.412848 8.5479e-05 0)
(0.41291 7.11084e-05 0)
(0.412977 5.12998e-05 0)
(0.413052 2.47529e-05 0)
(0.413136 -8.63448e-06 0)
(0.413231 -5.09917e-05 0)
(0.413342 -0.000103161 0)
(0.41347 -0.000166266 0)
(0.413619 -0.000242333 0)
(0.413794 -0.000334645 0)
(0.413999 -0.000447364 0)
(0.414242 -0.000585643 0)
(0.414531 -0.000755857 0)
(0.414876 -0.00096577 0)
(0.415292 -0.00122462 0)
(0.415794 -0.0015434 0)
(0.416402 -0.00193516 0)
(0.417141 -0.00241562 0)
(0.418036 -0.00300393 0)
(0.419142 -0.00371187 0)
(0.420442 -0.00459795 0)
(0.422255 -0.0054686 0)
(0.412464 2.17661e-05 0)
(0.412482 5.79728e-05 0)
(0.412519 7.77641e-05 0)
(0.412564 8.29331e-05 0)
(0.41261 8.19446e-05 0)
(0.412656 7.88019e-05 0)
(0.412705 7.30884e-05 0)
(0.412758 6.39349e-05 0)
(0.412814 5.08434e-05 0)
(0.412873 3.28688e-05 0)
(0.412938 8.73504e-06 0)
(0.413009 -2.3215e-05 0)
(0.41309 -6.36289e-05 0)
(0.413181 -0.000113346 0)
(0.413286 -0.000173929 0)
(0.413407 -0.00024717 0)
(0.413547 -0.000335351 0)
(0.413711 -0.000442036 0)
(0.413903 -0.000572086 0)
(0.41413 -0.000731531 0)
(0.4144 -0.000927653 0)
(0.414721 -0.00116922 0)
(0.415108 -0.00146676 0)
(0.415574 -0.00183293 0)
(0.416137 -0.00228293 0)
(0.416823 -0.00283476 0)
(0.417653 -0.00351096 0)
(0.418683 -0.00432833 0)
(0.419897 -0.00534839 0)
(0.421618 -0.00642681 0)
(0.412463 1.63013e-05 0)
(0.412478 4.33736e-05 0)
(0.412508 5.8709e-05 0)
(0.412548 6.22138e-05 0)
(0.412591 5.94834e-05 0)
(0.412634 5.44797e-05 0)
(0.412681 4.74542e-05 0)
(0.412732 3.73597e-05 0)
(0.412785 2.31773e-05 0)
(0.412842 3.69276e-06 0)
(0.412904 -2.25627e-05 0)
(0.412972 -5.70422e-05 0)
(0.413048 -0.000101499 0)
(0.413134 -0.000156662 0)
(0.413232 -0.000223983 0)
(0.413345 -0.000305358 0)
(0.413476 -0.000403453 0)
(0.413628 -0.000522223 0)
(0.413806 -0.000667007 0)
(0.414015 -0.000844534 0)
(0.414262 -0.00106305 0)
(0.414557 -0.0013325 0)
(0.41491 -0.00166474 0)
(0.415335 -0.00207391 0)
(0.415848 -0.00257707 0)
(0.416472 -0.00319448 0)
(0.417228 -0.00395201 0)
(0.41817 -0.00487243 0)
(0.41928 -0.0060194 0)
(0.420878 -0.00729388 0)
(0.412463 1.20058e-05 0)
(0.412475 3.13691e-05 0)
(0.412501 4.19251e-05 0)
(0.412536 4.31281e-05 0)
(0.412575 3.8653e-05 0)
(0.412617 3.18337e-05 0)
(0.412661 2.3173e-05 0)
(0.412709 1.15554e-05 0)
(0.41276 -4.3909e-06 0)
(0.412814 -2.61688e-05 0)
(0.412873 -5.54674e-05 0)
(0.412937 -9.38909e-05 0)
(0.413008 -0.000143086 0)
(0.413088 -0.000204087 0)
(0.413179 -0.000278344 0)
(0.413283 -0.000367952 0)
(0.413403 -0.000475884 0)
(0.413542 -0.00060642 0)
(0.413703 -0.00076538 0)
(0.413893 -0.000960158 0)
(0.414116 -0.00119978 0)
(0.41438 -0.00149508 0)
(0.414696 -0.00185899 0)
(0.415076 -0.00230701 0)
(0.415534 -0.00285798 0)
(0.41609 -0.00353462 0)
(0.416762 -0.00436591 0)
(0.417603 -0.00538119 0)
(0.418591 -0.00664432 0)
(0.42004 -0.00810413 0)
(0.412462 8.47405e-06 0)
(0.412472 2.12566e-05 0)
(0.412495 2.711e-05 0)
(0.412527 2.55691e-05 0)
(0.412563 1.9133e-05 0)
(0.412602 1.04371e-05 0)
(0.412644 6.52326e-08 0)
(0.412689 -1.30599e-05 0)
(0.412738 -3.05411e-05 0)
(0.412789 -5.4145e-05 0)
(0.412844 -8.57517e-05 0)
(0.412904 -0.000127137 0)
(0.41297 -0.000179939 0)
(0.413044 -0.000245462 0)
(0.413127 -0.000325226 0)
(0.413222 -0.000421437 0)
(0.41333 -0.000537314 0)
(0.413454 -0.00067746 0)
(0.413598 -0.0008481 0)
(0.413766 -0.00105716 0)
(0.413962 -0.00131437 0)
(0.414195 -0.0016314 0)
(0.414471 -0.0020222 0)
(0.414801 -0.00250352 0)
(0.415198 -0.00309578 0)
(0.41568 -0.00382384 0)
(0.416261 -0.00471958 0)
(0.416988 -0.0058185 0)
(0.417838 -0.00718454 0)
(0.419112 -0.00881147 0)
(0.412462 5.46119e-06 0)
(0.412471 1.25224e-05 0)
(0.412491 1.38964e-05 0)
(0.412519 9.38993e-06 0)
(0.412553 8.46895e-07 0)
(0.41259 -9.678e-06 0)
(0.412629 -2.16764e-05 0)
(0.412672 -3.62167e-05 0)
(0.412717 -5.51047e-05 0)
(0.412765 -8.03586e-05 0)
(0.412817 -0.000114049 0)
(0.412872 -0.0001581 0)
(0.412933 -0.000214201 0)
(0.413 -0.000283798 0)
(0.413075 -0.000368504 0)
(0.413159 -0.000470629 0)
(0.413255 -0.000593581 0)
(0.413364 -0.000742217 0)
(0.413489 -0.000923105 0)
(0.413634 -0.00114463 0)
(0.413802 -0.00141709 0)
(0.414 -0.00175281 0)
(0.414234 -0.00216656 0)
(0.414512 -0.00267608 0)
(0.414844 -0.00330312 0)
(0.415245 -0.00407447 0)
(0.415727 -0.00502449 0)
(0.41633 -0.00619437 0)
(0.417029 -0.0076475 0)
(0.418101 -0.00942133 0)
(0.412462 2.78484e-06 0)
(0.41247 4.77798e-06 0)
(0.412488 1.95569e-06 0)
(0.412514 -5.56756e-06 0)
(0.412545 -1.62561e-05 0)
(0.412579 -2.85248e-05 0)
(0.412617 -4.20571e-05 0)
(0.412656 -5.79508e-05 0)
(0.412699 -7.81343e-05 0)
(0.412744 -0.000104828 0)
(0.412791 -0.00014027 0)
(0.412842 -0.000186504 0)
(0.412897 -0.000245279 0)
(0.412957 -0.000318131 0)
(0.413024 -0.000406755 0)
(0.413097 -0.000513543 0)
(0.41318 -0.000642047 0)
(0.413273 -0.000797336 0)
(0.413378 -0.000986253 0)
(0.413499 -0.00121754 0)
(0.413638 -0.00150191 0)
(0.413799 -0.00185224 0)
(0.413988 -0.00228392 0)
(0.414211 -0.00281549 0)
(0.414475 -0.00346974 0)
(0.414791 -0.00427499 0)
(0.415168 -0.00526758 0)
(0.415637 -0.00649341 0)
(0.416173 -0.00801505 0)
(0.41702 -0.00990941 0)
(0.412462 4.46125e-07 0)
(0.412469 -2.16968e-06 0)
(0.412485 -8.94214e-06 0)
(0.412509 -1.94321e-05 0)
(0.412538 -3.22692e-05 0)
(0.412571 -4.62135e-05 0)
(0.412606 -6.11516e-05 0)
(0.412643 -7.82628e-05 0)
(0.412682 -9.95737e-05 0)
(0.412724 -0.000127454 0)
(0.412767 -0.00016428 0)
(0.412813 -0.0002122 0)
(0.412862 -0.000273027 0)
(0.412915 -0.00034836 0)
(0.412973 -0.000439959 0)
(0.413035 -0.000550289 0)
(0.413104 -0.000683002 0)
(0.41318 -0.000843323 0)
(0.413265 -0.00103829 0)
(0.413361 -0.00127689 0)
(0.41347 -0.00157015 0)
(0.413594 -0.00193129 0)
(0.413736 -0.00237614 0)
(0.413902 -0.00292377 0)
(0.414095 -0.00359765 0)
(0.414323 -0.00442716 0)
(0.414589 -0.00544999 0)
(0.414918 -0.0067156 0)
(0.415282 -0.00828519 0)
(0.415885 -0.0102697 0)
(0.412462 -1.95116e-06 0)
(0.412468 -8.39695e-06 0)
(0.412483 -1.89213e-05 0)
(0.412506 -3.23377e-05 0)
(0.412533 -4.7273e-05 0)
(0.412563 -6.2789e-05 0)
(0.412596 -7.89962e-05 0)
(0.412631 -9.71695e-05 0)
(0.412667 -0.000119412 0)
(0.412705 -0.000148203 0)
(0.412745 -0.000186032 0)
(0.412786 -0.000235128 0)
(0.412829 -0.000297358 0)
(0.412875 -0.000374366 0)
(0.412923 -0.000467958 0)
(0.412974 -0.000580638 0)
(0.413029 -0.000716119 0)
(0.413088 -0.000879709 0)
(0.413152 -0.00107856 0)
(0.413222 -0.00132181 0)
(0.4133 -0.00162065 0)
(0.413385 -0.00198849 0)
(0.413481 -0.00244138 0)
(0.413588 -0.00299862 0)
(0.413708 -0.00368404 0)
(0.413845 -0.00452752 0)
(0.413999 -0.00556735 0)
(0.414184 -0.00685521 0)
(0.41437 -0.00845019 0)
(0.414713 -0.0104898 0)
(0.412461 -3.96217e-06 0)
(0.412468 -1.43907e-05 0)
(0.412482 -2.84035e-05 0)
(0.412503 -4.4502e-05 0)
(0.412529 -6.13742e-05 0)
(0.412558 -7.83152e-05 0)
(0.412588 -9.56332e-05 0)
(0.41262 -0.000114695 0)
(0.412654 -0.000137653 0)
(0.412689 -0.00016706 0)
(0.412724 -0.00020549 0)
(0.41276 -0.00025524 0)
(0.412797 -0.000318214 0)
(0.412835 -0.000396077 0)
(0.412874 -0.000490655 0)
(0.412914 -0.000604469 0)
(0.412954 -0.000741249 0)
(0.412996 -0.000906336 0)
(0.413039 -0.00110692 0)
(0.413084 -0.00135216 0)
(0.413129 -0.00165329 0)
(0.413176 -0.00202374 0)
(0.413224 -0.00247955 0)
(0.413272 -0.00304001 0)
(0.41332 -0.00372886 0)
(0.413366 -0.00457591 0)
(0.413406 -0.00561929 0)
(0.413443 -0.0069113 0)
(0.41345 -0.00850815 0)
(0.413525 -0.010565 0)
(0.412461 -5.93371e-06 0)
(0.412468 -2.0143e-05 0)
(0.412481 -3.74113e-05 0)
(0.412502 -5.60263e-05 0)
(0.412526 -7.46811e-05 0)
(0.412553 -9.28823e-05 0)
(0.412582 -0.000111135 0)
(0.412612 -0.000130886 0)
(0.412642 -0.000154315 0)
(0.412674 -0.000184022 0)
(0.412705 -0.000222645 0)
(0.412737 -0.000272521 0)
(0.412767 -0.00033557 0)
(0.412798 -0.000413458 0)
(0.412827 -0.000508007 0)
(0.412855 -0.000621729 0)
(0.412882 -0.000758339 0)
(0.412906 -0.000923142 0)
(0.412928 -0.00112328 0)
(0.412947 -0.00136785 0)
(0.412961 -0.00166796 0)
(0.412969 -0.00203692 0)
(0.412969 -0.00249053 0)
(0.412959 -0.00304776 0)
(0.412934 -0.00373189 0)
(0.412889 -0.00457209 0)
(0.412816 -0.00560548 0)
(0.412708 -0.00688337 0)
(0.412537 -0.00845821 0)
(0.412345 -0.0104925 0)
(0.412461 -7.86628e-06 0)
(0.412468 -2.57766e-05 0)
(0.412481 -4.61714e-05 0)
(0.412501 -6.7108e-05 0)
(0.412525 -8.7325e-05 0)
(0.41255 -0.000106573 0)
(0.412577 -0.000125555 0)
(0.412605 -0.000145777 0)
(0.412633 -0.000169425 0)
(0.412661 -0.000199122 0)
(0.412688 -0.000237535 0)
(0.412715 -0.000287011 0)
(0.41274 -0.000349461 0)
(0.412762 -0.000426535 0)
(0.412782 -0.000520035 0)
(0.412799 -0.000632442 0)
(0.412811 -0.000767409 0)
(0.412819 -0.000930155 0)
(0.41282 -0.00112769 0)
(0.412813 -0.00136895 0)
(0.412796 -0.0016648 0)
(0.412766 -0.00202822 0)
(0.412719 -0.0024746 0)
(0.412651 -0.0030223 0)
(0.412555 -0.00369377 0)
(0.412422 -0.00451697 0)
(0.412239 -0.00552722 0)
(0.41199 -0.00677326 0)
(0.411646 -0.0083029 0)
(0.411196 -0.0102755 0)
(0.412461 -9.81674e-06 0)
(0.412468 -3.1453e-05 0)
(0.412482 -5.48725e-05 0)
(0.412501 -7.79091e-05 0)
(0.412524 -9.9431e-05 0)
(0.412549 -0.000119492 0)
(0.412574 -0.000138988 0)
(0.412599 -0.000159452 0)
(0.412625 -0.000183051 0)
(0.41265 -0.00021241 0)
(0.412674 -0.000250198 0)
(0.412695 -0.000298744 0)
(0.412714 -0.000359924 0)
(0.41273 -0.000435357 0)
(0.412741 -0.000526809 0)
(0.412746 -0.000636699 0)
(0.412745 -0.000768584 0)
(0.412735 -0.000927538 0)
(0.412716 -0.00112037 0)
(0.412684 -0.00135573 0)
(0.412636 -0.00164413 0)
(0.412569 -0.00199809 0)
(0.412477 -0.00243234 0)
(0.412353 -0.00296443 0)
(0.412188 -0.00361559 0)
(0.411969 -0.0044121 0)
(0.411682 -0.00538676 0)
(0.411298 -0.00658432 0)
(0.410792 -0.0080472 0)
(0.4101 -0.00992146 0)
(0.412461 -1.18523e-05 0)
(0.412468 -3.73418e-05 0)
(0.412483 -6.37224e-05 0)
(0.412503 -8.86127e-05 0)
(0.412526 -0.000111137 0)
(0.412549 -0.000131749 0)
(0.412573 -0.000151526 0)
(0.412596 -0.000171988 0)
(0.41262 -0.00019526 0)
(0.412642 -0.000223954 0)
(0.412661 -0.00026071 0)
(0.412679 -0.000307802 0)
(0.412692 -0.000367052 0)
(0.4127 -0.000440029 0)
(0.412702 -0.000528448 0)
(0.412697 -0.000634646 0)
(0.412682 -0.00076205 0)
(0.412656 -0.000915536 0)
(0.412617 -0.00110164 0)
(0.412561 -0.00132863 0)
(0.412484 -0.00160656 0)
(0.412381 -0.00194731 0)
(0.412245 -0.00236482 0)
(0.412067 -0.00287557 0)
(0.411837 -0.0034993 0)
(0.411538 -0.00426017 0)
(0.411151 -0.00518789 0)
(0.410643 -0.00632205 0)
(0.409988 -0.00769921 0)
(0.409078 -0.00944325 0)
(0.412462 -1.4056e-05 0)
(0.412469 -4.36573e-05 0)
(0.412485 -7.29636e-05 0)
(0.412506 -9.94091e-05 0)
(0.412529 -0.000122582 0)
(0.412551 -0.000143462 0)
(0.412574 -0.000163281 0)
(0.412596 -0.000183481 0)
(0.412617 -0.000206136 0)
(0.412636 -0.000233835 0)
(0.412652 -0.000269162 0)
(0.412665 -0.000314298 0)
(0.412673 -0.000370983 0)
(0.412674 -0.000440723 0)
(0.412668 -0.000525158 0)
(0.412652 -0.000626519 0)
(0.412624 -0.000748064 0)
(0.412583 -0.000894423 0)
(0.412525 -0.00107179 0)
(0.412446 -0.00128797 0)
(0.412341 -0.00155245 0)
(0.412204 -0.00187636 0)
(0.412026 -0.00227269 0)
(0.411798 -0.00275665 0)
(0.411506 -0.00334629 0)
(0.411132 -0.00406331 0)
(0.410654 -0.00493395 0)
(0.410033 -0.00599185 0)
(0.409244 -0.0072676 0)
(0.408148 -0.00885616 0)
(0.412462 -1.65398e-05 0)
(0.41247 -5.0678e-05 0)
(0.412488 -8.28822e-05 0)
(0.41251 -0.000110495 0)
(0.412534 -0.000133905 0)
(0.412556 -0.000154768 0)
(0.412577 -0.00017438 0)
(0.412598 -0.000194037 0)
(0.412617 -0.000215765 0)
(0.412633 -0.000242131 0)
(0.412647 -0.000275628 0)
(0.412655 -0.000318316 0)
(0.412658 -0.00037184 0)
(0.412653 -0.000437629 0)
(0.412638 -0.000517242 0)
(0.412612 -0.000612781 0)
(0.412573 -0.000727307 0)
(0.412517 -0.000865149 0)
(0.412441 -0.00103209 0)
(0.41234 -0.00123541 0)
(0.412209 -0.00148389 0)
(0.41204 -0.00178782 0)
(0.411824 -0.00215911 0)
(0.411549 -0.00261156 0)
(0.4112 -0.00316131 0)
(0.410757 -0.00382746 0)
(0.410196 -0.00463253 0)
(0.409475 -0.00560384 0)
(0.40857 -0.00676637 0)
(0.407321 -0.00818219 0)
(0.412462 -1.94557e-05 0)
(0.412472 -5.87915e-05 0)
(0.412492 -9.38249e-05 0)
(0.412517 -0.000122064 0)
(0.412542 -0.000145231 0)
(0.412564 -0.000165789 0)
(0.412584 -0.000184953 0)
(0.412603 -0.000203806 0)
(0.412621 -0.000224329 0)
(0.412635 -0.000249043 0)
(0.412645 -0.000280293 0)
(0.41265 -0.000319979 0)
(0.412647 -0.000369628 0)
(0.412636 -0.000430584 0)
(0.412614 -0.000504305 0)
(0.412579 -0.000592752 0)
(0.412528 -0.000698766 0)
(0.412459 -0.000826352 0)
(0.412366 -0.000980832 0)
(0.412245 -0.00116889 0)
(0.412089 -0.00139856 0)
(0.411891 -0.00167918 0)
(0.411639 -0.00202149 0)
(0.411321 -0.00243778 0)
(0.41092 -0.00294221 0)
(0.410415 -0.00355114 0)
(0.409781 -0.00428342 0)
(0.408973 -0.00516014 0)
(0.407971 -0.00620154 0)
(0.406604 -0.00743608 0)
(0.412463 -2.31142e-05 0)
(0.412475 -6.84818e-05 0)
(0.412499 -0.000106178 0)
(0.412527 -0.000134331 0)
(0.412553 -0.00015672 0)
(0.412575 -0.000176615 0)
(0.412594 -0.000194974 0)
(0.412613 -0.000212715 0)
(0.412628 -0.000231851 0)
(0.412641 -0.000254817 0)
(0.412648 -0.00028375 0)
(0.412649 -0.000320349 0)
(0.412643 -0.000366 0)
(0.412626 -0.000421943 0)
(0.412597 -0.000489518 0)
(0.412554 -0.00057051 0)
(0.412492 -0.000667497 0)
(0.41241 -0.000784097 0)
(0.412302 -0.000925112 0)
(0.412163 -0.00109656 0)
(0.411985 -0.00130564 0)
(0.41176 -0.00156068 0)
(0.411476 -0.00187117 0)
(0.411119 -0.00224781 0)
(0.410672 -0.00270274 0)
(0.410112 -0.00324959 0)
(0.409414 -0.0039037 0)
(0.408533 -0.00468028 0)
(0.40745 -0.00559642 0)
(0.405998 -0.00664884 0)
(0.412464 -2.78804e-05 0)
(0.412479 -8.05109e-05 0)
(0.412509 -0.000120325 0)
(0.412541 -0.00014748 0)
(0.412568 -0.000168767 0)
(0.41259 -0.000187786 0)
(0.41261 -0.000204805 0)
(0.412627 -0.000220643 0)
(0.412641 -0.000237478 0)
(0.412652 -0.000257677 0)
(0.412656 -0.000283136 0)
(0.412654 -0.000315352 0)
(0.412644 -0.000355583 0)
(0.412622 -0.000404968 0)
(0.412587 -0.000464722 0)
(0.412536 -0.000536457 0)
(0.412465 -0.000622493 0)
(0.412372 -0.000726053 0)
(0.41225 -0.000851401 0)
(0.412094 -0.00100384 0)
(0.411896 -0.00118969 0)
(0.411647 -0.0014162 0)
(0.411335 -0.00169155 0)
(0.410944 -0.00202485 0)
(0.410457 -0.00242619 0)
(0.40985 -0.00290654 0)
(0.409097 -0.00347808 0)
(0.408156 -0.00415083 0)
(0.407008 -0.00494082 0)
(0.405498 -0.00581821 0)
(0.412465 -3.44987e-05 0)
(0.412486 -9.60471e-05 0)
(0.412524 -0.000136435 0)
(0.412561 -0.000161009 0)
(0.412589 -0.000180975 0)
(0.412611 -0.000199706 0)
(0.412631 -0.00021638 0)
(0.412648 -0.000231598 0)
(0.412662 -0.000247537 0)
(0.41267 -0.000266342 0)
(0.412673 -0.000289612 0)
(0.412668 -0.000318619 0)
(0.412654 -0.000354471 0)
(0.412628 -0.000398186 0)
(0.412588 -0.000450839 0)
(0.41253 -0.000513847 0)
(0.412451 -0.000589232 0)
(0.412347 -0.000679769 0)
(0.412214 -0.000789118 0)
(0.412043 -0.000921816 0)
(0.411828 -0.00108331 0)
(0.411558 -0.00127977 0)
(0.411221 -0.00151802 0)
(0.410801 -0.00180559 0)
(0.410279 -0.00215067 0)
(0.409633 -0.00256154 0)
(0.408835 -0.00304746 0)
(0.407844 -0.00361359 0)
(0.406645 -0.00427792 0)
(0.405096 -0.00499006 0)
(0.412467 -4.42946e-05 0)
(0.412498 -0.000117133 0)
(0.412547 -0.000155849 0)
(0.41259 -0.000175066 0)
(0.412618 -0.000190612 0)
(0.41264 -0.000205194 0)
(0.412659 -0.000217635 0)
(0.412676 -0.000228883 0)
(0.412689 -0.000241037 0)
(0.412696 -0.000255812 0)
(0.412697 -0.000274428 0)
(0.41269 -0.000297912 0)
(0.412673 -0.000327187 0)
(0.412643 -0.00036311 0)
(0.412598 -0.00040659 0)
(0.412534 -0.000458862 0)
(0.412449 -0.000521668 0)
(0.412337 -0.000597324 0)
(0.412193 -0.000688893 0)
(0.41201 -0.000800023 0)
(0.41178 -0.00093525 0)
(0.411493 -0.0010996 0)
(0.411135 -0.00129855 0)
(0.41069 -0.00153799 0)
(0.41014 -0.00182425 0)
(0.409462 -0.00216317 0)
(0.408628 -0.00256164 0)
(0.407599 -0.00301945 0)
(0.40636 -0.00356229 0)
(0.404776 -0.00412112 0)
(0.412472 -5.91052e-05 0)
(0.412518 -0.000144386 0)
(0.412583 -0.00018226 0)
(0.412632 -0.000202403 0)
(0.412661 -0.000220477 0)
(0.412684 -0.000236022 0)
(0.412704 -0.000248161 0)
(0.41272 -0.000258798 0)
(0.412731 -0.000270001 0)
(0.412737 -0.000283036 0)
(0.412737 -0.000298837 0)
(0.412728 -0.000318278 0)
(0.412709 -0.000342158 0)
(0.412676 -0.000371225 0)
(0.412627 -0.000406225 0)
(0.412558 -0.000448181 0)
(0.412467 -0.000498543 0)
(0.412348 -0.000559069 0)
(0.412195 -0.000632218 0)
(0.412003 -0.000720759 0)
(0.411761 -0.000828396 0)
(0.41146 -0.000959041 0)
(0.411085 -0.00111695 0)
(0.410621 -0.00130659 0)
(0.41005 -0.00153246 0)
(0.409347 -0.00179772 0)
(0.408488 -0.00210653 0)
(0.407428 -0.00245112 0)
(0.406161 -0.00286606 0)
(0.404529 -0.00328232 0)
(0.412479 -8.73132e-05 0)
(0.41255 -0.000161677 0)
(0.412632 -0.000175966 0)
(0.412685 -0.000185863 0)
(0.412715 -0.000198319 0)
(0.412738 -0.000209134 0)
(0.41276 -0.000217454 0)
(0.412776 -0.000224872 0)
(0.412787 -0.000232997 0)
(0.412793 -0.000242905 0)
(0.412791 -0.000254902 0)
(0.412781 -0.000269507 0)
(0.41276 -0.000287235 0)
(0.412725 -0.00030862 0)
(0.412674 -0.000334372 0)
(0.412602 -0.000365376 0)
(0.412506 -0.000402738 0)
(0.412381 -0.000447985 0)
(0.412223 -0.000502836 0)
(0.412022 -0.00056937 0)
(0.411772 -0.000649721 0)
(0.411459 -0.00074654 0)
(0.411072 -0.00086289 0)
(0.410593 -0.00100191 0)
(0.410006 -0.00116673 0)
(0.409286 -0.00135911 0)
(0.408413 -0.00158084 0)
(0.407332 -0.00181417 0)
(0.406054 -0.00209353 0)
(0.404282 -0.00225196 0)
(0.41249 -0.000155648 0)
(0.412641 -0.000290026 0)
(0.412757 -0.000274952 0)
(0.412788 -0.000272005 0)
(0.412809 -0.000278493 0)
(0.412831 -0.000284191 0)
(0.412849 -0.000287947 0)
(0.412862 -0.000291626 0)
(0.412867 -0.000296103 0)
(0.412865 -0.000301579 0)
(0.412854 -0.000308305 0)
(0.412834 -0.000316589 0)
(0.412801 -0.000326849 0)
(0.412753 -0.000339646 0)
(0.412687 -0.000355039 0)
(0.412599 -0.000373796 0)
(0.412486 -0.000396927 0)
(0.41234 -0.000424577 0)
(0.412157 -0.000458622 0)
(0.411928 -0.000497861 0)
(0.411644 -0.000548097 0)
(0.411292 -0.000608824 0)
(0.41086 -0.000681738 0)
(0.410331 -0.000768863 0)
(0.409688 -0.000871694 0)
(0.408909 -0.000990475 0)
(0.407974 -0.00112568 0)
(0.406843 -0.00125137 0)
(0.405502 -0.00142176 0)
(0.403016 -0.000996435 0)
(0.412111 -0.00010747 0)
(0.411834 -0.000182129 0)
(0.411409 -0.000194539 0)
(0.41092 -0.000199542 0)
(0.410429 -0.000205854 0)
(0.40994 -0.000210733 0)
(0.409447 -0.000214345 0)
(0.408946 -0.000217537 0)
(0.408438 -0.00022062 0)
(0.407923 -0.000223756 0)
(0.4074 -0.000227159 0)
(0.406865 -0.000231038 0)
(0.406319 -0.000235525 0)
(0.405756 -0.000240704 0)
(0.405175 -0.000246787 0)
(0.40457 -0.000253943 0)
(0.403938 -0.000262334 0)
(0.403272 -0.000272469 0)
(0.402566 -0.000284582 0)
(0.401809 -0.000299348 0)
(0.400994 -0.00031729 0)
(0.400105 -0.000338606 0)
(0.399128 -0.000363998 0)
(0.398045 -0.000394156 0)
(0.396837 -0.000430155 0)
(0.395482 -0.000471364 0)
(0.393959 -0.0005224 0)
(0.392263 -0.000551434 0)
(0.390455 -0.00065921 0)
(0.386955 -7.44551e-05 0)
(0.415415 -0.00183731 -1.31851e-18)
(0.420676 -0.00247134 -1.01654e-20)
(0.424557 -0.00296282 1.35867e-18)
(0.426619 -0.00362892 2.7298e-18)
(0.427775 -0.00450368 1.39355e-18)
(0.42857 -0.00554793 -1.38281e-18)
(0.429206 -0.00673397 1.41031e-18)
(0.429773 -0.00806103 0)
(0.430325 -0.00953233 1.43022e-18)
(0.430884 -0.0111477 -5.35579e-21)
(0.431448 -0.0129113 1.00498e-19)
(0.432007 -0.0148378 0)
(0.432556 -0.0169506 -1.69131e-18)
(0.433098 -0.019281 0)
(0.433638 -0.0218681 0)
(0.43418 -0.0247618 -1.85507e-18)
(0.43473 -0.0280268 -1.78142e-18)
(0.435291 -0.0317482 -3.37005e-22)
(0.435868 -0.0360395 1.76934e-18)
(0.436466 -0.0410539 2.62021e-19)
(0.43709 -0.0470009 -2.42653e-18)
(0.437741 -0.0541916 2.79319e-19)
(0.438437 -0.0629939 -1.44514e-19)
(0.43914 -0.0743306 2.19838e-18)
(0.440005 -0.0882031 3.00932e-19)
(0.440634 -0.109535 -1.53281e-19)
(0.442359 -0.131599 0)
(0.442094 -0.185437 -1.9671e-18)
(0.448722 -0.218755 -2.03565e-18)
(0.446139 -0.404069 0)
(0.424807 -0.00258463 1.32219e-18)
(0.426538 -0.00297685 -3.11958e-20)
(0.427602 -0.00368588 2.58991e-20)
(0.427746 -0.00462634 -1.38123e-18)
(0.427877 -0.00571026 -4.42178e-20)
(0.428179 -0.00689758 1.49198e-18)
(0.428611 -0.00819072 1.39237e-18)
(0.429101 -0.00960082 1.89819e-19)
(0.429613 -0.0111328 -9.7391e-20)
(0.430127 -0.0127929 1.59308e-18)
(0.430627 -0.0145961 1.74573e-18)
(0.431105 -0.0165655 1.58379e-18)
(0.431563 -0.0187287 1.84613e-18)
(0.432008 -0.0211178 1.67817e-18)
(0.43244 -0.0237727 1.845e-18)
(0.43286 -0.026745 3.91166e-18)
(0.433268 -0.0301014 1.84393e-18)
(0.43366 -0.0339295 -2.15947e-18)
(0.434033 -0.0383452 2.2349e-18)
(0.434379 -0.043505 -1.35241e-19)
(0.434686 -0.0496228 1.40377e-19)
(0.434937 -0.0570062 2.34023e-18)
(0.435095 -0.0660592 0)
(0.43511 -0.0775894 -1.54268e-19)
(0.434942 -0.0919643 2.74395e-18)
(0.434237 -0.11312 0)
(0.433667 -0.136574 2.68034e-18)
(0.430103 -0.188507 -2.30751e-18)
(0.43038 -0.224588 -3.79099e-20)
(0.418156 -0.40265 2.11185e-19)
(0.424455 -0.00299455 -1.03139e-20)
(0.425184 -0.0036027 -1.04569e-20)
(0.425771 -0.00462411 -1.35176e-18)
(0.426202 -0.00577843 -4.3907e-20)
(0.426649 -0.0069553 4.50089e-20)
(0.427205 -0.00817084 -4.59798e-20)
(0.427768 -0.00946578 -1.45899e-18)
(0.428279 -0.0108651 0)
(0.42874 -0.0123838 0)
(0.429166 -0.0140375 0)
(0.429566 -0.0158452 -1.66968e-18)
(0.429943 -0.0178281 -9.78003e-20)
(0.4303 -0.0200109 -1.54602e-18)
(0.430635 -0.0224247 -1.82153e-18)
(0.430945 -0.0251102 -1.9966e-18)
(0.431226 -0.02812 -1.93986e-18)
(0.431471 -0.0315223 1.43443e-19)
(0.431672 -0.0354058 1.94434e-18)
(0.431815 -0.0398875 -2.01383e-18)
(0.431883 -0.0451249 -1.40064e-19)
(0.431845 -0.051334 0)
(0.43166 -0.0588185 -4.98378e-18)
(0.431258 -0.0680079 1.56916e-19)
(0.430527 -0.079606 -2.63167e-18)
(0.429353 -0.0943291 7.00661e-20)
(0.427189 -0.115052 0)
(0.424499 -0.139937 -5.73736e-18)
(0.417473 -0.188998 5.25475e-18)
(0.411735 -0.229344 -2.81798e-18)
(0.388995 -0.397576 -2.59472e-19)
(0.424371 -0.00432855 0)
(0.424946 -0.00513953 -1.38978e-18)
(0.425468 -0.00615799 3.95508e-23)
(0.425894 -0.00721605 2.23508e-20)
(0.426295 -0.00829417 0)
(0.426703 -0.00945214 0)
(0.427093 -0.0107293 -1.53919e-18)
(0.42745 -0.0121346 0)
(0.427788 -0.013671 1.01046e-19)
(0.428113 -0.0153477 -2.07836e-19)
(0.428422 -0.0171798 1.27299e-22)
(0.428708 -0.0191874 -1.64558e-18)
(0.428963 -0.0213963 1.13403e-19)
(0.429183 -0.0238399 1.76316e-18)
(0.429362 -0.0265607 1.20915e-19)
(0.429492 -0.0296125 1.88551e-18)
(0.429562 -0.0330643 -2.06322e-18)
(0.429556 -0.0370052 -2.16134e-18)
(0.429453 -0.0415531 0)
(0.429221 -0.046866 2.19134e-18)
(0.428812 -0.0531602 1.50918e-19)
(0.42816 -0.0607379 2.65418e-18)
(0.427155 -0.0700316 -1.63995e-19)
(0.42564 -0.0817058 2.7064e-18)
(0.423363 -0.0966117 -2.81232e-18)
(0.419743 -0.117043 0)
(0.414669 -0.142744 3.07777e-18)
(0.404374 -0.189247 -2.90136e-18)
(0.392196 -0.232485 2.88354e-18)
(0.359589 -0.389609 6.30691e-20)
(0.423953 -0.00552918 0)
(0.424372 -0.00631217 1.38553e-18)
(0.424734 -0.00725171 0)
(0.425073 -0.00827784 0)
(0.425409 -0.00938273 0)
(0.425747 -0.0105896 0)
(0.426074 -0.0119102 1.5615e-18)
(0.426379 -0.0133449 5.01807e-20)
(0.426659 -0.0148991 -5.16243e-20)
(0.426913 -0.0165876 0)
(0.427134 -0.0184304 0)
(0.427317 -0.020451 1.12635e-19)
(0.427457 -0.0226769 -3.36107e-23)
(0.427548 -0.0251423 -2.03456e-18)
(0.427582 -0.0278896 0)
(0.427547 -0.0309725 -2.05004e-18)
(0.427425 -0.0344601 0)
(0.427195 -0.0384416 2.34619e-18)
(0.426823 -0.0430349 -2.88731e-19)
(0.426266 -0.0483974 -2.24069e-18)
(0.425457 -0.0547438 1.26709e-18)
(0.424304 -0.0623728 0)
(0.422657 -0.0717133 0)
(0.420308 -0.0834008 0)
(0.416882 -0.0983458 1.5364e-18)
(0.411746 -0.118445 -1.61222e-18)
(0.40421 -0.144518 0)
(0.390722 -0.188442 -1.7042e-18)
(0.371959 -0.233718 -1.79752e-18)
(0.329896 -0.378784 1.11701e-18)
(0.42337 -0.006613 6.78808e-19)
(0.423695 -0.0074267 7.166e-19)
(0.423966 -0.00838239 7.45227e-19)
(0.424251 -0.00942947 6.94272e-19)
(0.424539 -0.0105557 8.30059e-19)
(0.42481 -0.0117714 7.30212e-19)
(0.425055 -0.0130889 7.99747e-19)
(0.425271 -0.0145181 -8.22009e-19)
(0.425455 -0.0160707 5.26803e-20)
(0.425606 -0.0177634 7.62429e-19)
(0.425719 -0.0196151 8.97931e-19)
(0.425787 -0.021648 8.69103e-19)
(0.425804 -0.0238887 1.19223e-19)
(0.425759 -0.0263708 -9.91215e-19)
(0.425638 -0.0291368 1.27858e-19)
(0.425426 -0.0322407 -2.65184e-19)
(0.425099 -0.0357513 -9.70894e-19)
(0.424627 -0.0397577 -1.15466e-18)
(0.423968 -0.0443765 0)
(0.423063 -0.0497632 -1.56666e-19)
(0.421829 -0.0561292 2.13551e-20)
(0.420145 -0.0637674 1.71391e-19)
(0.417823 -0.0730969 1.28138e-18)
(0.414599 -0.0847286 2.85643e-19)
(0.409985 -0.0995769 -5.09109e-20)
(0.403285 -0.119275 1.77719e-18)
(0.393242 -0.145279 -1.11791e-19)
(0.376641 -0.18661 1.78357e-18)
(0.351241 -0.233014 1.997e-18)
(0.300691 -0.364929 -1.30009e-18)
(0.422652 -0.00765925 -6.9801e-19)
(0.422899 -0.00848608 -7.03305e-19)
(0.423088 -0.00944065 -7.43548e-19)
(0.423302 -0.0104846 2.68343e-20)
(0.42352 -0.0116109 -1.51864e-18)
(0.423711 -0.0128289 -7.89889e-19)
(0.423869 -0.0141507 -1.72914e-18)
(0.423997 -0.0155864 9.96251e-20)
(0.424091 -0.0171471 -5.38531e-20)
(0.424146 -0.0188476 -1.77616e-18)
(0.424154 -0.020706 6.75895e-21)
(0.424107 -0.0227447 -8.83718e-19)
(0.423994 -0.024991 9.22275e-19)
(0.423803 -0.0274792 -9.35164e-21)
(0.423518 -0.0302518 1.31672e-19)
(0.423116 -0.0333625 -1.36562e-19)
(0.422569 -0.0368792 1.13207e-18)
(0.421839 -0.0408897 1.1803e-18)
(0.420875 -0.0455084 1.55611e-19)
(0.419603 -0.0508874 9.86512e-19)
(0.41792 -0.0572331 -1.09931e-18)