/*--------------------------------*- C++ -*----------------------------------*\
  =========                 |
  \\      /  F ield         | OpenFOAM: The Open Source CFD Toolbox
   \\    /   O peration     | Website:  https://openfoam.org
    \\  /    A nd           | Version:  11
     \\/     M anipulation  |
\*---------------------------------------------------------------------------*/
FoamFile
{
    format      ascii;
    class       surfaceScalarField;
    location    "4.5";
    object      phi;
}
// * * * * * * * * * * * * * * * * * * * * * * * * * * * * * * * * * * * * * //

dimensions      [0 3 -1 0 0 0 0];

internalField   nonuniform List<scalar> 
24840
(
1.53198e-05
1.3493e-08
1.5302e-05
1.78523e-08
1.52857e-05
1.63065e-08
1.52702e-05
1.5529e-08
1.52552e-05
1.49847e-08
1.5241e-05
1.41804e-08
1.5228e-05
1.29945e-08
1.52164e-05
1.15543e-08
1.52065e-05
9.89561e-09
1.51988e-05
7.75279e-09
1.51935e-05
5.24229e-09
1.51913e-05
2.26716e-09
1.51927e-05
-1.3865e-09
1.51985e-05
-5.88241e-09
1.52099e-05
-1.13929e-08
1.52282e-05
-1.82356e-08
1.52546e-05
-2.6414e-08
1.52914e-05
-3.67731e-08
1.53412e-05
-4.9867e-08
1.54058e-05
-6.45969e-08
1.54884e-05
-8.2603e-08
1.55945e-05
-1.06052e-07
1.57295e-05
-1.34995e-07
1.58999e-05
-1.7043e-07
1.61138e-05
-2.13854e-07
1.63803e-05
-2.66506e-07
1.67116e-05
-3.31357e-07
1.71166e-05
-4.04972e-07
1.76331e-05
-5.16534e-07
-5.23385e-07
1.81565e-05
1.53394e-05
7.42987e-09
1.53434e-05
1.38383e-08
1.53471e-05
1.26335e-08
1.53509e-05
1.16865e-08
1.53553e-05
1.06399e-08
1.53604e-05
9.06344e-09
1.53666e-05
6.78137e-09
1.53741e-05
4.04048e-09
1.53831e-05
8.64694e-10
1.53941e-05
-3.19427e-09
1.54072e-05
-7.88722e-09
1.5423e-05
-1.34987e-08
1.54419e-05
-2.02803e-08
1.54645e-05
-2.84694e-08
1.54915e-05
-3.84494e-08
1.55237e-05
-5.04301e-08
1.55626e-05
-6.52617e-08
1.5609e-05
-8.31731e-08
1.56637e-05
-1.04585e-07
1.57323e-05
-1.3323e-07
1.58197e-05
-1.69971e-07
1.59274e-05
-2.13814e-07
1.60593e-05
-2.66889e-07
1.6221e-05
-3.32096e-07
1.64196e-05
-4.12414e-07
1.66639e-05
-5.10878e-07
1.69649e-05
-6.32274e-07
1.7335e-05
-7.75138e-07
1.77911e-05
-9.72644e-07
-1.08489e-06
1.83526e-05
1.53362e-05
4.58718e-09
1.53399e-05
1.01413e-08
1.53427e-05
9.79201e-09
1.53461e-05
8.31509e-09
1.53501e-05
6.67497e-09
1.53547e-05
4.39723e-09
1.53604e-05
1.10425e-09
1.53673e-05
-2.81693e-09
1.53757e-05
-7.60604e-09
1.53859e-05
-1.34157e-08
1.53983e-05
-2.02885e-08
1.54133e-05
-2.8484e-08
1.54314e-05
-3.83306e-08
1.54531e-05
-5.02161e-08
1.54793e-05
-6.46596e-08
1.55111e-05
-8.22049e-08
1.55496e-05
-1.03744e-07
1.55966e-05
-1.30147e-07
1.56544e-05
-1.62393e-07
1.57244e-05
-2.0324e-07
1.58091e-05
-2.54684e-07
1.59128e-05
-3.17469e-07
1.604e-05
-3.94093e-07
1.61963e-05
-4.88395e-07
1.63886e-05
-6.04737e-07
1.66255e-05
-7.478e-07
1.6918e-05
-9.24792e-07
1.72786e-05
-1.13572e-06
1.77246e-05
-1.41862e-06
-1.64374e-06
1.82834e-05
1.5335e-05
2.92123e-09
1.53382e-05
6.97372e-09
1.5341e-05
7.00742e-09
1.5344e-05
5.24647e-09
1.53478e-05
2.93156e-09
1.53523e-05
-1.29394e-10
1.53577e-05
-4.32481e-09
1.53644e-05
-9.48798e-09
1.53726e-05
-1.57697e-08
1.53824e-05
-2.33116e-08
1.53944e-05
-3.22848e-08
1.54089e-05
-4.29712e-08
1.54264e-05
-5.57826e-08
1.54474e-05
-7.12421e-08
1.54728e-05
-9.00185e-08
1.55035e-05
-1.12904e-07
1.55407e-05
-1.40961e-07
1.5586e-05
-1.75434e-07
1.56414e-05
-2.17794e-07
1.57087e-05
-2.70617e-07
1.57905e-05
-3.36476e-07
1.58905e-05
-4.17395e-07
1.6013e-05
-5.16636e-07
1.61636e-05
-6.38939e-07
1.63488e-05
-7.90001e-07
1.65772e-05
-9.76192e-07
1.68593e-05
-1.20689e-06
1.72085e-05
-1.48492e-06
1.76394e-05
-1.84954e-06
-2.18984e-06
1.81855e-05
1.53344e-05
1.85613e-09
1.53368e-05
4.52373e-09
1.53394e-05
4.46475e-09
1.53422e-05
2.4053e-09
1.53458e-05
-5.9913e-10
1.53501e-05
-4.47782e-09
1.53554e-05
-9.57214e-09
1.53618e-05
-1.59094e-08
1.53696e-05
-2.35983e-08
1.53791e-05
-3.28121e-08
1.53906e-05
-4.37801e-08
1.54045e-05
-5.68378e-08
1.54212e-05
-7.24767e-08
1.54413e-05
-9.13409e-08
1.54655e-05
-1.14248e-07
1.54948e-05
-1.42199e-07
1.55303e-05
-1.76461e-07
1.55734e-05
-2.18578e-07
1.56261e-05
-2.70425e-07
1.56901e-05
-3.34663e-07
1.57679e-05
-4.14308e-07
1.5863e-05
-5.12409e-07
1.59794e-05
-6.33081e-07
1.61224e-05
-7.81949e-07
1.62984e-05
-9.65983e-07
1.65155e-05
-1.19325e-06
1.67837e-05
-1.47515e-06
1.71167e-05
-1.81794e-06
1.75278e-05
-2.2606e-06
-2.71369e-06
1.80516e-05
1.53341e-05
1.12084e-09
1.5336e-05
2.6046e-09
1.53383e-05
2.10887e-09
1.5341e-05
-2.95509e-10
1.53444e-05
-3.92026e-09
1.53485e-05
-8.58951e-09
1.53535e-05
-1.45713e-08
1.53596e-05
-2.20046e-08
1.5367e-05
-3.10185e-08
1.5376e-05
-4.1811e-08
1.53869e-05
-5.46541e-08
1.54e-05
-6.99411e-08
1.54157e-05
-8.82386e-08
1.54347e-05
-1.10301e-07
1.54575e-05
-1.37086e-07
1.54851e-05
-1.69782e-07
1.55185e-05
-2.09856e-07
1.5559e-05
-2.59111e-07
1.56084e-05
-3.19754e-07
1.56684e-05
-3.94659e-07
1.57413e-05
-4.87255e-07
1.58303e-05
-6.01412e-07
1.59393e-05
-7.42065e-07
1.60731e-05
-9.15713e-07
1.62376e-05
-1.13054e-06
1.64406e-05
-1.39625e-06
1.66916e-05
-1.72617e-06
1.70039e-05
-2.1302e-06
1.73899e-05
-2.64662e-06
-3.20902e-06
1.78852e-05
1.53339e-05
5.66935e-10
1.53354e-05
1.05361e-09
1.53375e-05
-2.35241e-12
1.53401e-05
-2.81551e-09
1.53432e-05
-7.01034e-09
1.5347e-05
-1.24236e-08
1.53517e-05
-1.92603e-08
1.53574e-05
-2.77185e-08
1.53643e-05
-3.79676e-08
1.53728e-05
-5.02282e-08
1.53829e-05
-6.48092e-08
1.53951e-05
-8.21577e-08
1.54098e-05
-1.02912e-07
1.54274e-05
-1.27928e-07
1.54486e-05
-1.58295e-07
1.54742e-05
-1.95362e-07
1.55052e-05
-2.40786e-07
1.55426e-05
-2.96597e-07
1.55882e-05
-3.65285e-07
1.56435e-05
-4.49983e-07
1.57107e-05
-5.54509e-07
1.57927e-05
-6.83391e-07
1.5893e-05
-8.42321e-07
1.60159e-05
-1.03864e-06
1.6167e-05
-1.28164e-06
1.63534e-05
-1.58259e-06
1.65838e-05
-1.95665e-06
1.6871e-05
-2.4174e-06
1.72267e-05
-3.00231e-06
-3.66916e-06
1.76869e-05
1.53338e-05
1.16831e-10
1.53351e-05
-2.2566e-10
1.53369e-05
-1.86969e-09
1.53392e-05
-5.13457e-09
1.53421e-05
-9.86816e-09
1.53457e-05
-1.59723e-08
1.535e-05
-2.36128e-08
1.53553e-05
-3.30158e-08
1.53617e-05
-4.4392e-08
1.53695e-05
-5.79901e-08
1.53788e-05
-7.41522e-08
1.539e-05
-9.33731e-08
1.54035e-05
-1.16357e-07
1.54196e-05
-1.4405e-07
1.5439e-05
-1.7766e-07
1.54623e-05
-2.18677e-07
1.54904e-05
-2.68927e-07
1.55245e-05
-3.30641e-07
1.55657e-05
-4.06552e-07
1.56158e-05
-5.00052e-07
1.56766e-05
-6.15311e-07
1.57506e-05
-7.57401e-07
1.5841e-05
-9.32676e-07
1.59516e-05
-1.14924e-06
1.60874e-05
-1.41741e-06
1.62546e-05
-1.74987e-06
1.64615e-05
-2.16347e-06
1.67194e-05
-2.67539e-06
1.70395e-05
-3.32236e-06
-4.08693e-06
1.74573e-05
1.53337e-05
-2.7071e-10
1.53348e-05
-1.28958e-09
1.53364e-05
-3.51048e-09
1.53385e-05
-7.24444e-09
1.53412e-05
-1.24892e-08
1.53444e-05
-1.92217e-08
1.53484e-05
-2.75955e-08
1.53532e-05
-3.78512e-08
1.53591e-05
-5.0235e-08
1.53661e-05
-6.50249e-08
1.53745e-05
-8.25933e-08
1.53846e-05
-1.03477e-07
1.53967e-05
-1.28438e-07
1.54112e-05
-1.58503e-07
1.54285e-05
-1.9498e-07
1.54493e-05
-2.39485e-07
1.54744e-05
-2.93988e-07
1.55046e-05
-3.60892e-07
1.55412e-05
-4.43136e-07
1.55855e-05
-5.44348e-07
1.56392e-05
-6.69005e-07
1.57044e-05
-8.22619e-07
1.57838e-05
-1.0121e-06
1.58808e-05
-1.24623e-06
1.59996e-05
-1.53618e-06
1.61456e-05
-1.89589e-06
1.63259e-05
-2.34375e-06
1.65508e-05
-2.90025e-06
1.68299e-05
-3.60151e-06
-4.45473e-06
1.71977e-05
1.53337e-05
-5.96422e-10
1.53346e-05
-2.19383e-09
1.5336e-05
-4.95411e-09
1.53379e-05
-9.15028e-09
1.53403e-05
-1.48693e-08
1.53432e-05
-2.21586e-08
1.53468e-05
-3.11807e-08
1.53511e-05
-4.21868e-08
1.53564e-05
-5.54494e-08
1.53626e-05
-7.12733e-08
1.53701e-05
-9.00584e-08
1.5379e-05
-1.12377e-07
1.53896e-05
-1.39043e-07
1.54022e-05
-1.71149e-07
1.54173e-05
-2.10088e-07
1.54354e-05
-2.57581e-07
1.54572e-05
-3.15718e-07
1.54833e-05
-3.87045e-07
1.55148e-05
-4.74669e-07
1.55529e-05
-5.82417e-07
1.55989e-05
-7.15017e-07
1.56546e-05
-8.78328e-07
1.57222e-05
-1.07971e-06
1.58045e-05
-1.32846e-06
1.59048e-05
-1.63649e-06
1.60276e-05
-2.01874e-06
1.61788e-05
-2.49491e-06
1.6367e-05
-3.08843e-06
1.66003e-05
-3.83479e-06
-4.76486e-06
1.69104e-05
1.53336e-05
-8.66309e-10
1.53344e-05
-2.9805e-09
1.53357e-05
-6.22487e-09
1.53374e-05
-1.08518e-08
1.53395e-05
-1.6999e-08
1.53421e-05
-2.47706e-08
1.53453e-05
-3.43482e-08
1.53491e-05
-4.59921e-08
1.53536e-05
-5.99945e-08
1.5359e-05
-7.66831e-08
1.53655e-05
-9.64817e-08
1.53731e-05
-1.19993e-07
1.53821e-05
-1.48072e-07
1.53928e-05
-1.81865e-07
1.54056e-05
-2.22836e-07
1.54208e-05
-2.72786e-07
1.5439e-05
-3.33904e-07
1.54608e-05
-4.08843e-07
1.54869e-05
-5.00842e-07
1.55184e-05
-6.13881e-07
1.55563e-05
-7.52879e-07
1.56019e-05
-9.23947e-07
1.56569e-05
-1.13476e-06
1.57235e-05
-1.39503e-06
1.58042e-05
-1.71717e-06
1.59023e-05
-2.11687e-06
1.60222e-05
-2.6148e-06
1.61706e-05
-3.23683e-06
1.63535e-05
-4.0177e-06
-5.00995e-06
1.65986e-05
1.53336e-05
-1.09598e-09
1.53342e-05
-3.66702e-09
1.53354e-05
-7.33896e-09
1.53369e-05
-1.23531e-08
1.53387e-05
-1.88747e-08
1.5341e-05
-2.70498e-08
1.53438e-05
-3.70821e-08
1.5347e-05
-4.92424e-08
1.53508e-05
-6.38369e-08
1.53554e-05
-8.12117e-08
1.53607e-05
-1.0181e-07
1.5367e-05
-1.2626e-07
1.53743e-05
-1.55445e-07
1.5383e-05
-1.90556e-07
1.53933e-05
-2.33107e-07
1.54055e-05
-2.84961e-07
1.542e-05
-3.48375e-07
1.54372e-05
-4.26082e-07
1.54578e-05
-5.21411e-07
1.54823e-05
-6.38445e-07
1.55117e-05
-7.82228e-07
1.55468e-05
-9.5903e-07
1.55887e-05
-1.17672e-06
1.56389e-05
-1.44524e-06
1.56991e-05
-1.77732e-06
1.57713e-05
-2.18907e-06
1.58582e-05
-2.70176e-06
1.59644e-05
-3.34299e-06
1.60932e-05
-4.14652e-06
-5.18342e-06
1.62667e-05
1.53335e-05
-1.29497e-09
1.53341e-05
-4.26616e-09
1.53351e-05
-8.31185e-09
1.53364e-05
-1.36617e-08
1.5338e-05
-2.04956e-08
1.534e-05
-2.89904e-08
1.53423e-05
-3.93715e-08
1.53449e-05
-5.19197e-08
1.53481e-05
-6.69518e-08
1.53517e-05
-8.48268e-08
1.53559e-05
-1.06003e-07
1.53607e-05
-1.31126e-07
1.53664e-05
-1.61101e-07
1.5373e-05
-1.97147e-07
1.53807e-05
-2.40812e-07
1.53897e-05
-2.93998e-07
1.54003e-05
-3.59005e-07
1.54129e-05
-4.38613e-07
1.54277e-05
-5.36199e-07
1.54451e-05
-6.55897e-07
1.54657e-05
-8.02811e-07
1.54899e-05
-9.83273e-07
1.55184e-05
-1.20522e-06
1.55519e-05
-1.47866e-06
1.55909e-05
-1.81638e-06
1.56365e-05
-2.23461e-06
1.56894e-05
-2.75472e-06
1.57517e-05
-3.40527e-06
1.58237e-05
-4.21857e-06
-5.28006e-06
1.59204e-05
1.53335e-05
-1.4691e-09
1.5334e-05
-4.78982e-09
1.53349e-05
-9.15708e-09
1.5336e-05
-1.4786e-08
1.53374e-05
-2.18638e-08
1.5339e-05
-3.05904e-08
1.53408e-05
-4.12099e-08
1.53429e-05
-5.40129e-08
1.53453e-05
-6.93224e-08
1.53479e-05
-8.7506e-08
1.5351e-05
-1.09032e-07
1.53544e-05
-1.34556e-07
1.53583e-05
-1.64997e-07
1.53627e-05
-2.01586e-07
1.53678e-05
-2.45889e-07
1.53736e-05
-2.99825e-07
1.53804e-05
-3.65711e-07
1.53881e-05
-4.46338e-07
1.5397e-05
-5.45094e-07
1.54072e-05
-6.66114e-07
1.54189e-05
-8.14487e-07
1.54321e-05
-9.96519e-07
1.5447e-05
-1.22009e-06
1.54634e-05
-1.49509e-06
1.54812e-05
-1.83413e-06
1.54998e-05
-2.25321e-06
1.55183e-05
-2.77329e-06
1.5536e-05
-3.42295e-06
1.55499e-05
-4.23249e-06
-5.29665e-06
1.55665e-05
1.53335e-05
-1.62265e-09
1.53339e-05
-5.24889e-09
1.53347e-05
-9.88748e-09
1.53356e-05
-1.5736e-08
1.53367e-05
-2.29847e-08
1.5338e-05
-3.18512e-08
1.53394e-05
-4.25961e-08
1.53409e-05
-5.5517e-08
1.53425e-05
-7.09401e-08
1.53442e-05
-8.92371e-08
1.53461e-05
-1.10882e-07
1.53481e-05
-1.36532e-07
1.53502e-05
-1.67109e-07
1.53524e-05
-2.03846e-07
1.53549e-05
-2.48308e-07
1.53574e-05
-3.02408e-07
1.53602e-05
-3.68454e-07
1.53631e-05
-4.49219e-07
1.5366e-05
-5.48059e-07
1.5369e-05
-6.69057e-07
1.53717e-05
-8.17228e-07
1.5374e-05
-9.98757e-07
1.53752e-05
-1.22135e-06
1.53747e-05
-1.4946e-06
1.53713e-05
-1.83072e-06
1.53632e-05
-2.24511e-06
1.53477e-05
-2.75777e-06
1.53211e-05
-3.39639e-06
1.52771e-05
-4.1885e-06
-5.23246e-06
1.52129e-05
1.53335e-05
-1.75941e-09
1.53339e-05
-5.65392e-09
1.53345e-05
-1.05163e-08
1.53353e-05
-1.65234e-08
1.53362e-05
-2.38662e-08
1.53371e-05
-3.27781e-08
1.5338e-05
-4.35333e-08
1.5339e-05
-5.64335e-08
1.53398e-05
-7.18045e-08
1.53406e-05
-9.00182e-08
1.53413e-05
-1.11548e-07
1.53418e-05
-1.37049e-07
1.53421e-05
-1.67434e-07
1.53422e-05
-2.03924e-07
1.53419e-05
-2.48065e-07
1.53413e-05
-3.01747e-07
1.53401e-05
-3.6724e-07
1.53381e-05
-4.47269e-07
1.53352e-05
-5.45119e-07
1.53309e-05
-6.64777e-07
1.53248e-05
-8.11114e-07
1.53161e-05
-9.90117e-07
1.5304e-05
-1.20919e-06
1.52869e-05
-1.47752e-06
1.52628e-05
-1.80663e-06
1.52287e-05
-2.21102e-06
1.51802e-05
-2.70921e-06
1.51108e-05
-3.32705e-06
1.50108e-05
-4.08853e-06
-5.08971e-06
1.48681e-05
1.53335e-05
-1.88321e-09
1.53338e-05
-6.01605e-09
1.53344e-05
-1.1058e-08
1.5335e-05
-1.71617e-08
1.53357e-05
-2.45191e-08
1.53363e-05
-3.33798e-08
1.53367e-05
-4.40296e-08
1.53371e-05
-5.67705e-08
1.53372e-05
-7.19236e-08
1.5337e-05
-8.98576e-08
1.53365e-05
-1.11041e-07
1.53356e-05
-1.36119e-07
1.53342e-05
-1.65987e-07
1.53321e-05
-2.01839e-07
1.53292e-05
-2.45188e-07
1.53253e-05
-2.97877e-07
1.53202e-05
-3.62118e-07
1.53135e-05
-4.40556e-07
1.53047e-05
-5.3637e-07
1.52934e-05
-6.53403e-07
1.52786e-05
-7.96331e-07
1.52593e-05
-9.70864e-07
1.52342e-05
-1.18401e-06
1.5201e-05
-1.44439e-06
1.51571e-05
-1.76268e-06
1.50982e-05
-2.15214e-06
1.50184e-05
-2.62937e-06
1.49088e-05
-3.21749e-06
1.47565e-05
-3.93625e-06
-4.87369e-06
1.45405e-05
1.53334e-05
-1.99838e-09
1.53338e-05
-6.348e-09
1.53343e-05
-1.15292e-08
1.53348e-05
-1.76665e-08
1.53352e-05
-2.49567e-08
1.53355e-05
-3.36687e-08
1.53356e-05
-4.40982e-08
1.53353e-05
-5.65418e-08
1.53347e-05
-7.13128e-08
1.53336e-05
-8.87738e-08
1.5332e-05
-1.09384e-07
1.53296e-05
-1.3377e-07
1.53264e-05
-1.62802e-07
1.53222e-05
-1.97635e-07
1.53168e-05
-2.39732e-07
1.53098e-05
-2.90871e-07
1.53008e-05
-3.5318e-07
1.52895e-05
-4.29199e-07
1.52751e-05
-5.21968e-07
1.52568e-05
-6.35147e-07
1.52336e-05
-7.73164e-07
1.52042e-05
-9.41389e-07
1.51665e-05
-1.14635e-06
1.51181e-05
-1.39599e-06
1.50554e-05
-1.69997e-06
1.49734e-05
-2.07009e-06
1.48646e-05
-2.52065e-06
1.47185e-05
-3.0713e-06
1.45192e-05
-3.73699e-06
-4.59272e-06
1.42382e-05
1.53334e-05
-2.11017e-09
1.53338e-05
-6.66536e-09
1.53342e-05
-1.19495e-08
1.53346e-05
-1.80557e-08
1.53348e-05
-2.51943e-08
1.53348e-05
-3.36608e-08
1.53345e-05
-4.37569e-08
1.53337e-05
-5.57678e-08
1.53324e-05
-6.99955e-08
1.53304e-05
-8.67948e-08
1.53276e-05
-1.0661e-07
1.53239e-05
-1.30045e-07
1.5319e-05
-1.57932e-07
1.53128e-05
-1.91377e-07
1.53048e-05
-2.31778e-07
1.52948e-05
-2.8083e-07
1.52821e-05
-3.40557e-07
1.52663e-05
-4.13366e-07
1.52465e-05
-5.0213e-07
1.52216e-05
-6.1029e-07
1.51904e-05
-7.41985e-07
1.51512e-05
-9.02192e-07
1.51018e-05
-1.0969e-06
1.50391e-05
-1.33328e-06
1.4959e-05
-1.61988e-06
1.48557e-05
-1.96686e-06
1.47211e-05
-2.38597e-06
1.45426e-05
-2.89288e-06
1.43031e-05
-3.49744e-06
-4.25768e-06
1.39681e-05
1.53334e-05
-2.22543e-09
1.53338e-05
-6.98814e-09
1.53342e-05
-1.23424e-08
1.53345e-05
-1.83492e-08
1.53345e-05
-2.52498e-08
1.53342e-05
-3.33752e-08
1.53335e-05
-4.3028e-08
1.53322e-05
-5.44739e-08
1.53302e-05
-6.80022e-08
1.53274e-05
-8.39579e-08
1.53235e-05
-1.02767e-07
1.53185e-05
-1.25e-07
1.5312e-05
-1.51446e-07
1.53038e-05
-1.83152e-07
1.52934e-05
-2.21434e-07
1.52805e-05
-2.67889e-07
1.52643e-05
-3.24416e-07
1.52443e-05
-3.93269e-07
1.52192e-05
-4.77127e-07
1.51881e-05
-5.79181e-07
1.51494e-05
-7.03247e-07
1.51011e-05
-8.53871e-07
1.50406e-05
-1.03646e-06
1.49647e-05
-1.25735e-06
1.48688e-05
-1.52394e-06
1.47466e-05
-1.84466e-06
1.45892e-05
-2.22863e-06
1.43836e-05
-2.68723e-06
1.41114e-05
-3.22527e-06
-3.88135e-06
1.37351e-05
1.53335e-05
-2.35367e-09
1.53338e-05
-7.34348e-09
1.53342e-05
-1.27368e-08
1.53344e-05
-1.85675e-08
1.53343e-05
-2.51387e-08
1.53338e-05
-3.28322e-08
1.53327e-05
-4.19399e-08
1.53309e-05
-5.26947e-08
1.53283e-05
-6.53737e-08
1.53246e-05
-8.03114e-08
1.53198e-05
-9.79093e-08
1.53135e-05
-1.18703e-07
1.53055e-05
-1.43431e-07
1.52954e-05
-1.73066e-07
1.52828e-05
-2.08833e-07
1.52671e-05
-2.52212e-07
1.52476e-05
-3.04962e-07
1.52235e-05
-3.69164e-07
1.51937e-05
-4.47278e-07
1.51567e-05
-5.42226e-07
1.5111e-05
-6.57471e-07
1.50542e-05
-7.97105e-07
1.49837e-05
-9.65917e-07
1.48957e-05
-1.16943e-06
1.47856e-05
-1.41384e-06
1.46469e-05
-1.7059e-06
1.44704e-05
-2.05213e-06
1.42428e-05
-2.45964e-06
1.39461e-05
-2.92859e-06
-3.47739e-06
1.35422e-05
1.53335e-05
-2.50929e-09
1.53339e-05
-7.76902e-09
1.53343e-05
-1.31668e-08
1.53345e-05
-1.87262e-08
1.53342e-05
-2.4884e-08
1.53335e-05
-3.20712e-08
1.53321e-05
-4.05255e-08
1.53298e-05
-5.04598e-08
1.53266e-05
-6.21478e-08
1.53222e-05
-7.59063e-08
1.53164e-05
-9.21051e-08
1.53089e-05
-1.11239e-07
1.52995e-05
-1.33989e-07
1.52877e-05
-1.61246e-07
1.5273e-05
-1.94129e-07
1.52547e-05
-2.33989e-07
1.52322e-05
-2.82431e-07
1.52044e-05
-3.41341e-07
1.51701e-05
-4.12949e-07
1.51277e-05
-4.99882e-07
1.50755e-05
-6.05236e-07
1.5011e-05
-7.32633e-07
1.49313e-05
-8.86248e-07
1.48327e-05
-1.07078e-06
1.47102e-05
-1.29132e-06
1.45573e-05
-1.55302e-06
1.43652e-05
-1.86001e-06
1.41209e-05
-2.21538e-06
1.38078e-05
-2.61545e-06
-3.05931e-06
1.33897e-05
1.53335e-05
-2.71658e-09
1.53341e-05
-8.31768e-09
1.53346e-05
-1.36694e-08
1.53347e-05
-1.88573e-08
1.53344e-05
-2.45137e-08
1.53334e-05
-3.11048e-08
1.53317e-05
-3.88102e-08
1.5329e-05
-4.78111e-08
1.53253e-05
-5.83778e-08
1.53202e-05
-7.08077e-08
1.53135e-05
-8.54328e-08
1.53049e-05
-1.02704e-07
1.52942e-05
-1.23239e-07
1.52808e-05
-1.47835e-07
1.52642e-05
-1.77498e-07
1.52436e-05
-2.13437e-07
1.52183e-05
-2.57086e-07
1.5187e-05
-3.10127e-07
1.51486e-05
-3.7454e-07
1.51014e-05
-4.52647e-07
1.50433e-05
-5.47166e-07
1.49719e-05
-6.61244e-07
1.48841e-05
-7.98452e-07
1.47761e-05
-9.62711e-07
1.46429e-05
-1.1581e-06
1.44782e-05
-1.38839e-06
1.42738e-05
-1.65563e-06
1.40178e-05
-1.95936e-06
1.36955e-05
-2.29316e-06
-2.63932e-06
1.32756e-05
1.53336e-05
-3.01794e-09
1.53344e-05
-9.06544e-09
1.5335e-05
-1.42852e-08
1.53351e-05
-1.89731e-08
1.53347e-05
-2.40537e-08
1.53335e-05
-2.99731e-08
1.53315e-05
-3.68289e-08
1.53285e-05
-4.47865e-08
1.53243e-05
-5.41153e-08
1.53185e-05
-6.50828e-08
1.53111e-05
-7.79747e-08
1.53016e-05
-9.32006e-08
1.52896e-05
-1.11307e-07
1.52748e-05
-1.32991e-07
1.52564e-05
-1.59133e-07
1.52338e-05
-1.90792e-07
1.52059e-05
-2.29218e-07
1.51717e-05
-2.75878e-07
1.51296e-05
-3.32489e-07
1.5078e-05
-4.01061e-07
1.50148e-05
-4.83925e-07
1.49373e-05
-5.83758e-07
1.48424e-05
-7.03555e-07
1.47262e-05
-8.4651e-07
1.4584e-05
-1.01586e-06
1.44098e-05
-1.21424e-06
1.41962e-05
-1.44202e-06
1.39326e-05
-1.6958e-06
1.36073e-05
-1.96786e-06
-2.22744e-06
1.31955e-05
1.53338e-05
-3.48836e-09
1.53349e-05
-1.01222e-08
1.53356e-05
-1.50377e-08
1.53357e-05
-1.90881e-08
1.53352e-05
-2.3542e-08
1.5334e-05
-2.87162e-08
1.53318e-05
-3.46236e-08
1.53284e-05
-4.14379e-08
1.53237e-05
-4.94259e-08
1.53174e-05
-5.88115e-08
1.53093e-05
-6.98269e-08
1.52989e-05
-8.28457e-08
1.5286e-05
-9.83362e-08
1.52699e-05
-1.16886e-07
1.525e-05
-1.39244e-07
1.52255e-05
-1.66308e-07
1.51954e-05
-1.99138e-07
1.51585e-05
-2.38971e-07
1.51133e-05
-2.87256e-07
1.50579e-05
-3.45681e-07
1.49902e-05
-4.16192e-07
1.49074e-05
-5.01008e-07
1.48064e-05
-6.02569e-07
1.46833e-05
-7.23405e-07
1.45336e-05
-8.66118e-07
1.43519e-05
-1.03254e-06
1.41317e-05
-1.22181e-06
1.3864e-05
-1.42814e-06
1.35405e-05
-1.64439e-06
-1.83121e-06
1.31443e-05
1.53341e-05
-4.26778e-09
1.53356e-05
-1.16567e-08
1.53365e-05
-1.59141e-08
1.53366e-05
-1.92059e-08
1.53361e-05
-2.3003e-08
1.53347e-05
-2.73511e-08
1.53323e-05
-3.22213e-08
1.53287e-05
-3.7811e-08
1.53237e-05
-4.43734e-08
1.53169e-05
-5.20702e-08
1.53082e-05
-6.10836e-08
1.52971e-05
-7.17623e-08
1.52832e-05
-8.44785e-08
1.5266e-05
-9.97069e-08
1.52449e-05
-1.18059e-07
1.52188e-05
-1.40264e-07
1.51869e-05
-1.67181e-07
1.51477e-05
-1.99814e-07
1.50998e-05
-2.39336e-07
1.50412e-05
-2.87107e-07
1.49697e-05
-3.44691e-07
1.48826e-05
-4.13865e-07
1.47765e-05
-4.96542e-07
1.46478e-05
-5.94623e-07
1.4492e-05
-7.10341e-07
1.43047e-05
-8.45211e-07
1.40804e-05
-9.97599e-07
1.38119e-05
-1.15963e-06
1.3495e-05
-1.32746e-06
-1.45554e-06
1.31193e-05
1.53347e-05
-5.60803e-09
1.53369e-05
-1.38887e-08
1.53379e-05
-1.69165e-08
1.53381e-05
-1.9413e-08
1.53376e-05
-2.24985e-08
1.53362e-05
-2.5905e-08
1.53336e-05
-2.96545e-08
1.53297e-05
-3.39548e-08
1.53244e-05
-3.90369e-08
1.53173e-05
-4.495e-08
1.5308e-05
-5.18457e-08
1.52964e-05
-6.00831e-08
1.52818e-05
-6.98985e-08
1.52637e-05
-8.16573e-08
1.52415e-05
-9.58292e-08
1.52142e-05
-1.12969e-07
1.51808e-05
-1.33729e-07
1.51398e-05
-1.58875e-07
1.50898e-05
-1.893e-07
1.50287e-05
-2.26043e-07
1.49543e-05
-2.70287e-07
1.48639e-05
-3.23399e-07
1.47541e-05
-3.868e-07
1.46213e-05
-4.6184e-07
1.44617e-05
-5.50745e-07
1.42719e-05
-6.55339e-07
1.40476e-05
-7.73367e-07
1.37824e-05
-8.94435e-07
1.3477e-05
-1.02205e-06
-1.10071e-06
1.31222e-05
1.53357e-05
-8.01786e-09
1.53386e-05
-1.67159e-08
1.53396e-05
-1.7961e-08
1.534e-05
-1.9836e-08
1.53396e-05
-2.20675e-08
1.53381e-05
-2.4413e-08
1.53354e-05
-2.69848e-08
1.53314e-05
-2.99195e-08
1.53259e-05
-3.34875e-08
1.53185e-05
-3.75688e-08
1.53089e-05
-4.22474e-08
1.52968e-05
-4.79659e-08
1.52816e-05
-5.47825e-08
1.5263e-05
-6.29668e-08
1.524e-05
-7.2839e-08
1.52118e-05
-8.47749e-08
1.51773e-05
-9.92239e-08
1.51351e-05
-1.16718e-07
1.50837e-05
-1.37885e-07
1.50211e-05
-1.63461e-07
1.49451e-05
-1.94295e-07
1.48531e-05
-2.31375e-07
1.4742e-05
-2.75703e-07
1.46085e-05
-3.28292e-07
1.44491e-05
-3.91394e-07
1.42608e-05
-4.67027e-07
1.40391e-05
-5.517e-07
1.37779e-05
-6.33256e-07
1.34797e-05
-7.23763e-07
-7.48367e-07
1.31273e-05
1.53394e-05
-1.41061e-08
1.53423e-05
-1.95986e-08
1.53431e-05
-1.87599e-08
1.53429e-05
-1.95969e-08
1.53417e-05
-2.08758e-08
1.53394e-05
-2.21137e-08
1.53358e-05
-2.34398e-08
1.53309e-05
-2.49519e-08
1.53242e-05
-2.68474e-08
1.53156e-05
-2.89781e-08
1.53048e-05
-3.139e-08
1.52912e-05
-3.44214e-08
1.52745e-05
-3.80428e-08
1.52539e-05
-4.24161e-08
1.52288e-05
-4.77272e-08
1.51982e-05
-5.41923e-08
1.51611e-05
-6.20731e-08
1.51161e-05
-7.16831e-08
1.50616e-05
-8.33945e-08
1.49958e-05
-9.7647e-08
1.49164e-05
-1.14954e-07
1.48209e-05
-1.35892e-07
1.47063e-05
-1.61073e-07
1.45691e-05
-1.91053e-07
1.44032e-05
-2.25517e-07
1.41997e-05
-2.63576e-07
1.39544e-05
-3.06384e-07
1.36722e-05
-3.51011e-07
1.33454e-05
-3.96969e-07
-3.37636e-07
1.29346e-05
1.53192e-05
1.52996e-05
1.52809e-05
1.52613e-05
1.52404e-05
1.52183e-05
1.51948e-05
1.51699e-05
1.5143e-05
1.51141e-05
1.50827e-05
1.50483e-05
1.50102e-05
1.49678e-05
1.49201e-05
1.48659e-05
1.48038e-05
1.47321e-05
1.46487e-05
1.45511e-05
1.44361e-05
1.43002e-05
1.41392e-05
1.39481e-05
1.37226e-05
1.3459e-05
1.31526e-05
1.28016e-05
1.24046e-05
1.2067e-05
1.79002e-05
-8.35035e-06
8.60667e-06
1.76666e-05
-8.50948e-06
8.74307e-06
1.73997e-05
-8.6694e-06
8.93633e-06
1.70989e-05
-8.82178e-06
9.12258e-06
1.67698e-05
-8.97433e-06
9.30337e-06
1.64184e-05
-9.13158e-06
9.48301e-06
1.60482e-05
-9.29516e-06
9.66538e-06
1.56614e-05
-9.46606e-06
9.85286e-06
1.52591e-05
-9.64512e-06
1.00474e-05
1.48416e-05
-9.83283e-06
1.02504e-05
1.44082e-05
-1.00294e-05
1.04628e-05
1.39578e-05
-1.0235e-05
1.06854e-05
1.34893e-05
-1.04502e-05
1.09186e-05
1.30017e-05
-1.06757e-05
1.11632e-05
1.2494e-05
-1.09127e-05
1.14204e-05
1.19649e-05
-1.11628e-05
1.16918e-05
1.14133e-05
-1.14277e-05
1.19794e-05
1.08374e-05
-1.17099e-05
1.22857e-05
1.02353e-05
-1.20119e-05
1.26141e-05
9.6042e-06
-1.23374e-05
1.29685e-05
8.94093e-06
-1.26906e-05
1.33539e-05
8.24119e-06
-1.30769e-05
1.37767e-05
7.49929e-06
-1.35034e-05
1.42453e-05
6.70788e-06
-1.39787e-05
1.47701e-05
5.85604e-06
-1.4514e-05
1.53658e-05
4.93167e-06
-1.51237e-05
1.60481e-05
3.9189e-06
-1.58261e-05
1.68389e-05
2.7433e-06
-1.66639e-05
1.78395e-05
1.53824e-06
-1.75169e-05
1.8722e-05
-1.90091e-05
2.05474e-05
1.80833e-05
-8.08104e-06
1.77788e-05
-8.20497e-06
1.74463e-05
-8.33686e-06
1.70957e-05
-8.47119e-06
1.67318e-05
-8.61047e-06
1.63569e-05
-8.75664e-06
1.59715e-05
-8.90981e-06
1.55753e-05
-9.0698e-06
1.51669e-05
-9.2367e-06
1.47447e-05
-9.4107e-06
1.43074e-05
-9.59207e-06
1.38537e-05
-9.78127e-06
1.33825e-05
-9.97903e-06
1.28931e-05
-1.01863e-05
1.23846e-05
-1.04041e-05
1.18557e-05
-1.06339e-05
1.13052e-05
-1.08772e-05
1.07313e-05
-1.11359e-05
1.01318e-05
-1.14125e-05
9.50415e-06
-1.17097e-05
8.84484e-06
-1.20313e-05
8.14955e-06
-1.23817e-05
7.41262e-06
-1.27664e-05
6.62657e-06
-1.31926e-05
5.78146e-06
-1.36689e-05
4.86437e-06
-1.42067e-05
3.85671e-06
-1.48185e-05
2.72332e-06
-1.55305e-05
1.49642e-06
-1.629e-05
-1.75127e-05
1.79689e-05
-7.76651e-06
1.76395e-05
-7.87552e-06
1.72965e-05
-7.99392e-06
1.69443e-05
-8.11901e-06
1.65837e-05
-8.2498e-06
1.62131e-05
-8.38612e-06
1.58313e-05
-8.52794e-06
1.54368e-05
-8.6753e-06
1.50286e-05
-8.82849e-06
1.46058e-05
-8.98792e-06
1.41678e-05
-9.15406e-06
1.3714e-05
-9.32747e-06
1.32437e-05
-9.5088e-06
1.27563e-05
-9.69883e-06
1.22506e-05
-9.89845e-06
1.17255e-05
-1.01087e-05
1.11792e-05
-1.0331e-05
1.06102e-05
-1.05669e-05
1.00161e-05
-1.08183e-05
9.39407e-06
-1.10877e-05
8.74076e-06
-1.1378e-05
8.05172e-06
-1.16926e-05
7.32123e-06
-1.20359e-05
6.54194e-06
-1.24133e-05
5.70416e-06
-1.28311e-05
4.79507e-06
-1.32976e-05
3.79771e-06
-1.38211e-05
2.68599e-06
-1.44188e-05
1.4578e-06
-1.50619e-05
-1.60549e-05
1.786e-05
-7.44096e-06
1.75249e-05
-7.54047e-06
1.71792e-05
-7.64823e-06
1.68238e-05
-7.76354e-06
1.64583e-05
-7.88433e-06
1.60818e-05
-8.00959e-06
1.56934e-05
-8.13952e-06
1.52926e-05
-8.27455e-06
1.48791e-05
-8.41502e-06
1.44525e-05
-8.56124e-06
1.4012e-05
-8.71358e-06
1.3557e-05
-8.87246e-06
1.30866e-05
-9.03839e-06
1.25997e-05
-9.212e-06
1.20953e-05
-9.39405e-06
1.15721e-05
-9.58546e-06
1.10284e-05
-9.78731e-06
1.04624e-05
-1.00009e-05
9.8719e-06
-1.02278e-05
9.25409e-06
-1.04699e-05
8.60547e-06
-1.07294e-05
7.92166e-06
-1.10088e-05
7.19708e-06
-1.13114e-05
6.4246e-06
-1.16408e-05
5.59499e-06
-1.20015e-05
4.69623e-06
-1.23988e-05
3.71273e-06
-1.28376e-05
2.62323e-06
-1.33293e-05
1.41189e-06
-1.38505e-05
-1.4643e-05
1.77169e-05
-7.10621e-06
1.73737e-05
-7.19727e-06
1.70209e-05
-7.29542e-06
1.66587e-05
-7.40134e-06
1.6287e-05
-7.5126e-06
1.59051e-05
-7.62773e-06
1.55125e-05
-7.74693e-06
1.51087e-05
-7.87074e-06
1.46931e-05
-7.99944e-06
1.42651e-05
-8.13323e-06
1.38239e-05
-8.27236e-06
1.33686e-05
-8.41723e-06
1.28985e-05
-8.56829e-06
1.24126e-05
-8.72605e-06
1.19097e-05
-8.89115e-06
1.13885e-05
-9.0643e-06
1.08476e-05
-9.24635e-06
1.02849e-05
-9.43829e-06
9.69837e-06
-9.64127e-06
9.08506e-06
-9.85661e-06
8.44158e-06
-1.00859e-05
7.76366e-06
-1.03309e-05
7.0459e-06
-1.05936e-05
6.28154e-06
-1.08765e-05
5.46191e-06
-1.11819e-05
4.57596e-06
-1.15129e-05
3.6095e-06
-1.18711e-05
2.54374e-06
-1.22635e-05
1.35908e-06
-1.26659e-05
-1.32839e-05
1.7543e-05
-6.764e-06
1.71931e-05
-6.84737e-06
1.68346e-05
-6.93686e-06
1.64673e-05
-7.03407e-06
1.6091e-05
-7.13633e-06
1.57051e-05
-7.24187e-06
1.53091e-05
-7.35087e-06
1.49023e-05
-7.46392e-06
1.44842e-05
-7.58132e-06
1.40541e-05
-7.70317e-06
1.36114e-05
-7.8297e-06
1.31554e-05
-7.96122e-06
1.26852e-05
-8.09808e-06
1.21998e-05
-8.24069e-06
1.16982e-05
-8.3895e-06
1.11789e-05
-8.54504e-06
1.06405e-05
-8.70791e-06
1.0081e-05
-8.8788e-06
9.49822e-06
-9.05848e-06
8.88941e-06
-9.2478e-06
8.25124e-06
-9.44772e-06
7.57962e-06
-9.65925e-06
6.86944e-06
-9.88344e-06
6.11438e-06
-1.01214e-05
5.30646e-06
-1.03739e-05
4.43568e-06
-1.06421e-05
3.48923e-06
-1.09247e-05
2.4508e-06
-1.12251e-05
1.30075e-06
-1.15158e-05
-1.19832e-05
1.7338e-05
-6.41514e-06
1.69821e-05
-6.49142e-06
1.66181e-05
-6.57292e-06
1.6246e-05
-6.6619e-06
1.58652e-05
-6.75557e-06
1.54753e-05
-6.852e-06
1.50758e-05
-6.95134e-06
1.46661e-05
-7.05424e-06
1.42458e-05
-7.16094e-06
1.38141e-05
-7.2715e-06
1.33704e-05
-7.38607e-06
1.29141e-05
-7.50486e-06
1.24441e-05
-7.62814e-06
1.19596e-05
-7.75619e-06
1.14595e-05
-7.88931e-06
1.09423e-05
-8.02785e-06
1.04065e-05
-8.17218e-06
9.85044e-06
-8.3227e-06
9.27178e-06
-8.47983e-06
8.66795e-06
-8.64397e-06
8.03576e-06
-8.81552e-06
7.37134e-06
-8.99483e-06
6.66996e-06
-9.18206e-06
5.92579e-06
-9.37724e-06
5.13161e-06
-9.57976e-06
4.27853e-06
-9.78901e-06
3.35522e-06
-1.00014e-05
2.34779e-06
-1.02177e-05
1.23841e-06
-1.04064e-05
-1.07448e-05
1.71024e-05
-6.06031e-06
1.67411e-05
-6.13005e-06
1.63723e-05
-6.20415e-06
1.59958e-05
-6.28536e-06
1.56111e-05
-6.37089e-06
1.52178e-05
-6.45871e-06
1.48154e-05
-6.54893e-06
1.44033e-05
-6.64221e-06
1.39812e-05
-6.73876e-06
1.35482e-05
-6.83858e-06
1.31039e-05
-6.94172e-06
1.26474e-05
-7.04835e-06
1.21779e-05
-7.15863e-06
1.16944e-05
-7.27271e-06
1.11959e-05
-7.39077e-06
1.0681e-05
-7.51297e-06
1.01483e-05
-7.63946e-06
9.59594e-06
-7.77037e-06
9.02192e-06
-7.9058e-06
8.4237e-06
-8.04575e-06
7.79831e-06
-8.19013e-06
7.14216e-06
-8.33868e-06
6.45092e-06
-8.49082e-06
5.71933e-06
-8.64565e-06
4.94098e-06
-8.8014e-06
4.10807e-06
-8.95611e-06
3.21085e-06
-9.10416e-06
2.23778e-06
-9.2446e-06
1.17365e-06
-9.3423e-06
-9.57112e-06
1.68376e-05
-5.70018e-06
1.64714e-05
-5.76387e-06
1.60984e-05
-5.83112e-06
1.5718e-05
-5.905e-06
1.53299e-05
-5.98281e-06
1.49337e-05
-6.06247e-06
1.45288e-05
-6.14408e-06
1.41149e-05
-6.22825e-06
1.36913e-05
-6.31517e-06
1.32575e-05
-6.40477e-06
1.28128e-05
-6.49705e-06
1.23565e-05
-6.59208e-06
1.18878e-05
-6.68995e-06
1.14058e-05
-6.7907e-06
1.09094e-05
-6.89435e-06
1.03973e-05
-7.00089e-06
9.86816e-06
-7.1103e-06
9.32023e-06
-7.22244e-06
8.75157e-06
-7.33713e-06
8.15984e-06
-7.45403e-06
7.54231e-06
-7.5726e-06
6.89571e-06
-7.69207e-06
6.21612e-06
-7.81123e-06
5.4989e-06
-7.92843e-06
4.73846e-06
-8.04096e-06
3.92811e-06
-8.14575e-06
3.05964e-06
-8.2357e-06
2.12373e-06
-8.30869e-06
1.10794e-06
-8.3265e-06
-8.46319e-06
1.65456e-05
-5.3354e-06
1.61753e-05
-5.39351e-06
1.57986e-05
-5.45444e-06
1.5415e-05
-5.52142e-06
1.50241e-05
-5.59191e-06
1.46255e-05
-5.66386e-06
1.42187e-05
-5.73733e-06
1.38034e-05
-5.81289e-06
1.33789e-05
-5.89068e-06
1.29447e-05
-5.97059e-06
1.25002e-05
-6.05256e-06
1.20447e-05
-6.13658e-06
1.15774e-05
-6.22264e-06
1.10974e-05
-6.31068e-06
1.06036e-05
-6.4006e-06
1.0095e-05
-6.49224e-06
9.57006e-06
-6.58538e-06
9.02732e-06
-6.6797e-06
8.46491e-06
-6.77473e-06
7.88071e-06
-6.86983e-06