/*--------------------------------*- C++ -*----------------------------------*\
  =========                 |
  \\      /  F ield         | OpenFOAM: The Open Source CFD Toolbox
   \\    /   O peration     | Website:  https://openfoam.org
    \\  /    A nd           | Version:  11
     \\/     M anipulation  |
\*---------------------------------------------------------------------------*/
FoamFile
{
    format      ascii;
    class       volVectorField;
    location    "4.5";
    object      U;
}
// * * * * * * * * * * * * * * * * * * * * * * * * * * * * * * * * * * * * * //

dimensions      [0 1 -1 0 0 0 0];

internalField   nonuniform List<vector> 
12600
(
(0.41228 6.60349e-05 0)
(0.412158 0.00012623 0)
(0.411947 0.000144341 0)
(0.411695 0.000145244 0)
(0.411455 0.000140935 0)
(0.411243 0.000132289 0)
(0.411064 0.000120953 0)
(0.410925 0.00010723 0)
(0.410834 9.00072e-05 0)
(0.410802 5.95211e-05 0)
(0.410843 2.07894e-05 0)
(0.410967 -1.72831e-05 0)
(0.411181 -4.6735e-05 0)
(0.411495 -7.98644e-05 0)
(0.411921 -0.00011906 0)
(0.412474 -0.000167675 0)
(0.413178 -0.000227648 0)
(0.414056 -0.000298428 0)
(0.415134 -0.000381268 0)
(0.416443 -0.000479115 0)
(0.418023 -0.000595256 0)
(0.419923 -0.000733057 0)
(0.422198 -0.0008961 0)
(0.424916 -0.00108754 0)
(0.428154 -0.00131104 0)
(0.431992 -0.00156712 0)
(0.436533 -0.00187239 0)
(0.441856 -0.00216101 0)
(0.448092 -0.0026982 0)
(0.456213 -0.00231231 0)
(0.412479 9.36779e-05 0)
(0.412552 0.000206949 0)
(0.412637 0.000203753 0)
(0.412671 0.000195265 0)
(0.412704 0.000178835 0)
(0.412751 0.000151945 0)
(0.41282 0.000114352 0)
(0.412917 6.59762e-05 0)
(0.413052 6.27107e-06 0)
(0.413236 -6.26215e-05 0)
(0.413477 -0.000141072 0)
(0.413786 -0.000233003 0)
(0.414182 -0.000342094 0)
(0.414682 -0.000467614 0)
(0.415309 -0.000608841 0)
(0.416077 -0.000766846 0)
(0.416976 -0.000944901 0)
(0.418027 -0.00114828 0)
(0.419255 -0.00138309 0)
(0.420685 -0.00165614 0)
(0.422349 -0.00197559 0)
(0.424286 -0.00235115 0)
(0.426543 -0.00279386 0)
(0.429181 -0.00331518 0)
(0.432272 -0.00392654 0)
(0.4359 -0.00463565 0)
(0.440158 -0.00546802 0)
(0.445157 -0.00634545 0)
(0.450998 -0.00760919 0)
(0.457812 -0.00764893 0)
(0.412468 5.0777e-05 0)
(0.412499 0.00010626 0)
(0.412545 0.000118624 0)
(0.412582 0.000113843 0)
(0.412615 9.61388e-05 0)
(0.412658 6.18361e-05 0)
(0.412723 8.42015e-06 0)
(0.412818 -6.22691e-05 0)
(0.412954 -0.000150781 0)
(0.413142 -0.000259764 0)
(0.413392 -0.000390692 0)
(0.413714 -0.000544147 0)
(0.414121 -0.000720879 0)
(0.414619 -0.000923398 0)
(0.415219 -0.00115234 0)
(0.415935 -0.0014061 0)
(0.416785 -0.00168877 0)
(0.417786 -0.00201052 0)
(0.418957 -0.00238087 0)
(0.420325 -0.00280969 0)
(0.421919 -0.00330989 0)
(0.423779 -0.00389763 0)
(0.425953 -0.00459163 0)
(0.428499 -0.00541217 0)
(0.431487 -0.00638097 0)
(0.43501 -0.00751513 0)
(0.439138 -0.00884898 0)
(0.444072 -0.0103132 0)
(0.449667 -0.01224 0)
(0.457015 -0.013137 0)
(0.412464 3.50049e-05 0)
(0.412482 9.21986e-05 0)
(0.412513 0.000120022 0)
(0.412544 0.000117623 0)
(0.412573 9.76511e-05 0)
(0.412611 5.20011e-05 0)
(0.41267 -1.89024e-05 0)
(0.412761 -0.000116965 0)
(0.412892 -0.000242023 0)
(0.413072 -0.000394386 0)
(0.413311 -0.000574476 0)
(0.41362 -0.000783358 0)
(0.414008 -0.00102288 0)
(0.414484 -0.00129523 0)
(0.415058 -0.00160207 0)
(0.415743 -0.00194571 0)
(0.416553 -0.00233221 0)
(0.417506 -0.00277164 0)
(0.418619 -0.00327622 0)
(0.419916 -0.00386078 0)
(0.421427 -0.00454376 0)
(0.42319 -0.00534734 0)
(0.425251 -0.00629729 0)
(0.427669 -0.00742223 0)
(0.430511 -0.00875406 0)
(0.433873 -0.0103198 0)
(0.437824 -0.0121679 0)
(0.442595 -0.0142358 0)
(0.447996 -0.0168748 0)
(0.45534 -0.0186494 0)
(0.412462 2.84423e-05 0)
(0.412472 7.5964e-05 0)
(0.412491 9.83564e-05 0)
(0.412513 9.26149e-05 0)
(0.412539 6.01154e-05 0)
(0.412575 -4.89441e-07 0)
(0.412631 -9.06528e-05 0)
(0.412716 -0.000213964 0)
(0.412839 -0.000371515 0)
(0.413008 -0.000563603 0)
(0.413234 -0.000790929 0)
(0.413524 -0.00105455 0)
(0.413888 -0.00135589 0)
(0.414335 -0.00169694 0)
(0.414874 -0.00208037 0)
(0.415517 -0.00251033 0)
(0.416276 -0.00299418 0)
(0.417165 -0.00354312 0)
(0.418204 -0.00417188 0)
(0.419412 -0.00489911 0)
(0.420818 -0.00574822 0)
(0.422456 -0.00674772 0)
(0.424371 -0.00793124 0)
(0.426618 -0.0093369 0)
(0.429264 -0.0110077 0)
(0.432406 -0.012984 0)
(0.436113 -0.0153275 0)
(0.440641 -0.017999 0)
(0.445757 -0.0213368 0)
(0.452987 -0.0240611 0)
(0.412461 2.47336e-05 0)
(0.412466 6.55615e-05 0)
(0.412479 8.55256e-05 0)
(0.412497 7.88601e-05 0)
(0.412519 4.29101e-05 0)
(0.412551 -2.67286e-05 0)
(0.412602 -0.000134187 0)
(0.412681 -0.000281138 0)
(0.412795 -0.000468682 0)
(0.412952 -0.000697298 0)
(0.41316 -0.000967536 0)
(0.413429 -0.00128029 0)
(0.413766 -0.001637 0)
(0.414178 -0.00203989 0)
(0.414675 -0.00249233 0)
(0.415267 -0.00299966 0)
(0.415963 -0.00357053 0)
(0.416777 -0.00421781 0)
(0.417724 -0.00495891 0)
(0.418824 -0.00581632 0)
(0.4201 -0.00681832 0)
(0.421584 -0.00799945 0)
(0.423317 -0.00940089 0)
(0.425352 -0.0110702 0)
(0.427751 -0.0130622 0)
(0.430613 -0.0154322 0)
(0.434002 -0.0182578 0)
(0.4382 -0.0215297 0)
(0.442931 -0.0255726 0)
(0.44993 -0.0292867 0)
(0.412461 2.27375e-05 0)
(0.412463 5.94681e-05 0)
(0.412472 7.61122e-05 0)
(0.412485 6.65171e-05 0)
(0.412504 2.39584e-05 0)
(0.412532 -5.78685e-05 0)
(0.412578 -0.000182425 0)
(0.412649 -0.000352103 0)
(0.412753 -0.000568264 0)
(0.412895 -0.000831417 0)
(0.413085 -0.001142 0)
(0.413328 -0.0015008 0)
(0.413633 -0.00190926 0)
(0.414006 -0.00236971 0)
(0.414454 -0.002886 0)
(0.414985 -0.00346429 0)
(0.415609 -0.0041143 0)
(0.416336 -0.00485023 0)
(0.417178 -0.0056916 0)
(0.418152 -0.00666403 0)
(0.419278 -0.00780015 0)
(0.420583 -0.00914031 0)
(0.422103 -0.0107333 0)
(0.423887 -0.0126365 0)
(0.42599 -0.0149173 0)
(0.42851 -0.0176479 0)
(0.431503 -0.0209242 0)
(0.435273 -0.0247734 0)
(0.439508 -0.0295075 0)
(0.446131 -0.0342447 0)
(0.41246 2.17471e-05 0)
(0.412462 5.58621e-05 0)
(0.412467 6.84687e-05 0)
(0.412478 5.67044e-05 0)
(0.412493 8.30116e-06 0)
(0.412517 -8.38937e-05 0)
(0.412558 -0.000223567 0)
(0.412621 -0.000413308 0)
(0.412713 -0.000654544 0)
(0.41284 -0.000947837 0)
(0.413008 -0.00129359 0)
(0.413224 -0.0016925 0)
(0.413494 -0.00214587 0)
(0.413822 -0.00265608 0)
(0.414216 -0.00322716 0)
(0.414682 -0.00386578 0)
(0.415225 -0.00458243 0)
(0.415854 -0.00539254 0)
(0.41658 -0.00631757 0)
(0.417412 -0.007386 0)
(0.41837 -0.00863435 0)
(0.419473 -0.0101082 0)
(0.420751 -0.0118635 0)
(0.422245 -0.0139669 0)
(0.424004 -0.0164987 0)
(0.42612 -0.0195488 0)
(0.428639 -0.0232339 0)
(0.431876 -0.0276236 0)
(0.435488 -0.0330216 0)
(0.441549 -0.0388039 0)
(0.41246 2.13837e-05 0)
(0.412461 5.35022e-05 0)
(0.412465 6.25216e-05 0)
(0.412473 4.91845e-05 0)
(0.412484 -4.75643e-06 0)
(0.412505 -0.000106674 0)
(0.412541 -0.000259957 0)
(0.412595 -0.000467542 0)
(0.412675 -0.000731037 0)
(0.412785 -0.00105104 0)
(0.412931 -0.00142782 0)
(0.413117 -0.00186189 0)
(0.413348 -0.00235436 0)
(0.413629 -0.00290748 0)
(0.413964 -0.00352534 0)
(0.414357 -0.00421488 0)
(0.414813 -0.00498704 0)
(0.415337 -0.00585808 0)
(0.415935 -0.00685077 0)
(0.416616 -0.0079957 0)
(0.417389 -0.00933245 0)
(0.41827 -0.010911 0)
(0.419282 -0.0127935 0)
(0.420455 -0.0150554 0)
(0.421827 -0.0177892 0)
(0.42348 -0.021103 0)
(0.425445 -0.0251357 0)
(0.428038 -0.0300045 0)
(0.430889 -0.0360087 0)
(0.43616 -0.0428234 0)
(0.41246 2.13021e-05 0)
(0.41246 5.17035e-05 0)
(0.412463 5.81812e-05 0)
(0.412469 4.35334e-05 0)
(0.412478 -1.57229e-05 0)
(0.412496 -0.000126074 0)
(0.412526 -0.000291009 0)
(0.412572 -0.000513854 0)
(0.412639 -0.000796268 0)
(0.412731 -0.00113877 0)
(0.412852 -0.00154145 0)
(0.413007 -0.00200459 0)
(0.413198 -0.00252904 0)
(0.413429 -0.00311681 0)
(0.413702 -0.00377182 0)
(0.414019 -0.00450092 0)
(0.414383 -0.00531518 0)
(0.414796 -0.00623121 0)
(0.41526 -0.00727263 0)
(0.415778 -0.00847138 0)
(0.416356 -0.00986929 0)
(0.417002 -0.0115197 0)
(0.417727 -0.0134894 0)
(0.418552 -0.0158614 0)
(0.419501 -0.0187391 0)
(0.420638 -0.0222473 0)
(0.421976 -0.0265475 0)
(0.423812 -0.0318064 0)
(0.425757 -0.0383234 0)
(0.42997 -0.0461039 0)
(0.41246 2.14553e-05 0)
(0.41246 5.01939e-05 0)
(0.412463 5.49018e-05 0)
(0.412467 3.92391e-05 0)
(0.412474 -2.48371e-05 0)
(0.412489 -0.000142149 0)
(0.412513 -0.000316714 0)
(0.41255 -0.000552071 0)
(0.412604 -0.000849883 0)
(0.412678 -0.00121055 0)
(0.412775 -0.00163396 0)
(0.412897 -0.00212008 0)
(0.413046 -0.00266941 0)
(0.413225 -0.00328358 0)
(0.413434 -0.00396614 0)
(0.413673 -0.00472359 0)
(0.413942 -0.00556675 0)
(0.41424 -0.00651213 0)
(0.414565 -0.00758345 0)
(0.414917 -0.00881314 0)
(0.415293 -0.010244 0)
(0.415694 -0.0119312 0)
(0.416121 -0.0139446 0)
(0.41658 -0.0163725 0)
(0.417078 -0.0193264 0)
(0.417655 -0.0229454 0)
(0.418304 -0.027411 0)
(0.419276 -0.032938 0)
(0.420178 -0.0398278 0)
(0.423038 -0.0484304 0)
(0.41246 2.15626e-05 0)
(0.41246 4.90806e-05 0)
(0.412462 5.24974e-05 0)
(0.412466 3.55903e-05 0)
(0.412472 -3.23122e-05 0)
(0.412483 -0.000155089 0)
(0.412502 -0.000337138 0)
(0.412531 -0.000582149 0)
(0.412572 -0.000891731 0)
(0.412627 -0.0012661 0)
(0.412699 -0.00170487 0)
(0.412788 -0.00220764 0)
(0.412895 -0.00277448 0)
(0.413021 -0.00340649 0)
(0.413165 -0.00410665 0)
(0.413324 -0.00488083 0)
(0.413497 -0.00573921 0)
(0.413679 -0.00669762 0)
(0.413865 -0.00777916 0)
(0.414049 -0.00901576 0)
(0.414222 -0.0104499 0)
(0.414376 -0.0121369 0)
(0.414499 -0.0141475 0)
(0.414584 -0.0165719 0)
(0.414616 -0.0195264 0)
(0.414608 -0.0231596 0)
(0.414522 -0.0276677 0)
(0.414544 -0.0333063 0)
(0.414286 -0.0403783 0)
(0.415497 -0.0495625 0)
(0.41246 2.15327e-05 0)
(0.412461 4.78146e-05 0)
(0.412463 5.0554e-05 0)
(0.412465 3.25755e-05 0)
(0.412471 -3.83097e-05 0)
(0.41248 -0.000165091 0)
(0.412494 -0.000352461 0)
(0.412514 -0.000604214 0)
(0.412542 -0.000921852 0)
(0.412579 -0.00130536 0)
(0.412626 -0.00175405 0)
(0.412682 -0.0022671 0)
(0.412747 -0.00284404 0)
(0.41282 -0.00348536 0)
(0.412899 -0.00419324 0)
(0.41298 -0.00497271 0)
(0.413058 -0.00583286 0)
(0.413126 -0.00678835 0)
(0.413175 -0.0078609 0)
(0.413193 -0.00908087 0)
(0.413167 -0.010489 0)
(0.413078 -0.0121387 0)
(0.412903 -0.0140988 0)
(0.412616 -0.0164581 0)
(0.412184 -0.0193326 0)
(0.411584 -0.0228736 0)
(0.410745 -0.0272835 0)
(0.409762 -0.0328454 0)
(0.408264 -0.039858 0)
(0.407571 -0.0492759 0)
(0.41246 2.13762e-05 0)
(0.412461 4.65013e-05 0)
(0.412463 4.87079e-05 0)
(0.412466 2.96969e-05 0)
(0.412471 -4.31853e-05 0)
(0.412478 -0.00017245 0)
(0.412487 -0.000362964 0)
(0.4125 -0.000618532 0)
(0.412516 -0.000940499 0)
(0.412535 -0.00132859 0)
(0.412557 -0.00178178 0)
(0.412581 -0.00229877 0)
(0.412605 -0.00287853 0)
(0.412626 -0.00352078 0)
(0.412642 -0.0042268 0)
(0.412646 -0.00500045 0)
(0.412632 -0.00584945 0)
(0.412589 -0.00678672 0)
(0.412507 -0.00783185 0)
(0.412367 -0.00901257 0)
(0.412151 -0.0103664 0)
(0.41183 -0.0119427 0)
(0.411371 -0.0138055 0)
(0.410731 -0.0160382 0)
(0.409854 -0.0187505 0)
(0.408679 -0.022088 0)
(0.407102 -0.0262481 0)
(0.405109 -0.0315212 0)
(0.402352 -0.0381909 0)
(0.399591 -0.0473922 0)
(0.41246 2.09624e-05 0)
(0.412462 4.48826e-05 0)
(0.412464 4.67857e-05 0)
(0.412468 2.67491e-05 0)
(0.412472 -4.72397e-05 0)
(0.412478 -0.000177498 0)
(0.412483 -0.000368993 0)
(0.412488 -0.000625479 0)
(0.412492 -0.000948097 0)
(0.412494 -0.00133629 0)
(0.412493 -0.00178866 0)
(0.412485 -0.00230345 0)
(0.41247 -0.00287897 0)
(0.412442 -0.00351413 0)
(0.412397 -0.00420915 0)
(0.412328 -0.00496656 0)
(0.412226 -0.00579235 0)
(0.41208 -0.00669725 0)
(0.411874 -0.00769802 0)
(0.411587 -0.00881877 0)
(0.411195 -0.0100923 0)
(0.410662 -0.011562 0)
(0.409944 -0.0132843 0)
(0.408981 -0.0153324 0)
(0.407696 -0.0178037 0)
(0.405994 -0.0208288 0)
(0.403733 -0.024586 0)
(0.400784 -0.0293491 0)
(0.396827 -0.0353696 0)
(0.391981 -0.0438304 0)
(0.41246 2.03244e-05 0)
(0.412462 4.28617e-05 0)
(0.412465 4.4457e-05 0)
(0.41247 2.34369e-05 0)
(0.412475 -5.0838e-05 0)
(0.412479 -0.000180631 0)
(0.412481 -0.000370995 0)
(0.412479 -0.000625571 0)
(0.412473 -0.000945252 0)
(0.412459 -0.00132918 0)
(0.412435 -0.00177561 0)
(0.412398 -0.00228229 0)
(0.412345 -0.00284688 0)
(0.41227 -0.00346742 0)
(0.412168 -0.00414299 0)
(0.412031 -0.00487463 0)
(0.411848 -0.00566637 0)
(0.411606 -0.00652634 0)
(0.411287 -0.00746791 0)
(0.410869 -0.00851068 0)
(0.41032 -0.00968154 0)
(0.4096 -0.0110159 0)
(0.408656 -0.0125597 0)
(0.407414 -0.0143725 0)
(0.40578 -0.0165329 0)
(0.403624 -0.0191469 0)
(0.400775 -0.0223598 0)
(0.396992 -0.0264021 0)
(0.391983 -0.0314731 0)
(0.385227 -0.0386489 0)
(0.41246 1.93626e-05 0)
(0.412463 4.02567e-05 0)
(0.412467 4.15461e-05 0)
(0.412473 1.95018e-05 0)
(0.412478 -5.43085e-05 0)
(0.412482 -0.00018223 0)
(0.412481 -0.000369445 0)
(0.412474 -0.00061941 0)
(0.412457 -0.000932705 0)
(0.412428 -0.00130821 0)
(0.412383 -0.00174383 0)
(0.412319 -0.00223685 0)
(0.412231 -0.00278428 0)
(0.412113 -0.0033833 0)
(0.411958 -0.00403181 0)
(0.411758 -0.00472926 0)
(0.411502 -0.00547756 0)
(0.411174 -0.006282 0)
(0.410757 -0.00715209 0)
(0.410224 -0.0081023 0)
(0.409542 -0.00915256 0)
(0.408666 -0.0103289 0)
(0.407537 -0.0116646 0)
(0.406072 -0.0132019 0)
(0.404162 -0.0149955 0)
(0.401653 -0.0171189 0)
(0.39835 -0.0196713 0)
(0.393923 -0.0228151 0)
(0.388102 -0.0266779 0)
(0.379817 -0.0320757 0)
(0.412461 1.80927e-05 0)
(0.412464 3.70834e-05 0)
(0.412469 3.76629e-05 0)
(0.412476 1.45777e-05 0)
(0.412483 -5.79898e-05 0)
(0.412487 -0.000182684 0)
(0.412484 -0.000364863 0)
(0.412471 -0.000607661 0)
(0.412445 -0.00091131 0)
(0.412403 -0.00127446 0)
(0.412339 -0.00169472 0)
(0.41225 -0.00216896 0)
(0.412129 -0.00269357 0)
(0.411972 -0.00326489 0)
(0.411769 -0.00387968 0)
(0.411513 -0.0045358 0)
(0.411192 -0.00523297 0)
(0.410791 -0.0059735 0)
(0.410289 -0.00676284 0)
(0.409661 -0.00760989 0)
(0.408872 -0.00852703 0)
(0.407876 -0.00952998 0)
(0.406609 -0.0106378 0)
(0.404984 -0.0118731 0)
(0.402885 -0.0132632 0)
(0.400144 -0.0148429 0)
(0.396554 -0.0166564 0)
(0.391724 -0.0187788 0)
(0.385412 -0.0212514 0)
(0.376166 -0.0245077 0)
(0.412461 1.62014e-05 0)
(0.412465 3.31627e-05 0)
(0.412472 3.28675e-05 0)
(0.41248 8.57131e-06 0)
(0.412489 -6.22193e-05 0)
(0.412493 -0.000182599 0)
(0.412489 -0.000357954 0)
(0.412472 -0.000591055 0)
(0.412438 -0.000881956 0)
(0.412384 -0.00122911 0)
(0.412303 -0.00162985 0)
(0.412191 -0.00208064 0)
(0.412041 -0.00257738 0)
(0.411848 -0.00311563 0)
(0.411604 -0.0036911 0)
(0.411299 -0.00430011 0)
(0.410922 -0.00494028 0)
(0.410458 -0.00561094 0)
(0.409888 -0.00631347 0)
(0.409186 -0.00705111 0)
(0.408319 -0.00782851 0)
(0.407239 -0.00865073 0)
(0.405884 -0.00952206 0)
(0.404168 -0.0104446 0)
(0.401975 -0.0114168 0)
(0.399134 -0.0124319 0)
(0.39544 -0.013475 0)
(0.390485 -0.0145247 0)
(0.38405 -0.0155301 0)
(0.374534 -0.0164746 0)
(0.412461 1.40321e-05 0)
(0.412466 2.8312e-05 0)
(0.412474 2.66181e-05 0)
(0.412485 1.06549e-06 0)
(0.412496 -6.72982e-05 0)
(0.412501 -0.000182402 0)
(0.412496 -0.00034926 0)
(0.412476 -0.000570318 0)
(0.412436 -0.000845617 0)
(0.41237 -0.00117345 0)
(0.412274 -0.00155088 0)
(0.412142 -0.00197409 0)
(0.411967 -0.00243856 0)
(0.411743 -0.00293922 0)
(0.411462 -0.00347084 0)
(0.411116 -0.0040284 0)
(0.410692 -0.00460754 0)
(0.410179 -0.00520484 0)
(0.409556 -0.00581777 0)
(0.408802 -0.00644419 0)
(0.407883 -0.00708129 0)
(0.406756 -0.0077238 0)
(0.405364 -0.00836175 0)
(0.403625 -0.00897731 0)
(0.401433 -0.00954078 0)
(0.398626 -0.010005 0)
(0.395015 -0.0102978 0)
(0.390217 -0.0103022 0)
(0.384042 -0.00988117 0)
(0.374979 -0.00857307 0)
(0.412461 1.13039e-05 0)
(0.412467 2.23222e-05 0)
(0.412478 1.88865e-05 0)
(0.412491 -8.21985e-06 0)
(0.412505 -7.36759e-05 0)
(0.412511 -0.000182404 0)
(0.412506 -0.000339192 0)
(0.412483 -0.000546209 0)
(0.412437 -0.000803376 0)
(0.412363 -0.00110886 0)
(0.412254 -0.00145958 0)
(0.412104 -0.00185156 0)
(0.411907 -0.00227998 0)
(0.411656 -0.00273934 0)
(0.411345 -0.00322365 0)
(0.410964 -0.00372678 0)
(0.410503 -0.00424269 0)
(0.409951 -0.00476552 0)
(0.409292 -0.00528929 0)
(0.408504 -0.005807 0)
(0.40756 -0.00630909 0)
(0.406423 -0.00678107 0)
(0.40504 -0.00720007 0)
(0.403344 -0.00753045 0)
(0.40124 -0.0077174 0)
(0.398591 -0.00767799 0)
(0.395237 -0.00728993 0)
(0.390856 -0.00635355 0)
(0.385291 -0.00465546 0)
(0.377335 -0.00133564 0)
(0.412462 8.17537e-06 0)
(0.412469 1.50271e-05 0)
(0.412482 9.04548e-06 0)
(0.412499 -1.96113e-05 0)
(0.412515 -8.15459e-05 0)
(0.412523 -0.000183019 0)
(0.412518 -0.000328371 0)
(0.412494 -0.00051951 0)
(0.412444 -0.000756235 0)
(0.412362 -0.00103667 0)
(0.412242 -0.00135772 0)
(0.412077 -0.00171535 0)
(0.411861 -0.00210461 0)
(0.411588 -0.00251971 0)
(0.411251 -0.0029542 0)
(0.410842 -0.00340111 0)
(0.410353 -0.00385312 0)
(0.409774 -0.00430241 0)
(0.409092 -0.00474014 0)
(0.408289 -0.00515533 0)
(0.407344 -0.00553285 0)
(0.406226 -0.00585054 0)
(0.404895 -0.00607502 0)
(0.403296 -0.00615613 0)
(0.401356 -0.00601897 0)
(0.398972 -0.00555231 0)
(0.39602 -0.00459575 0)
(0.392274 -0.00288998 0)
(0.387625 -0.000158197 0)
(0.381241 0.00469634 0)
(0.412462 4.37483e-06 0)
(0.41247 6.31361e-06 0)
(0.412486 -3.58213e-06 0)
(0.412507 -3.30703e-05 0)
(0.412527 -9.12294e-05 0)
(0.412537 -0.000184673 0)
(0.412533 -0.000317332 0)
(0.412508 -0.000490871 0)
(0.412455 -0.00070505 0)
(0.412367 -0.000958064 0)
(0.412238 -0.00124693 0)
(0.412061 -0.00156768 0)
(0.411829 -0.0019154 0)
(0.411538 -0.00228426 0)
(0.41118 -0.00266759 0)
(0.41075 -0.00305795 0)
(0.41024 -0.00344715 0)
(0.409644 -0.00382598 0)
(0.408951 -0.00418352 0)
(0.408149 -0.00450582 0)
(0.407222 -0.00477366 0)
(0.406148 -0.0049593 0)
(0.404901 -0.00502184 0)
(0.403444 -0.00490089 0)
(0.401728 -0.00450779 0)
(0.399686 -0.00371231 0)
(0.397241 -0.00232877 0)
(0.394281 -5.4576e-05 0)
(0.390719 0.0033788 0)
(0.386226 0.00918589 0)
(0.412462 6.57466e-09 0)
(0.412472 -5.00663e-06 0)
(0.412493 -1.90876e-05 0)
(0.412518 -4.89894e-05 0)
(0.412541 -0.000103121 0)
(0.412554 -0.000187843 0)
(0.412552 -0.000306684 0)
(0.412526 -0.000461061 0)
(0.412471 -0.000650722 0)
(0.412379 -0.000874005 0)
(0.412242 -0.00112813 0)
(0.412054 -0.00140938 0)
(0.41181 -0.00171307 0)
(0.411504 -0.0020336 0)
(0.41113 -0.00236442 0)
(0.410684 -0.00269804 0)
(0.410161 -0.00302593 0)
(0.409555 -0.00333815 0)
(0.408861 -0.0036226 0)
(0.408071 -0.00386355 0)
(0.407177 -0.00403935 0)
(0.406167 -0.00411908 0)
(0.405027 -0.00405768 0)
(0.40374 -0.00378944 0)
(0.402285 -0.0032191 0)
(0.400637 -0.00220801 0)
(0.398771 -0.000561634 0)
(0.39666 0.00203746 0)
(0.394267 0.0058427 0)
(0.391767 0.0120539 0)
(0.412463 -5.68884e-06 0)
(0.412475 -1.90956e-05 0)
(0.412501 -3.7809e-05 0)
(0.412532 -6.75767e-05 0)
(0.412559 -0.00011725 0)
(0.412575 -0.000192882 0)
(0.412575 -0.000297301 0)
(0.41255 -0.000431657 0)
(0.412494 -0.000595851 0)
(0.412398 -0.000788486 0)
(0.412255 -0.00100705 0)
(0.41206 -0.00124811 0)
(0.411806 -0.00150735 0)
(0.411488 -0.00177957 0)
(0.411102 -0.00205861 0)
(0.410645 -0.0023373 0)
(0.410113 -0.00260726 0)
(0.409504 -0.00285851 0)
(0.408815 -0.00307867 0)
(0.408046 -0.00325153 0)
(0.407194 -0.00335488 0)
(0.406258 -0.00335712 0)
(0.405237 -0.00321249 0)
(0.404135 -0.00285487 0)
(0.402956 -0.00218962 0)
(0.401716 -0.00108076 0)
(0.400439 0.000658815 0)
(0.399192 0.00331908 0)
(0.397964 0.00717857 0)
(0.397364 0.013251 0)
(0.412464 -1.26737e-05 0)
(0.412481 -3.80015e-05 0)
(0.412514 -6.12418e-05 0)
(0.412551 -8.93954e-05 0)
(0.412582 -0.00013283 0)
(0.412602 -0.000197268 0)
(0.412603 -0.000284868 0)
(0.41258 -0.000396488 0)
(0.412523 -0.000532098 0)
(0.412424 -0.000690617 0)
(0.412277 -0.000870016 0)
(0.412076 -0.00106747 0)
(0.411814 -0.00127932 0)
(0.411488 -0.00150108 0)
(0.411093 -0.00172734 0)
(0.410627 -0.00195165 0)
(0.410091 -0.00216632 0)
(0.409483 -0.00236193 0)
(0.408805 -0.00252662 0)
(0.40806 -0.00264479 0)
(0.407254 -0.00269529 0)
(0.406394 -0.00264841 0)
(0.405495 -0.00246139 0)
(0.404575 -0.00207241 0)
(0.403666 -0.00139383 0)
(0.402819 -0.000301801 0)
(0.402097 0.00137346 0)
(0.401653 0.00388152 0)
(0.401513 0.00748464 0)
(0.402599 0.0129569 0)
(0.412466 -2.29681e-05 0)
(0.412491 -6.19319e-05 0)
(0.412535 -9.05455e-05 0)
(0.41258 -0.000120886 0)
(0.412616 -0.000161951 0)
(0.412639 -0.00021746 0)
(0.412644 -0.00028969 0)
(0.412622 -0.000380144 0)
(0.412565 -0.00048904 0)
(0.412466 -0.000615362 0)
(0.412316 -0.000757314 0)
(0.41211 -0.000912628 0)
(0.411843 -0.00107835 0)
(0.41151 -0.00125084 0)
(0.411109 -0.00142571 0)
(0.410639 -0.00159766 0)
(0.4101 -0.00176018 0)
(0.409496 -0.00190521 0)
(0.408831 -0.00202245 0)
(0.408113 -0.00209831 0)
(0.407352 -0.00211433 0)
(0.406566 -0.00204454 0)
(0.405779 -0.00185159 0)
(0.405028 -0.00148185 0)
(0.404366 -0.000860631 0)
(0.403872 0.000114677 0)
(0.403645 0.00158514 0)
(0.403902 0.00375996 0)
(0.404701 0.00685614 0)
(0.407169 0.0113475 0)
(0.41247 -4.2328e-05 0)
(0.412509 -8.78063e-05 0)
(0.412566 -0.000105379 0)
(0.412617 -0.000125868 0)
(0.412658 -0.000160386 0)
(0.412686 -0.000204017 0)
(0.412694 -0.000257078 0)
(0.412674 -0.000321729 0)
(0.412618 -0.000398907 0)
(0.412518 -0.000488128 0)
(0.412368 -0.000588278 0)
(0.41216 -0.000697829 0)
(0.411891 -0.000814848 0)
(0.411556 -0.000936876 0)
(0.411154 -0.00106081 0)
(0.410686 -0.00118272 0)
(0.410152 -0.0012976 0)
(0.409558 -0.00139887 0)
(0.408912 -0.00147778 0)
(0.408224 -0.00152318 0)
(0.407512 -0.00152119 0)
(0.406799 -0.00145312 0)
(0.406119 -0.00129076 0)
(0.405522 -0.000990884 0)
(0.405072 -0.000492643 0)
(0.404874 0.000285324 0)
(0.405057 0.00143091 0)
(0.405872 0.00311933 0)
(0.407414 0.00550102 0)
(0.410878 0.00878356 0)
(0.412479 -9.22859e-05 0)
(0.412561 -0.000178201 0)
(0.412669 -0.000197691 0)
(0.412706 -0.000212409 0)
(0.412725 -0.000235449 0)
(0.412731 -0.000265525 0)
(0.412716 -0.000301238 0)
(0.412673 -0.000343214 0)
(0.412596 -0.000392 0)
(0.412478 -0.000447701 0)
(0.412313 -0.000508831 0)
(0.412096 -0.000575306 0)
(0.41182 -0.000645618 0)
(0.411481 -0.000718445 0)
(0.411077 -0.000792122 0)
(0.410607 -0.000864399 0)
(0.410072 -0.00093227 0)
(0.409477 -0.000991692 0)
(0.408832 -0.00103721 0)
(0.408152 -0.00106162 0)
(0.40746 -0.00105555 0)
(0.406784 -0.0010061 0)
(0.406162 -0.000894366 0)
(0.405648 -0.00069225 0)
(0.405327 -0.000360202 0)
(0.405326 0.000158215 0)
(0.405806 0.000919115 0)
(0.406882 0.00203602 0)
(0.408988 0.00360667 0)
(0.412413 0.00562702 0)
(0.412281 -6.32633e-05 0)
(0.412167 -0.000134598 0)
(0.411965 -0.000150596 0)
(0.411709 -0.000156713 0)
(0.411437 -0.000165077 0)
(0.411149 -0.000177131 0)
(0.410832 -0.000192754 0)
(0.410477 -0.000211714 0)
(0.410077 -0.000233496 0)
(0.409627 -0.000257171 0)
(0.409121 -0.000282345 0)
(0.408556 -0.000308505 0)
(0.407926 -0.000335054 0)
(0.407231 -0.000361322 0)
(0.406469 -0.000386643 0)
(0.405642 -0.00041045 0)
(0.404753 -0.000432241 0)
(0.403808 -0.000451459 0)
(0.402816 -0.000467215 0)
(0.401792 -0.000477532 0)
(0.400759 -0.000478303 0)
(0.399749 -0.000462883 0)
(0.398813 -0.000422782 0)
(0.398021 -0.000348121 0)
(0.397472 -0.000226585 0)
(0.397304 -3.76297e-05 0)
(0.397723 0.000249252 0)
(0.399017 0.000663571 0)
(0.401568 0.00128533 0)
(0.40619 0.00181282 0)
(0.459127 -0.00477998 -8.21505e-20)
(0.462331 -0.00717149 -8.25596e-20)
(0.465112 -0.0101269 -1.17756e-18)
(0.467248 -0.0134254 -3.39906e-19)
(0.469033 -0.0169864 3.45158e-19)
(0.470628 -0.0207721 0)
(0.47203 -0.0247803 0)
(0.473277 -0.029037 3.59553e-19)
(0.474423 -0.0335711 -3.65965e-19)
(0.475505 -0.0384074 -7.41173e-19)
(0.476541 -0.0435723 7.5508e-19)
(0.47753 -0.0490984 0)
(0.478463 -0.0550279 -7.76713e-19)
(0.479334 -0.0614145 7.92431e-19)
(0.480135 -0.068326 0)
(0.480865 -0.0758457 1.62911e-18)
(0.481521 -0.0840758 8.26552e-19)
(0.482097 -0.0931424 8.33044e-19)
(0.482583 -0.103202 8.49976e-19)
(0.482964 -0.114453 8.52019e-19)
(0.483216 -0.127147 -8.68813e-19)
(0.483306 -0.14161 2.64319e-18)
(0.483175 -0.158272 0)
(0.482758 -0.177692 -1.7544e-18)
(0.481863 -0.200662 8.61363e-19)
(0.480385 -0.228173 -1.74063e-18)
(0.477691 -0.261515 -2.47771e-18)
(0.472835 -0.304922 0)
(0.467697 -0.347142 0)
(0.44552 -0.448695 -2.24522e-19)
(0.462654 -0.0109297 -1.34102e-18)
(0.46457 -0.0136575 0)
(0.466094 -0.0169142 0)
(0.467235 -0.0204011 -1.39573e-18)
(0.468258 -0.0240529 1.4168e-18)
(0.469166 -0.0278943 1.43853e-18)
(0.470065 -0.0319637 -3.64197e-19)
(0.470914 -0.0362906 3.70819e-19)
(0.471724 -0.040895 1.13334e-18)
(0.472497 -0.0457962 1.91792e-18)
(0.473213 -0.0510218 -7.7718e-19)
(0.473851 -0.0566103 1.59101e-18)
(0.474396 -0.0626108 8.06766e-19)
(0.474837 -0.0690827 8.2827e-19)
(0.475168 -0.0760969 8.36136e-19)
(0.475379 -0.0837383 1.70805e-18)
(0.475454 -0.0921093 0)
(0.475371 -0.101335 -8.77204e-19)
(0.4751 -0.111573 -9.059e-19)
(0.474599 -0.123017 0)
(0.47381 -0.135914 9.18903e-19)
(0.472657 -0.150581 9.53661e-19)
(0.471022 -0.167427 -1.92342e-18)
(0.468757 -0.186978 0)
(0.46556 -0.209966 9.41822e-19)
(0.461212 -0.237244 9.86015e-19)
(0.454716 -0.270192 -1.93776e-18)
(0.445669 -0.31112 8.56993e-19)
(0.433827 -0.354595 -8.95303e-19)
(0.405961 -0.44531 3.28111e-19)
(0.461139 -0.0166836 1.36617e-18)
(0.462267 -0.0193509 0)
(0.463198 -0.0225301 -1.75633e-19)
(0.464058 -0.0259724 3.03652e-18)
(0.464894 -0.0296186 -1.0865e-18)
(0.465712 -0.0334817 -2.20878e-18)
(0.466485 -0.0375843 1.87791e-18)
(0.467183 -0.0419379 -3.80641e-19)
(0.467793 -0.0465582 -1.15887e-18)
(0.468305 -0.0514729 -3.83798e-19)
(0.468707 -0.0567194 4.0221e-19)
(0.46899 -0.0623428 -2.44977e-18)
(0.469145 -0.0683937 1.66874e-18)
(0.469163 -0.0749307 -2.54631e-18)
(0.469031 -0.0820222 0)
(0.468726 -0.0897513 -1.76138e-18)
(0.468218 -0.0982187 0)
(0.467468 -0.107549 0)
(0.466424 -0.117894 1.86809e-18)
(0.465022 -0.129446 0)
(0.463172 -0.142441 0)
(0.460755 -0.157178 -1.97502e-18)
(0.4576 -0.174044 2.00726e-18)
(0.453484 -0.19352 0)
(0.448013 -0.216271 0)
(0.440848 -0.243039 -2.06545e-18)
(0.430769 -0.275128 8.95275e-19)
(0.417682 -0.31375 -5.7357e-19)
(0.399079 -0.35751 -5.32133e-19)
(0.366438 -0.437424 0)
(0.459287 -0.0226321 -4.36144e-20)
(0.460108 -0.0253812 -4.42776e-20)
(0.460764 -0.0286061 1.35569e-18)
(0.461433 -0.0320772 -2.93209e-18)
(0.462072 -0.0357417 1.86434e-19)
(0.462626 -0.0396097 3.7885e-19)
(0.463076 -0.0437055 -3.75977e-19)
(0.463418 -0.0480517 0)
(0.46365 -0.0526744 2.00794e-18)
(0.463769 -0.0576062 -3.67403e-18)
(0.463765 -0.0628843 1.67291e-18)
(0.463626 -0.0685494 8.48805e-19)
(0.463336 -0.0746482 -2.61249e-18)
(0.462873 -0.0812365 0)
(0.462209 -0.0883818 0)
(0.461309 -0.0961664 1.86634e-18)
(0.460128 -0.10469 1.91121e-18)
(0.458613 -0.114073 9.68566e-19)
(0.456695 -0.124462 -3.45207e-21)
(0.454284 -0.136038 -1.02018e-18)
(0.45126 -0.149021 0)
(0.447464 -0.163689 0)
(0.442674 -0.180391 -1.14133e-18)
(0.436603 -0.199557 -3.42825e-18)
(0.428783 -0.221765 0)
(0.418769 -0.247635 -1.26217e-18)
(0.405193 -0.278309 2.30013e-18)
(0.388172 -0.314376 -4.39744e-18)
(0.363163 -0.356497 6.33715e-19)
(0.327209 -0.425456 0)
(0.456666 -0.0284224 0)
(0.457163 -0.0311897 1.45897e-18)
(0.457476 -0.0343946 -1.29231e-18)
(0.457843 -0.0378403 1.31478e-18)
(0.458182 -0.0414881 1.9172e-19)
(0.458411 -0.0453515 -1.95427e-19)
(0.45852 -0.049454 -1.58745e-18)
(0.45852 -0.053817 0)
(0.458404 -0.0584636 1.50725e-20)
(0.458159 -0.0634218 1.68492e-18)
(0.457765 -0.0687251 -2.15286e-18)
(0.4572 -0.0744126 2.22089e-18)
(0.45644 -0.0805314 2.25005e-18)
(0.455454 -0.0871375 -4.62964e-19)
(0.454208 -0.0942983 2.86064e-18)
(0.452656 -0.102093 -1.91317e-18)
(0.450745 -0.110618 -1.99973e-18)
(0.448406 -0.119984 -1.02584e-18)
(0.445551 -0.13033 0)
(0.442066 -0.14182 0)
(0.437803 -0.154656 0)
(0.432567 -0.169085 1.15227e-18)
(0.426096 -0.185413 3.5807e-18)
(0.418047 -0.204009 1.19022e-18)
(0.407897 -0.225358 2.55372e-18)
(0.395112 -0.249953 -1.47669e-18)
(0.378259 -0.278749 2.84577e-18)
(0.357509 -0.311904 -2.25187e-19)
(0.326881 -0.3511 2.39288e-18)
(0.288793 -0.409509 4.01111e-18)
(0.453292 -0.034029 -1.47268e-18)
(0.453479 -0.0368206 -1.4912e-18)
(0.453464 -0.0400271 -1.53072e-18)
(0.453536 -0.0434737 0)
(0.453583 -0.0471263 0)
(0.453498 -0.0509953 -1.62277e-18)
(0.45327 -0.0551004 0)
(0.452912 -0.0594615 1.27212e-18)
(0.452415 -0.0641016 -3.01321e-18)
(0.451757 -0.0690495 1.77133e-18)
(0.450912 -0.074339 1.36349e-18)
(0.449857 -0.0800098 -3.69349e-18)
(0.448563 -0.086108 -2.79246e-22)
(0.446993 -0.0926872 -1.47357e-18)
(0.445103 -0.0998106 3.47585e-20)
(0.442841 -0.107552 -2.03407e-18)
(0.440138 -0.115999 -4.37753e-20)
(0.436911 -0.125255 2.20526e-18)
(0.433053 -0.135443 -1.15427e-18)
(0.428432 -0.146711 -1.16265e-18)
(0.422874 -0.159236 2.45024e-18)
(0.416155 -0.17323 0)
(0.407977 -0.188949 -2.5588e-18)
(0.397957 -0.206695 0)
(0.385534 -0.226851 -2.91834e-18)
(0.370104 -0.249791 2.91093e-18)
(0.350235 -0.276249 2.01442e-19)
(0.326049 -0.306087 3.22313e-18)
(0.290765 -0.341286 -4.28439e-18)
(0.251245 -0.389715 1.39429e-18)
(0.449108 -0.0393665 1.4584e-18)
(0.448977 -0.0421742 -4.82605e-20)
(0.448619 -0.0453705 1.86227e-18)
(0.448371 -0.0487998 6.06114e-19)
(0.448097 -0.0524316 0)
(0.447665 -0.0562763 1.66558e-18)
(0.447062 -0.060353 1.28862e-18)
(0.446307 -0.0646823 -2.17835e-18)
(0.445389 -0.0692872 8.79387e-19)
(0.444279 -0.0741954 -8.99908e-19)
(0.442949 -0.0794389 -1.87108e-18)
(0.441369 -0.0850548 1.92006e-18)
(0.439504 -0.0910852 -5.05664e-19)
(0.437312 -0.0975797 1.51737e-18)
(0.434739 -0.104596 -4.9569e-19)
(0.431721 -0.112201 -5.42979e-19)
(0.42818 -0.120473 3.3605e-18)
(0.42402 -0.129504 -3.47761e-18)
(0.41912 -0.139402 2.38158e-18)
(0.413329 -0.150292 6.45649e-19)
(0.406453 -0.162323 -1.92068e-18)
(0.398246 -0.175667 1.39139e-18)
(0.388386 -0.190528 0)
(0.376459 -0.207137 -7.55313e-19)
(0.361888 -0.225773 3.90496e-18)
(0.344016 -0.246691 0)
(0.321478 -0.270397 -6.29022e-18)
(0.29427 -0.296549 9.76373e-19)
(0.255415 -0.326978 0)
(0.215306 -0.366178 -4.45256e-18)
(0.444049 -0.0443005 -7.82862e-19)
(0.443586 -0.0471121 -9.96165e-20)
(0.442871 -0.0502812 -6.15148e-19)
(0.442284 -0.0536722 -9.31582e-19)
(0.441668 -0.0572601 2.12656e-19)
(0.440867 -0.0610552 -2.17318e-19)
(0.439868 -0.065076 -8.854e-19)
(0.438691 -0.0693417 -9.19841e-19)