/*--------------------------------*- C++ -*----------------------------------*\
  =========                 |
  \\      /  F ield         | OpenFOAM: The Open Source CFD Toolbox
   \\    /   O peration     | Website:  https://openfoam.org
    \\  /    A nd           | Version:  11
     \\/     M anipulation  |
\*---------------------------------------------------------------------------*/
FoamFile
{
    format      ascii;
    class       volVectorField;
    location    "4.5";
    object      U;
}
// * * * * * * * * * * * * * * * * * * * * * * * * * * * * * * * * * * * * * //

dimensions      [0 1 -1 0 0 0 0];

internalField   nonuniform List<vector> 
12600
(
(0.412112 0.000108037 0)
(0.41184 0.000182334 0)
(0.411423 0.000192193 0)
(0.410947 0.000195343 0)
(0.410473 0.000199957 0)
(0.410007 0.000203313 0)
(0.409544 0.000205189 0)
(0.409082 0.000206345 0)
(0.408621 0.000207 0)
(0.408165 0.000207141 0)
(0.407713 0.000206795 0)
(0.407267 0.000205982 0)
(0.406829 0.000204679 0)
(0.406401 0.000202766 0)
(0.405983 0.000200051 0)
(0.40558 0.000196318 0)
(0.405195 0.000191555 0)
(0.404832 0.00018556 0)
(0.404498 0.000177629 0)
(0.404197 0.000167271 0)
(0.403938 0.000154522 0)
(0.403733 0.000138903 0)
(0.403596 0.000121023 0)
(0.403541 9.95324e-05 0)
(0.403591 6.95365e-05 0)
(0.403775 2.29735e-05 0)
(0.404137 -4.26874e-05 0)
(0.404737 -0.000123352 0)
(0.405751 -0.000245267 0)
(0.406043 -0.000820227 0)
(0.412491 0.000154938 0)
(0.41264 0.000283902 0)
(0.41277 0.000266319 0)
(0.412815 0.000259927 0)
(0.412853 0.000263607 0)
(0.412898 0.000264118 0)
(0.412945 0.000262094 0)
(0.412994 0.000259158 0)
(0.413045 0.000255645 0)
(0.413099 0.000251491 0)
(0.413158 0.000246596 0)
(0.413222 0.000240812 0)
(0.413293 0.000233916 0)
(0.413373 0.00022556 0)
(0.413462 0.000215315 0)
(0.413565 0.000202589 0)
(0.413684 0.000186611 0)
(0.413823 0.000166324 0)
(0.413987 0.000143141 0)
(0.414181 0.000115689 0)
(0.414413 7.99156e-05 0)
(0.41469 3.54066e-05 0)
(0.415025 -2.08325e-05 0)
(0.415432 -9.28943e-05 0)
(0.41593 -0.000182405 0)
(0.41653 -0.000293742 0)
(0.417294 -0.000433303 0)
(0.41813 -0.000640425 0)
(0.419363 -0.000893262 0)
(0.419439 -0.00182531 0)
(0.41248 8.42212e-05 0)
(0.412553 0.000153583 0)
(0.412642 0.000162073 0)
(0.412705 0.00016599 0)
(0.41275 0.000172939 0)
(0.412793 0.000176095 0)
(0.412839 0.000175083 0)
(0.412888 0.000172306 0)
(0.41294 0.000168284 0)
(0.412995 0.000163068 0)
(0.413055 0.000156613 0)
(0.413121 0.00014871 0)
(0.413193 0.000139155 0)
(0.413271 0.000127306 0)
(0.413359 0.000112441 0)
(0.413456 9.39088e-05 0)
(0.413568 7.06772e-05 0)
(0.413697 4.22486e-05 0)
(0.413849 6.63797e-06 0)
(0.414029 -3.98133e-05 0)
(0.414245 -9.75234e-05 0)
(0.414503 -0.000167296 0)
(0.414813 -0.000253141 0)
(0.415187 -0.000359913 0)
(0.415643 -0.000493392 0)
(0.416199 -0.000665042 0)
(0.416881 -0.000883238 0)
(0.417704 -0.00117715 0)
(0.418692 -0.00155203 0)
(0.419812 -0.00191191 0)
(0.412472 5.59053e-05 0)
(0.412521 0.000134259 0)
(0.412593 0.000164734 0)
(0.412652 0.000176868 0)
(0.412695 0.000187087 0)
(0.412737 0.000193361 0)
(0.412781 0.000192022 0)
(0.412829 0.000188414 0)
(0.412879 0.000182861 0)
(0.412933 0.000175582 0)
(0.412991 0.000166651 0)
(0.413055 0.000155946 0)
(0.413125 0.000143087 0)
(0.413202 0.000127426 0)
(0.413287 0.000108127 0)
(0.413382 8.29202e-05 0)
(0.413491 5.08356e-05 0)
(0.413616 1.13147e-05 0)
(0.413763 -3.73282e-05 0)
(0.413938 -9.76893e-05 0)
(0.414146 -0.000172168 0)
(0.414394 -0.000265005 0)
(0.414692 -0.000380453 0)
(0.415052 -0.000524479 0)
(0.415488 -0.000705311 0)
(0.41602 -0.00093417 0)
(0.416667 -0.00122343 0)
(0.417462 -0.00158737 0)
(0.418407 -0.00205051 0)
(0.419637 -0.00242982 0)
(0.412468 4.0195e-05 0)
(0.412501 0.000104307 0)
(0.412556 0.000133893 0)
(0.412608 0.000143319 0)
(0.41265 0.000148133 0)
(0.412691 0.000150198 0)
(0.412734 0.000147861 0)
(0.41278 0.000141309 0)
(0.412829 0.000132132 0)
(0.412882 0.000121307 0)
(0.412939 0.000108894 0)
(0.413002 9.44656e-05 0)
(0.413069 7.81463e-05 0)
(0.413144 5.85359e-05 0)
(0.413226 3.34123e-05 0)
(0.413318 1.77482e-06 0)
(0.413424 -3.86381e-05 0)
(0.413546 -8.82594e-05 0)
(0.413688 -0.000149203 0)
(0.413855 -0.000224485 0)
(0.414053 -0.000317865 0)
(0.414289 -0.000433717 0)
(0.414572 -0.000577062 0)
(0.414912 -0.00075535 0)
(0.415325 -0.000978536 0)
(0.415827 -0.00125921 0)
(0.416435 -0.00161316 0)
(0.417192 -0.00205145 0)
(0.418083 -0.00261142 0)
(0.419328 -0.00315229 0)
(0.412466 2.96232e-05 0)
(0.412489 8.09884e-05 0)
(0.412533 0.000110651 0)
(0.412579 0.00012367 0)
(0.41262 0.000130868 0)
(0.412659 0.000134832 0)
(0.412701 0.000133636 0)
(0.412746 0.000127671 0)
(0.412794 0.000118468 0)
(0.412845 0.000107 0)
(0.412901 9.35067e-05 0)
(0.412961 7.77415e-05 0)
(0.413027 5.88941e-05 0)
(0.413099 3.59864e-05 0)
(0.413179 7.82428e-06 0)
(0.413267 -2.75413e-05 0)
(0.413368 -7.31253e-05 0)
(0.413484 -0.000131122 0)
(0.413618 -0.000203435 0)
(0.413776 -0.000292858 0)
(0.413963 -0.000403251 0)
(0.414185 -0.000539543 0)
(0.41445 -0.000708147 0)
(0.414768 -0.000917844 0)
(0.415152 -0.00118019 0)
(0.415618 -0.00150939 0)
(0.416182 -0.0019242 0)
(0.416888 -0.00243691 0)
(0.417715 -0.0030971 0)
(0.418912 -0.00378884 0)
(0.412464 2.22961e-05 0)
(0.412482 6.33312e-05 0)
(0.412517 9.08783e-05 0)
(0.412558 0.000104745 0)
(0.412597 0.000111202 0)
(0.412634 0.000113071 0)
(0.412674 0.000109689 0)
(0.412717 0.00010127 0)
(0.412764 8.91315e-05 0)
(0.412814 7.44161e-05 0)
(0.412867 5.75478e-05 0)
(0.412925 3.83169e-05 0)
(0.412989 1.59504e-05 0)
(0.413058 -1.11876e-05 0)
(0.413134 -4.5048e-05 0)
(0.413218 -8.7621e-05 0)
(0.413313 -0.000140909 0)
(0.413423 -0.000207692 0)
(0.413549 -0.000290575 0)
(0.413697 -0.000392819 0)
(0.413871 -0.000518835 0)
(0.414076 -0.000674307 0)
(0.414321 -0.000866595 0)
(0.414613 -0.00110549 0)
(0.414963 -0.00140389 0)
(0.415389 -0.00177768 0)
(0.415901 -0.00224818 0)
(0.416546 -0.00283248 0)
(0.417297 -0.00358313 0)
(0.418407 -0.00442692 0)
(0.412463 1.6882e-05 0)
(0.412477 4.93385e-05 0)
(0.412506 7.33524e-05 0)
(0.412542 8.66438e-05 0)
(0.412579 9.2397e-05 0)
(0.412615 9.30717e-05 0)
(0.412653 8.86904e-05 0)
(0.412695 7.93497e-05 0)
(0.41274 6.61069e-05 0)
(0.412788 5.00925e-05 0)
(0.41284 3.17956e-05 0)
(0.412896 1.09006e-05 0)
(0.412956 -1.32656e-05 0)
(0.413022 -4.24939e-05 0)
(0.413094 -7.90335e-05 0)
(0.413173 -0.000125329 0)
(0.413263 -0.000183843 0)
(0.413365 -0.000257542 0)
(0.413482 -0.000349376 0)
(0.413618 -0.000462838 0)
(0.413777 -0.000602588 0)
(0.413964 -0.000774767 0)
(0.414186 -0.000987466 0)
(0.414449 -0.00125145 0)
(0.414763 -0.00158093 0)
(0.415142 -0.0019936 0)
(0.415597 -0.00251332 0)
(0.416169 -0.00316231 0)
(0.416831 -0.00399484 0)
(0.417828 -0.00497571 0)
(0.412463 1.26294e-05 0)
(0.412474 3.78863e-05 0)
(0.412499 5.7954e-05 0)
(0.412531 6.9913e-05 0)
(0.412565 7.48245e-05 0)
(0.412599 7.42985e-05 0)
(0.412636 6.85826e-05 0)
(0.412676 5.77998e-05 0)
(0.412719 4.28454e-05 0)
(0.412766 2.48248e-05 0)
(0.412815 4.30089e-06 0)
(0.412869 -1.9042e-05 0)
(0.412926 -4.61071e-05 0)
(0.412988 -7.86258e-05 0)
(0.413055 -0.000119053 0)
(0.41313 -0.000170085 0)
(0.413213 -0.000234452 0)
(0.413306 -0.00031519 0)
(0.413413 -0.000415557 0)
(0.413537 -0.000539358 0)
(0.41368 -0.000691544 0)
(0.413847 -0.000878694 0)
(0.414044 -0.00110955 0)
(0.414275 -0.00139569 0)
(0.414549 -0.00175243 0)
(0.414878 -0.00219897 0)
(0.415269 -0.00276127 0)
(0.41576 -0.0034666 0)
(0.416321 -0.00436895 0)
(0.417182 -0.00547252 0)
(0.412462 9.17669e-06 0)
(0.412472 2.82249e-05 0)
(0.412493 4.43434e-05 0)
(0.412522 5.44227e-05 0)
(0.412554 5.81627e-05 0)
(0.412587 5.63151e-05 0)
(0.412623 4.91556e-05 0)
(0.412661 3.69288e-05 0)
(0.412702 2.04742e-05 0)
(0.412747 8.57773e-07 0)
(0.412794 -2.13331e-05 0)
(0.412845 -4.63011e-05 0)
(0.412899 -7.52608e-05 0)
(0.412957 -0.000110027 0)
(0.41302 -0.000153136 0)
(0.413088 -0.000207515 0)
(0.413164 -0.000276168 0)
(0.413249 -0.000362298 0)
(0.413345 -0.000469383 0)
(0.413455 -0.000601441 0)
(0.413581 -0.000763632 0)
(0.413727 -0.000962834 0)
(0.413897 -0.00120824 0)
(0.414095 -0.00151205 0)
(0.414326 -0.00189039 0)
(0.414601 -0.00236381 0)
(0.414923 -0.00295993 0)
(0.415325 -0.00371052 0)
(0.415775 -0.00466888 0)
(0.416479 -0.00587357 0)
(0.412462 6.24374e-06 0)
(0.412471 1.98811e-05 0)
(0.412489 3.21497e-05 0)
(0.412515 4.00011e-05 0)
(0.412545 4.23087e-05 0)
(0.412577 3.91007e-05 0)
(0.412611 3.05378e-05 0)
(0.412648 1.69439e-05 0)
(0.412688 -8.76535e-07 0)
(0.41273 -2.19215e-05 0)
(0.412775 -4.56167e-05 0)
(0.412823 -7.22246e-05 0)
(0.412873 -0.00010298 0)
(0.412927 -0.000139845 0)
(0.412985 -0.000185491 0)
(0.413048 -0.000243003 0)
(0.413116 -0.000315574 0)
(0.413192 -0.000406529 0)
(0.413276 -0.000519468 0)
(0.413372 -0.000658561 0)
(0.41348 -0.000829116 0)
(0.413604 -0.00103821 0)
(0.413745 -0.00129533 0)
(0.413908 -0.00161309 0)
(0.414094 -0.00200819 0)
(0.414312 -0.00250205 0)
(0.414562 -0.00312343 0)
(0.41487 -0.00390759 0)
(0.415201 -0.00490622 0)
(0.415732 -0.00618913 0)
(0.412462 3.67966e-06 0)
(0.412469 1.24752e-05 0)
(0.412486 2.10567e-05 0)
(0.41251 2.64911e-05 0)
(0.412539 2.71731e-05 0)
(0.412569 2.25749e-05 0)
(0.412602 1.26635e-05 0)
(0.412638 -2.21832e-06 0)
(0.412676 -2.12802e-05 0)
(0.412716 -4.35706e-05 0)
(0.412758 -6.85447e-05 0)
(0.412803 -9.64895e-05 0)
(0.41285 -0.000128666 0)
(0.412899 -0.000167165 0)
(0.412952 -0.000214759 0)
(0.413008 -0.000274637 0)
(0.413069 -0.000350127 0)
(0.413135 -0.000444657 0)
(0.413208 -0.000561909 0)
(0.413288 -0.00070614 0)
(0.413378 -0.00088273 0)
(0.413479 -0.00109884 0)
(0.413591 -0.00136408 0)
(0.413717 -0.00169124 0)
(0.413858 -0.00209724 0)
(0.414017 -0.00260395 0)
(0.414192 -0.00324061 0)
(0.414401 -0.00404486 0)
(0.414608 -0.00506618 0)
(0.414953 -0.00639974 0)
(0.412462 1.31068e-06 0)
(0.412469 5.83249e-06 0)
(0.412484 1.07966e-05 0)
(0.412507 1.37157e-05 0)
(0.412534 1.26646e-05 0)
(0.412563 6.67304e-06 0)
(0.412595 -4.51028e-06 0)
(0.412629 -2.05693e-05 0)
(0.412666 -4.07184e-05 0)
(0.412704 -6.40417e-05 0)
(0.412743 -9.003e-05 0)
(0.412785 -0.000119003 0)
(0.412828 -0.000152263 0)
(0.412873 -0.000191988 0)
(0.41292 -0.000241029 0)
(0.41297 -0.000302652 0)
(0.413023 -0.000380272 0)
(0.413079 -0.00047738 0)
(0.41314 -0.000597686 0)
(0.413205 -0.000745462 0)
(0.413276 -0.000926078 0)
(0.413353 -0.00114666 0)
(0.413436 -0.00141677 0)
(0.413525 -0.00174914 0)
(0.41362 -0.00216057 0)
(0.413719 -0.00267286 0)
(0.413819 -0.00331499 0)
(0.413927 -0.00412567 0)
(0.414008 -0.0051513 0)
(0.414159 -0.00650577 0)
(0.412462 -9.24667e-07 0)
(0.412468 -3.69261e-07 0)
(0.412483 1.18413e-06 0)
(0.412504 1.52343e-06 0)
(0.41253 -1.34243e-06 0)
(0.412559 -8.70318e-06 0)
(0.41259 -2.10434e-05 0)
(0.412623 -3.81214e-05 0)
(0.412657 -5.91703e-05 0)
(0.412693 -8.33042e-05 0)
(0.41273 -0.000110049 0)
(0.412769 -0.000139756 0)
(0.412808 -0.00017376 0)
(0.412849 -0.00021429 0)
(0.41289 -0.000264248 0)
(0.412933 -0.000326943 0)
(0.412978 -0.000405826 0)
(0.413024 -0.000504405 0)
(0.413072 -0.000626374 0)
(0.413123 -0.000775956 0)
(0.413174 -0.000958429 0)
(0.413228 -0.00118077 0)
(0.413281 -0.00145233 0)
(0.413334 -0.00178552 0)
(0.413382 -0.0021967 0)
(0.413423 -0.00270704 0)
(0.413448 -0.00334449 0)
(0.413457 -0.00414735 0)
(0.413412 -0.00515818 0)
(0.413368 -0.0065014 0)
(0.412461 -2.9441e-06 0)
(0.412468 -6.26217e-06 0)
(0.412482 -8.06727e-06 0)
(0.412503 -1.02795e-05 0)
(0.412528 -1.49448e-05 0)
(0.412556 -2.36119e-05 0)
(0.412586 -3.69949e-05 0)
(0.412618 -5.49394e-05 0)
(0.41265 -7.66905e-05 0)
(0.412684 -0.000101388 0)
(0.412719 -0.000128605 0)
(0.412754 -0.000158729 0)
(0.41279 -0.000193117 0)
(0.412826 -0.00023402 0)
(0.412862 -0.000284359 0)
(0.412898 -0.000347447 0)
(0.412935 -0.000426735 0)
(0.412971 -0.000525706 0)
(0.413007 -0.000647991 0)
(0.413042 -0.000797706 0)
(0.413075 -0.00097996 0)
(0.413105 -0.00120148 0)
(0.413129 -0.00147123 0)
(0.413146 -0.00180109 0)
(0.413149 -0.00220661 0)
(0.413133 -0.00270783 0)
(0.413086 -0.0033309 0)
(0.412998 -0.00411223 0)
(0.412833 -0.00508955 0)
(0.412598 -0.00638896 0)
(0.412461 -4.91637e-06 0)
(0.412468 -1.20145e-05 0)
(0.412482 -1.71028e-05 0)
(0.412502 -2.1824e-05 0)
(0.412527 -2.82368e-05 0)
(0.412555 -3.81334e-05 0)
(0.412584 -5.24403e-05 0)
(0.412614 -7.10751e-05 0)
(0.412646 -9.32998e-05 0)
(0.412678 -0.000118298 0)
(0.41271 -0.000145698 0)
(0.412742 -0.000175924 0)
(0.412773 -0.000210335 0)
(0.412805 -0.000251177 0)
(0.412836 -0.000301359 0)
(0.412865 -0.000364169 0)
(0.412894 -0.000443017 0)
(0.41292 -0.000541318 0)
(0.412944 -0.000662596 0)
(0.412963 -0.000810803 0)
(0.412978 -0.000990812 0)
(0.412985 -0.00120899 0)
(0.412982 -0.0014738 0)
(0.412963 -0.00179636 0)
(0.412923 -0.00219109 0)
(0.412853 -0.00267642 0)
(0.412738 -0.00327599 0)
(0.412559 -0.00402282 0)
(0.412282 -0.00494897 0)
(0.411869 -0.00617299 0)
(0.412461 -6.87252e-06 0)
(0.412468 -1.77328e-05 0)
(0.412482 -2.60725e-05 0)
(0.412502 -3.3265e-05 0)
(0.412527 -4.1376e-05 0)
(0.412554 -5.24102e-05 0)
(0.412583 -6.74861e-05 0)
(0.412613 -8.65986e-05 0)
(0.412643 -0.000109045 0)
(0.412673 -0.000134066 0)
(0.412702 -0.000161351 0)
(0.412731 -0.000191351 0)
(0.412759 -0.000225421 0)
(0.412786 -0.000265776 0)
(0.412811 -0.000315281 0)
(0.412835 -0.000377162 0)
(0.412855 -0.000454747 0)
(0.412872 -0.000551343 0)
(0.412883 -0.000670328 0)
(0.412888 -0.000815446 0)
(0.412885 -0.000991273 0)
(0.41287 -0.00120374 0)
(0.41284 -0.00146068 0)
(0.412788 -0.00177227 0)
(0.412708 -0.00215155 0)
(0.412587 -0.00261492 0)
(0.412409 -0.00318287 0)
(0.412148 -0.00388375 0)
(0.411771 -0.00474314 0)
(0.411199 -0.00586328 0)
(0.412461 -8.86091e-06 0)
(0.412468 -2.35671e-05 0)
(0.412482 -3.51951e-05 0)
(0.412504 -4.47972e-05 0)
(0.412529 -5.44798e-05 0)
(0.412556 -6.65089e-05 0)
(0.412584 -8.2187e-05 0)
(0.412613 -0.000101562 0)
(0.412641 -0.00012397 0)
(0.41267 -0.00014873 0)
(0.412697 -0.000175601 0)
(0.412723 -0.000205056 0)
(0.412747 -0.000238426 0)
(0.41277 -0.000277875 0)
(0.41279 -0.000326194 0)
(0.412807 -0.00038651 0)
(0.412819 -0.000462035 0)
(0.412826 -0.000555933 0)
(0.412827 -0.000671397 0)
(0.412818 -0.000811927 0)
(0.412797 -0.000981753 0)
(0.412761 -0.00118631 0)
(0.412706 -0.00143269 0)
(0.412623 -0.00173 0)
(0.412505 -0.0020897 0)
(0.412338 -0.00252582 0)
(0.412104 -0.00305527 0)
(0.411771 -0.00370065 0)
(0.411309 -0.00448056 0)
(0.410606 -0.00547334 0)
(0.412462 -1.09514e-05 0)
(0.412468 -2.96944e-05 0)
(0.412484 -4.46632e-05 0)
(0.412506 -5.65728e-05 0)
(0.412532 -6.76716e-05 0)
(0.412559 -8.05406e-05 0)
(0.412587 -9.66381e-05 0)
(0.412615 -0.000116039 0)
(0.412642 -0.000138135 0)
(0.412669 -0.000162346 0)
(0.412694 -0.000188503 0)
(0.412717 -0.000217093 0)
(0.412738 -0.000249409 0)
(0.412756 -0.000287543 0)
(0.412771 -0.000334182 0)
(0.412782 -0.000392324 0)
(0.412787 -0.00046503 0)
(0.412785 -0.000555291 0)
(0.412774 -0.000666092 0)
(0.412752 -0.000800656 0)
(0.412715 -0.000962833 0)
(0.41266 -0.00115751 0)
(0.41258 -0.00139098 0)
(0.41247 -0.00167118 0)
(0.412318 -0.00200786 0)
(0.41211 -0.00241247 0)
(0.411827 -0.00289809 0)
(0.411434 -0.00348089 0)
(0.410903 -0.00417223 0)
(0.4101 -0.00502113 0)
(0.412462 -1.32251e-05 0)
(0.412469 -3.63186e-05 0)
(0.412486 -5.47171e-05 0)
(0.412509 -6.87868e-05 0)
(0.412536 -8.10826e-05 0)
(0.412564 -9.46016e-05 0)
(0.412592 -0.00011092 0)
(0.412619 -0.000130096 0)
(0.412646 -0.000151597 0)
(0.412671 -0.000174972 0)
(0.412694 -0.000200129 0)
(0.412714 -0.000227552 0)
(0.412731 -0.000258479 0)
(0.412746 -0.000294907 0)
(0.412756 -0.000339391 0)
(0.412761 -0.000394764 0)
(0.412759 -0.000463903 0)
(0.412749 -0.000549602 0)
(0.412727 -0.000654609 0)
(0.412693 -0.000781855 0)
(0.412641 -0.000934787 0)
(0.412567 -0.00111772 0)
(0.412466 -0.00133611 0)
(0.412329 -0.0015967 0)
(0.412147 -0.00190746 0)
(0.411904 -0.00227723 0)
(0.411581 -0.00271518 0)
(0.411141 -0.00323086 0)
(0.410558 -0.00382861 0)
(0.409691 -0.0045253 0)
(0.412462 -1.57917e-05 0)
(0.41247 -4.37156e-05 0)
(0.412489 -6.56402e-05 0)
(0.412515 -8.16196e-05 0)
(0.412543 -9.4826e-05 0)
(0.412571 -0.0001088 0)
(0.412599 -0.000125137 0)
(0.412626 -0.000143817 0)
(0.412652 -0.000164415 0)
(0.412675 -0.000186649 0)
(0.412696 -0.000210509 0)
(0.412714 -0.00023647 0)
(0.412728 -0.000265705 0)
(0.412739 -0.000300099 0)
(0.412744 -0.000342045 0)
(0.412744 -0.000394189 0)
(0.412735 -0.000459201 0)
(0.412717 -0.000539652 0)
(0.412686 -0.00063803 0)
(0.41264 -0.000756957 0)
(0.412574 -0.000899471 0)
(0.412484 -0.00106929 0)
(0.412363 -0.00127104 0)
(0.412204 -0.00151026 0)
(0.411996 -0.00179316 0)
(0.411723 -0.00212604 0)
(0.411367 -0.00251434 0)
(0.410892 -0.00296123 0)
(0.410276 -0.00346481 0)
(0.40938 -0.00400997 0)
(0.412462 -1.88109e-05 0)
(0.412472 -5.22601e-05 0)
(0.412494 -7.77633e-05 0)
(0.412522 -9.52474e-05 0)
(0.412552 -0.000109006 0)
(0.412581 -0.00012323 0)
(0.412609 -0.000139381 0)
(0.412636 -0.000157314 0)
(0.412661 -0.000176746 0)
(0.412683 -0.000197559 0)
(0.412702 -0.000219798 0)
(0.412717 -0.000243915 0)
(0.412729 -0.000271015 0)
(0.412736 -0.000302857 0)
(0.412737 -0.000341653 0)
(0.412732 -0.000389818 0)
(0.412717 -0.000449798 0)
(0.412692 -0.00052394 0)
(0.412652 -0.000614475 0)
(0.412595 -0.000723713 0)
(0.412516 -0.000854286 0)
(0.412411 -0.00100934 0)
(0.412273 -0.0011927 0)
(0.412094 -0.00140877 0)
(0.411863 -0.00166213 0)
(0.411567 -0.00195669 0)
(0.411186 -0.00229463 0)
(0.410688 -0.00267341 0)
(0.410055 -0.0030862 0)
(0.409163 -0.00348925 0)
(0.412463 -2.25275e-05 0)
(0.412475 -6.24775e-05 0)
(0.412501 -9.1479e-05 0)
(0.412533 -0.000109866 0)
(0.412565 -0.000123766 0)
(0.412594 -0.000137968 0)
(0.412622 -0.000153595 0)
(0.41265 -0.000170447 0)
(0.412674 -0.000188506 0)
(0.412695 -0.000207838 0)
(0.412712 -0.000228497 0)
(0.412726 -0.000250881 0)
(0.412734 -0.000275997 0)
(0.412738 -0.000305437 0)
(0.412736 -0.000341201 0)
(0.412725 -0.000385479 0)
(0.412706 -0.000440452 0)
(0.412673 -0.000508185 0)
(0.412626 -0.000590636 0)
(0.412559 -0.000689826 0)
(0.412469 -0.00080799 0)
(0.41235 -0.000947696 0)
(0.412197 -0.001112 0)
(0.412001 -0.00130428 0)
(0.411753 -0.00152762 0)
(0.411437 -0.00178382 0)
(0.411038 -0.00207238 0)
(0.410528 -0.00238614 0)
(0.409892 -0.00271526 0)
(0.409032 -0.00299344 0)
(0.412464 -2.73507e-05 0)
(0.41248 -7.51014e-05 0)
(0.412511 -0.000107138 0)
(0.412548 -0.000125616 0)
(0.412581 -0.000139432 0)
(0.412612 -0.000153492 0)
(0.41264 -0.000168143 0)
(0.412668 -0.000183178 0)
(0.412692 -0.000198963 0)
(0.412712 -0.000215785 0)
(0.412727 -0.000233748 0)
(0.412738 -0.00025324 0)
(0.412745 -0.000275188 0)
(0.412746 -0.000301017 0)
(0.41274 -0.000332498 0)
(0.412725 -0.000371574 0)
(0.4127 -0.000420152 0)
(0.412662 -0.00048001 0)
(0.412607 -0.000552843 0)
(0.412532 -0.000640414 0)
(0.412432 -0.0007446 0)
(0.412303 -0.000867424 0)
(0.412136 -0.00101126 0)
(0.411926 -0.00117862 0)
(0.411663 -0.00137133 0)
(0.411333 -0.00158938 0)
(0.410923 -0.00183028 0)
(0.410409 -0.00208343 0)
(0.40978 -0.00233862 0)
(0.408971 -0.00251508 0)
(0.412465 -3.40247e-05 0)
(0.412487 -9.12681e-05 0)
(0.412527 -0.000124912 0)
(0.412568 -0.000142029 0)
(0.412604 -0.00015561 0)
(0.412635 -0.000170071 0)
(0.412664 -0.000184652 0)
(0.412692 -0.000199104 0)
(0.412716 -0.000214053 0)
(0.412735 -0.00022983 0)
(0.41275 -0.000246518 0)
(0.412759 -0.000264482 0)
(0.412763 -0.000284533 0)
(0.412762 -0.000307894 0)
(0.412753 -0.000336099 0)
(0.412735 -0.000370809 0)
(0.412706 -0.000413669 0)
(0.412662 -0.0004662 0)
(0.412601 -0.000529828 0)
(0.412519 -0.000606033 0)
(0.41241 -0.000696358 0)
(0.412271 -0.000802325 0)
(0.412094 -0.000925697 0)
(0.411872 -0.00106818 0)
(0.411597 -0.00123054 0)
(0.411257 -0.00141139 0)
(0.41084 -0.0016071 0)
(0.410328 -0.00180472 0)
(0.409713 -0.00199704 0)
(0.408964 -0.00209784 0)
(0.412467 -4.39008e-05 0)
(0.412499 -0.000112981 0)
(0.41255 -0.000145962 0)
(0.412597 -0.000159096 0)
(0.412633 -0.00016967 0)
(0.412665 -0.000180995 0)
(0.412695 -0.000191704 0)
(0.412723 -0.000202186 0)
(0.412747 -0.000213271 0)
(0.412765 -0.000225236 0)
(0.412778 -0.000238097 0)
(0.412786 -0.000252246 0)
(0.412789 -0.000268416 0)
(0.412785 -0.000287575 0)
(0.412773 -0.000310912 0)
(0.412753 -0.000339746 0)
(0.41272 -0.000375431 0)
(0.412672 -0.000419154 0)
(0.412606 -0.00047209 0)
(0.412517 -0.000535565 0)
(0.412402 -0.000610733 0)
(0.412254 -0.00069859 0)
(0.412069 -0.000800749 0)
(0.411838 -0.000918492 0)
(0.411554 -0.00105144 0)
(0.411208 -0.00119679 0)
(0.410789 -0.00135046 0)
(0.410282 -0.00149714 0)
(0.409684 -0.00163913 0)
(0.408986 -0.00168661 0)
(0.412472 -5.88041e-05 0)
(0.412519 -0.000141301 0)
(0.412586 -0.000174433 0)
(0.412639 -0.000189581 0)
(0.412677 -0.000203764 0)
(0.412709 -0.000216836 0)
(0.412741 -0.000227712 0)
(0.412769 -0.000237685 0)
(0.412793 -0.000247883 0)
(0.41281 -0.00025857 0)
(0.412822 -0.000269805 0)
(0.412829 -0.000281865 0)
(0.41283 -0.000295362 0)
(0.412824 -0.000311165 0)
(0.41281 -0.000330264 0)
(0.412787 -0.000353684 0)
(0.412751 -0.000382608 0)
(0.4127 -0.000417929 0)
(0.41263 -0.000460367 0)
(0.412536 -0.000511199 0)
(0.412415 -0.000571586 0)
(0.412261 -0.000641411 0)
(0.412069 -0.000721385 0)
(0.411831 -0.000813112 0)
(0.411542 -0.000916299 0)
(0.411192 -0.00102719 0)
(0.410775 -0.0011413 0)
(0.410274 -0.00123948 0)
(0.409697 -0.00133716 0)
(0.409018 -0.00135181 0)
(0.412479 -8.64483e-05 0)
(0.41255 -0.000158579 0)
(0.412635 -0.000169415 0)
(0.412692 -0.000176228 0)
(0.41273 -0.000186883 0)
(0.412765 -0.000196274 0)
(0.412798 -0.000203538 0)
(0.412828 -0.000210244 0)
(0.412851 -0.000217225 0)
(0.412868 -0.000224514 0)
(0.41288 -0.000232413 0)
(0.412886 -0.000241645 0)
(0.412886 -0.00025235 0)
(0.412879 -0.000264935 0)
(0.412864 -0.000279975 0)
(0.412838 -0.000298119 0)
(0.4128 -0.000319949 0)
(0.412746 -0.000346261 0)
(0.412673 -0.000377959 0)
(0.412575 -0.000415545 0)
(0.412449 -0.000459754 0)
(0.412291 -0.000512251 0)
(0.412094 -0.000573591 0)
(0.411851 -0.00064266 0)
(0.411558 -0.000718413 0)
(0.411206 -0.000797802 0)
(0.410794 -0.000876399 0)
(0.410296 -0.000929278 0)
(0.409744 -0.000981528 0)
(0.408984 -0.000890675 0)
(0.41249 -0.000156236 0)
(0.412637 -0.000287711 0)
(0.412762 -0.000270993 0)
(0.412801 -0.000266406 0)
(0.41283 -0.000271803 0)
(0.412861 -0.000276867 0)
(0.41289 -0.000280195 0)
(0.412913 -0.000283264 0)
(0.412929 -0.000286627 0)
(0.41294 -0.000290323 0)
(0.412945 -0.000294487 0)
(0.412944 -0.000299341 0)
(0.412936 -0.000305193 0)
(0.412918 -0.000312385 0)
(0.412891 -0.00032129 0)
(0.41285 -0.000332147 0)
(0.412795 -0.000346426 0)
(0.412721 -0.000363154 0)
(0.412625 -0.000382466 0)
(0.412502 -0.000406987 0)
(0.412349 -0.000437248 0)
(0.412159 -0.000467651 0)
(0.411927 -0.000501809 0)
(0.411647 -0.000545065 0)
(0.411314 -0.000593545 0)
(0.410921 -0.00064354 0)
(0.410467 -0.000691486 0)
(0.409939 -0.00070607 0)
(0.40932 -0.000719701 0)
(0.407873 -0.000197281 0)
(0.412112 -0.000108598 0)
(0.411836 -0.000183253 0)
(0.411414 -0.000193849 0)
(0.410931 -0.000197692 0)
(0.410447 -0.000203223 0)
(0.409968 -0.000207513 0)
(0.409485 -0.000210732 0)
(0.408996 -0.000213718 0)
(0.4085 -0.000216687 0)
(0.407999 -0.000219601 0)
(0.407492 -0.000222474 0)
(0.406978 -0.000225437 0)
(0.406456 -0.000228618 0)
(0.405925 -0.000232117 0)
(0.405382 -0.000236039 0)
(0.404826 -0.000240521 0)
(0.404254 -0.000245494 0)
(0.403661 -0.000251368 0)
(0.403045 -0.00025863 0)
(0.402399 -0.000266846 0)
(0.401718 -0.000276072 0)
(0.400997 -0.000288462 0)
(0.400229 -0.000304056 0)
(0.399409 -0.00032068 0)
(0.398527 -0.000338164 0)
(0.39758 -0.000354957 0)
(0.396568 -0.00037465 0)
(0.395521 -0.000359776 0)
(0.394528 -0.00041869 0)
(0.392319 0.000294169 0)
(0.411608 -0.00161389 -1.20065e-18)
(0.416683 -0.00205694 -9.26376e-21)
(0.420236 -0.00233172 1.23929e-18)
(0.421979 -0.00275852 2.49085e-18)
(0.422901 -0.00337976 1.27188e-18)
(0.423537 -0.00417057 -1.26304e-18)
(0.424001 -0.00509691 1.28809e-18)
(0.42436 -0.00614975 0)
(0.424665 -0.00732785 1.30778e-18)
(0.424941 -0.00863029 -5.90508e-21)
(0.42519 -0.0100609 9.21125e-20)
(0.425399 -0.0116311 0)
(0.425556 -0.0133592 -1.55238e-18)
(0.425653 -0.0152693 0)
(0.425681 -0.0173916 0)
(0.425633 -0.0197646 -1.71325e-18)
(0.425497 -0.0224384 -1.64674e-18)
(0.425259 -0.0254791 -2.58865e-22)
(0.4249 -0.0289756 1.64544e-18)
(0.424396 -0.0330497 2.45074e-19)
(0.423717 -0.0378697 -2.27864e-18)
(0.422822 -0.0436861 2.64492e-19)
(0.42166 -0.0508207 -1.37798e-19)
(0.420148 -0.0599703 2.12121e-18)
(0.41823 -0.0714198 2.96188e-19)
(0.415672 -0.088585 -1.53517e-19)
(0.41259 -0.107873 0)
(0.408312 -0.151506 -2.28817e-18)
(0.403245 -0.184047 -2.37707e-18)
(0.400187 -0.339809 0)
(0.420783 -0.00199574 1.20444e-18)
(0.422264 -0.00219899 -2.84382e-20)
(0.422996 -0.00267255 2.36234e-20)
(0.423 -0.00335854 -1.26026e-18)
(0.423071 -0.00418913 -4.0345e-20)
(0.423214 -0.0051226 1.3622e-18)
(0.423444 -0.00614645 1.27222e-18)
(0.42369 -0.00726662 1.73516e-19)
(0.42393 -0.00848934 -8.91028e-20)
(0.424149 -0.0098209 1.45845e-18)
(0.424328 -0.0112732 1.60046e-18)
(0.424452 -0.0128639 1.45378e-18)
(0.424513 -0.0146141 1.69684e-18)
(0.424504 -0.0165488 1.54501e-18)
(0.424417 -0.0186987 1.70174e-18)
(0.424241 -0.021103 3.61407e-18)
(0.423961 -0.0238134 1.70911e-18)
(0.423556 -0.0268978 -2.00774e-18)
(0.423 -0.0304471 2.08571e-18)
(0.422262 -0.0345852 -1.26794e-19)
(0.421296 -0.0394845 1.32139e-19)
(0.420043 -0.045394 2.22368e-18)
(0.418414 -0.0526579 0)
(0.416302 -0.0619055 -1.50226e-19)
(0.413505 -0.0736498 2.70957e-18)
(0.409785 -0.090641 0)
(0.404717 -0.110908 2.79536e-18)
(0.397543 -0.15279 -2.63839e-18)
(0.386801 -0.187718 -2.48356e-20)
(0.375034 -0.336085 1.32862e-18)
(0.420477 -0.00206813 -9.39438e-21)
(0.42102 -0.00246428 -9.52756e-21)
(0.421454 -0.00325515 -1.23235e-18)
(0.421765 -0.00417171 -4.00379e-20)
(0.422015 -0.00510107 4.10715e-20)
(0.422338 -0.0060513 -4.19731e-20)
(0.42266 -0.00706319 -1.33255e-18)
(0.422922 -0.00816172 0)
(0.423119 -0.00936036 0)
(0.423262 -0.0106708 0)
(0.423349 -0.012107 -1.53024e-18)
(0.423375 -0.0136856 -8.85483e-20)
(0.423335 -0.0154258 -1.42049e-18)
(0.42322 -0.0173512 -1.67644e-18)
(0.423018 -0.0194927 -1.84113e-18)
(0.422712 -0.0218902 -1.79278e-18)
(0.422283 -0.024596 1.35645e-19)
(0.421705 -0.0276783 1.80743e-18)
(0.420946 -0.0312288 -1.87914e-18)
(0.419963 -0.0353717 -1.31373e-19)
(0.418697 -0.04028 0)
(0.417068 -0.0462 -4.74245e-18)
(0.414956 -0.0534888 1.50481e-19)
(0.412199 -0.0627146 -2.56604e-18)
(0.408528 -0.0745935 7.97977e-20)
(0.40353 -0.0911896 0)
(0.396591 -0.112327 -6.0074e-18)
(0.386302 -0.151708 5.98838e-18)
(0.370245 -0.189945 -3.32083e-18)
(0.348923 -0.328847 -1.47525e-18)
(0.420455 -0.00306695 0)
(0.420857 -0.00367315 -1.26646e-18)
(0.421215 -0.00445336 4.15649e-23)
(0.421467 -0.00526148 2.03835e-20)
(0.421675 -0.00607948 0)
(0.421877 -0.00696241 0)
(0.422052 -0.00794722 -1.4065e-18)
(0.422178 -0.00903906 0)
(0.422262 -0.0102373 9.24624e-20)
(0.422305 -0.0115481 -1.9038e-19)
(0.422299 -0.0129834 1.12425e-22)
(0.422232 -0.0145586 -1.51052e-18)
(0.422093 -0.0162934 1.04313e-19)
(0.421867 -0.0182124 1.62556e-18)
(0.421541 -0.0203478 1.11673e-19)
(0.421094 -0.0227401 1.7466e-18)
(0.420504 -0.0254418 -1.91408e-18)
(0.41974 -0.0285213 -2.01522e-18)
(0.418761 -0.0320704 0)
(0.417513 -0.0362132 2.06286e-18)
(0.415923 -0.0411221 1.4267e-19)
(0.413888 -0.0470416 2.52936e-18)
(0.411255 -0.0543281 -1.57719e-19)
(0.407815 -0.0635241 2.63941e-18)
(0.403196 -0.0754155 -2.79094e-18)
(0.396903 -0.0916906 0)
(0.387908 -0.11321 3.23473e-18)
(0.374643 -0.150315 -3.29647e-18)
(0.352908 -0.190673 3.38564e-18)
(0.322518 -0.318871 9.35078e-20)
(0.420129 -0.00391181 0)
(0.420381 -0.00448637 1.26201e-18)
(0.420583 -0.0051898 0)
(0.420756 -0.00596476 0)
(0.420908 -0.00680219 0)
(0.421046 -0.00772163 0)
(0.421158 -0.00873299 1.4262e-18)
(0.42123 -0.00983501 4.58841e-20)
(0.421254 -0.0110308 -4.72499e-20)
(0.421227 -0.0123319 0)
(0.421137 -0.013754 0)
(0.420974 -0.0153146 1.03496e-19)
(0.420727 -0.0170341 -5.80717e-25)
(0.420383 -0.0189379 -1.875e-18)
(0.419924 -0.0210576 0)
(0.419328 -0.0234337 -1.89824e-18)
(0.418567 -0.026118 0)
(0.417604 -0.0291789 2.18716e-18)
(0.41639 -0.0327072 -2.70596e-19)
(0.41486 -0.0368259 -2.1089e-18)
(0.412924 -0.0417054 1.20321e-18)
(0.410457 -0.0475857 0)
(0.407272 -0.0548175 0)
(0.403109 -0.0639214 0)
(0.397503 -0.0757024 1.53518e-18)
(0.389858 -0.0915921 -1.65176e-18)
(0.378755 -0.113106 0)
(0.362545 -0.147887 -1.91738e-18)
(0.335091 -0.189678 -2.11555e-18)
(0.296049 -0.306043 1.81774e-18)
(0.419658 -0.00464932 6.18071e-19)
(0.419821 -0.00524907 6.52829e-19)
(0.419939 -0.00596192 6.79244e-19)
(0.420061 -0.00674638 6.33174e-19)
(0.420169 -0.00759102 7.5749e-19)
(0.420244 -0.00850464 6.66909e-19)
(0.420279 -0.00949786 7.31007e-19)
(0.420268 -0.0105778 -7.52058e-19)
(0.420204 -0.0117532 4.82308e-20)
(0.420081 -0.0130362 6.99183e-19)
(0.419892 -0.014441 8.2452e-19)
(0.419624 -0.0159837 7.99326e-19)
(0.419265 -0.0176837 1.09768e-19)
(0.418797 -0.0195659 -9.15205e-19)
(0.418199 -0.0216615 1.18303e-19)
(0.417446 -0.0240106 -2.45973e-19)
(0.416505 -0.0266647 -9.04378e-19)
(0.415331 -0.0296912 -1.07964e-18)
(0.413868 -0.0331793 0)
(0.412039 -0.0372498 -1.48076e-19)
(0.409737 -0.0420688 2.26864e-20)
(0.406814 -0.0478701 1.64021e-19)
(0.40305 -0.0549934 1.24314e-18)
(0.39813 -0.0639375 2.80558e-19)
(0.391503 -0.0754897 -4.6109e-20)
(0.382467 -0.0909077 1.82255e-18)
(0.369235 -0.112034 -1.17384e-19)
(0.350124 -0.144466 2.0087e-18)
(0.317038 -0.186521 2.3686e-18)
(0.270044 -0.290544 -2.09714e-18)
(0.419077 -0.00534796 -6.35209e-19)
(0.419169 -0.00595098 -6.40363e-19)
(0.419212 -0.00665239 -6.77343e-19)
(0.41927 -0.00742194 2.48629e-20)
(0.419314 -0.00825377 -1.38556e-18)
(0.419317 -0.00915543 -7.20978e-19)
(0.419273 -0.0101364 -1.5802e-18)
(0.419182 -0.0112039 9.05028e-20)
(0.419036 -0.0123655 -4.93117e-20)
(0.418827 -0.0136316 -1.62855e-18)
(0.418544 -0.0150154 7.07442e-21)
(0.418173 -0.0165332 -8.12258e-19)
(0.417698 -0.0182046 8.50357e-19)
(0.417102 -0.0200545 -9.85385e-21)
(0.41636 -0.022114 1.21941e-19)
(0.415442 -0.0244223 -1.26733e-19)
(0.41431 -0.0270299 1.0538e-18)
(0.412915 -0.0300022 1.1031e-18)
(0.411191 -0.0334262 1.46436e-19)