/*--------------------------------*- C++ -*----------------------------------*\
  =========                 |
  \\      /  F ield         | OpenFOAM: The Open Source CFD Toolbox
   \\    /   O peration     | Website:  https://openfoam.org
    \\  /    A nd           | Version:  11
     \\/     M anipulation  |
\*---------------------------------------------------------------------------*/
FoamFile
{
    format      ascii;
    class       surfaceScalarField;
    location    "0.6";
    object      phi;
}
// * * * * * * * * * * * * * * * * * * * * * * * * * * * * * * * * * * * * * //

dimensions      [0 3 -1 0 0 0 0];

internalField   nonuniform List<scalar> 
24840
(
1.53199e-05
1.34668e-08
1.5303e-05
1.68685e-08
1.52879e-05
1.50639e-08
1.52741e-05
1.38127e-08
1.52614e-05
1.27492e-08
1.52505e-05
1.08994e-08
1.52436e-05
6.8564e-09
1.52428e-05
8.0579e-10
1.52462e-05
-3.34731e-09
1.52496e-05
-3.4635e-09
1.52472e-05
2.38586e-09
1.52368e-05
1.04669e-08
1.52235e-05
1.32889e-08
1.52136e-05
9.91514e-09
1.52149e-05
-1.3488e-09
1.5234e-05
-1.9073e-08
1.5274e-05
-3.99842e-08
1.53367e-05
-6.2689e-08
1.54211e-05
-8.44732e-08
1.5526e-05
-1.04877e-07
1.56537e-05
-1.27697e-07
1.58083e-05
-1.54566e-07
1.59947e-05
-1.8647e-07
1.622e-05
-2.25225e-07
1.6493e-05
-2.73012e-07
1.68247e-05
-3.3176e-07
1.72289e-05
-4.04196e-07
1.77151e-05
-4.86133e-07
1.83239e-05
-6.08859e-07
-5.98098e-07
1.8922e-05
1.53397e-05
7.08541e-09
1.53442e-05
1.2373e-08
1.5349e-05
1.02507e-08
1.53541e-05
8.70271e-09
1.53591e-05
7.74652e-09
1.53636e-05
6.45767e-09
1.53673e-05
3.13549e-09
1.53707e-05
-2.63009e-09
1.53752e-05
-7.83074e-09
1.53835e-05
-1.17608e-08
1.54029e-05
-1.69651e-08
1.54368e-05
-2.34709e-08
1.54761e-05
-2.59745e-08
1.55127e-05
-2.67174e-08
1.55478e-05
-3.64058e-08
1.5585e-05
-5.6293e-08
1.56287e-05
-8.36824e-08
1.568e-05
-1.14038e-07
1.57433e-05
-1.478e-07
1.58264e-05
-1.87898e-07
1.59322e-05
-2.33539e-07
1.60636e-05
-2.85974e-07
1.62257e-05
-3.48529e-07
1.64251e-05
-4.24655e-07
1.667e-05
-5.17887e-07
1.69701e-05
-6.31848e-07
1.73374e-05
-7.71482e-07
1.77855e-05
-9.34275e-07
1.83337e-05
-1.1571e-06
-1.27958e-06
1.90152e-05
1.53365e-05
3.9219e-09
1.53406e-05
8.24375e-09
1.53443e-05
6.61494e-09
1.53489e-05
4.10837e-09
1.53546e-05
1.98036e-09
1.53618e-05
-6.9119e-10
1.53701e-05
-5.2371e-09
1.53778e-05
-1.02785e-08
1.53836e-05
-1.3667e-08
1.53889e-05
-1.7072e-08
1.53954e-05
-2.34569e-08
1.54064e-05
-3.44107e-08
1.54284e-05
-4.80493e-08
1.54639e-05
-6.21988e-08
1.55085e-05
-8.10012e-08
1.55579e-05
-1.05693e-07
1.56109e-05
-1.36653e-07
1.56706e-05
-1.73702e-07
1.57408e-05
-2.18041e-07
1.5825e-05
-2.72101e-07
1.59281e-05
-3.36676e-07
1.60554e-05
-4.13255e-07
1.62124e-05
-5.05501e-07
1.64057e-05
-6.17942e-07
1.66433e-05
-7.55561e-07
1.69352e-05
-9.23696e-07
1.72935e-05
-1.12976e-06
1.77328e-05
-1.37357e-06
1.82708e-05
-1.69517e-06
-1.94826e-06
1.89395e-05
1.53352e-05
2.04251e-09
1.5339e-05
4.49875e-09
1.53426e-05
3.00762e-09
1.53466e-05
8.92461e-11
1.53518e-05
-3.23825e-09
1.53582e-05
-7.08727e-09
1.53655e-05
-1.25219e-08
1.53736e-05
-1.83725e-08
1.53832e-05
-2.33139e-08
1.53952e-05
-2.90574e-08
1.54096e-05
-3.78584e-08
1.54259e-05
-5.07106e-08
1.54457e-05
-6.78068e-08
1.54716e-05
-8.81437e-08
1.55047e-05
-1.14046e-07
1.55455e-05
-1.46503e-07
1.55945e-05
-1.85703e-07
1.5653e-05
-2.32212e-07
1.57228e-05
-2.87835e-07
1.58063e-05
-3.55536e-07
1.59072e-05
-4.3767e-07
1.60308e-05
-5.36836e-07
1.61827e-05
-6.57336e-07
1.63694e-05
-8.04657e-07
1.6599e-05
-9.85148e-07
1.68812e-05
-1.2059e-06
1.7228e-05
-1.47658e-06
1.76546e-05
-1.8002e-06
1.81766e-05
-2.21719e-06
-2.60141e-06
1.88298e-05
1.53346e-05
7.77544e-10
1.53376e-05
1.51385e-09
1.53409e-05
-2.82429e-10
1.53448e-05
-3.87409e-09
1.53499e-05
-8.33339e-09
1.53563e-05
-1.34587e-08
1.53633e-05
-1.94949e-08
1.53707e-05
-2.58302e-08
1.53798e-05
-3.23949e-08
1.53918e-05
-4.10183e-08
1.54072e-05
-5.33157e-08
1.54261e-05
-6.9589e-08
1.54481e-05
-8.98224e-08
1.54741e-05
-1.14163e-07
1.55049e-05
-1.44809e-07
1.55417e-05
-1.833e-07
1.55861e-05
-2.30132e-07
1.564e-05
-2.86122e-07
1.57055e-05
-3.53265e-07
1.57847e-05
-4.34756e-07
1.5881e-05
-5.33983e-07
1.59989e-05
-6.54719e-07
1.61437e-05
-8.02113e-07
1.63217e-05
-9.82665e-07
1.65406e-05
-1.2041e-06
1.681e-05
-1.4753e-06
1.71415e-05
-1.80808e-06
1.75505e-05
-2.20912e-06
1.80515e-05
-2.71819e-06
-3.23165e-06
1.86817e-05
1.53343e-05
-1.44039e-10
1.53367e-05
-9.1534e-10
1.53398e-05
-3.39162e-09
1.53435e-05
-7.60536e-09
1.53482e-05
-1.29708e-08
1.53539e-05
-1.92472e-08
1.53609e-05
-2.64245e-08
1.53692e-05
-3.41634e-08
1.53794e-05
-4.25929e-08
1.53916e-05
-5.32522e-08
1.5406e-05
-6.76813e-08
1.54228e-05
-8.63651e-08
1.54426e-05
-1.09616e-07
1.54666e-05
-1.38171e-07
1.54956e-05
-1.73865e-07
1.55306e-05
-2.18213e-07
1.55725e-05
-2.72045e-07
1.5623e-05
-3.36644e-07
1.56842e-05
-4.14448e-07
1.57584e-05
-5.09019e-07
1.58489e-05
-6.24486e-07
1.59598e-05
-7.65562e-07
1.60959e-05
-9.38229e-07
1.62632e-05
-1.14999e-06
1.6469e-05
-1.40993e-06
1.67225e-05
-1.72876e-06
1.70348e-05
-2.12039e-06
1.74211e-05
-2.5954e-06
1.78955e-05
-3.19262e-06
-3.8329e-06
1.84968e-05
1.53341e-05
-8.8059e-10
1.53361e-05
-2.92195e-09
1.53389e-05
-6.22874e-09
1.53424e-05
-1.11044e-08
1.53467e-05
-1.72788e-08
1.5352e-05
-2.45114e-08
1.53583e-05
-3.27412e-08
1.5366e-05
-4.18804e-08
1.53756e-05
-5.21934e-08
1.53873e-05
-6.49004e-08
1.5401e-05
-8.13988e-08
1.54171e-05
-1.02439e-07
1.54361e-05
-1.28628e-07
1.54588e-05
-1.60931e-07
1.5486e-05
-2.00995e-07
1.55182e-05
-2.50429e-07
1.55566e-05
-3.1052e-07
1.5603e-05
-3.83025e-07
1.56593e-05
-4.70748e-07
1.57279e-05
-5.77573e-07
1.58116e-05
-7.08183e-07
1.59141e-05
-8.68074e-07
1.60399e-05
-1.06406e-06
1.61946e-05
-1.30462e-06
1.63848e-05
-1.6002e-06
1.66193e-05
-1.96323e-06
1.69086e-05
-2.40974e-06
1.72675e-05
-2.95423e-06
1.77096e-05
-3.63475e-06
-4.39822e-06
1.82749e-05
1.53339e-05
-1.48463e-09
1.53356e-05
-4.61642e-09
1.53382e-05
-8.75796e-09
1.53414e-05
-1.43187e-08
1.53454e-05
-2.12809e-08
1.53503e-05
-2.94197e-08
1.53561e-05
-3.85906e-08
1.53632e-05
-4.89035e-08
1.53719e-05
-6.08941e-08
1.53826e-05
-7.56408e-08
1.53955e-05
-9.42663e-08
1.54106e-05
-1.17538e-07
1.54282e-05
-1.46287e-07
1.54491e-05
-1.81765e-07
1.54737e-05
-2.25663e-07
1.5503e-05
-2.79685e-07
1.55379e-05
-3.45456e-07
1.558e-05
-4.25119e-07
1.56311e-05
-5.21825e-07
1.56933e-05
-6.39783e-07
1.57693e-05
-7.84144e-07
1.58622e-05
-9.61067e-07
1.59763e-05
-1.17813e-06
1.61165e-05
-1.44477e-06
1.62889e-05
-1.77264e-06
1.65015e-05
-2.17585e-06
1.67642e-05
-2.67245e-06
1.70909e-05
-3.28089e-06
1.74948e-05
-4.03862e-06
-4.91971e-06
1.80163e-05
1.53338e-05
-1.98367e-09
1.53353e-05
-6.06537e-09
1.53375e-05
-1.10027e-08
1.53404e-05
-1.72423e-08
1.53441e-05
-2.49043e-08
1.53485e-05
-3.38261e-08
1.53538e-05
-4.3923e-08
1.53604e-05
-5.54479e-08
1.53684e-05
-6.89536e-08
1.53781e-05
-8.53225e-08
1.53895e-05
-1.05637e-07
1.54028e-05
-1.30894e-07
1.54186e-05
-1.6211e-07
1.54375e-05
-2.00573e-07
1.54597e-05
-2.47926e-07
1.5486e-05
-3.05979e-07
1.55172e-05
-3.76694e-07
1.55547e-05
-4.62601e-07
1.56001e-05
-5.67184e-07
1.56553e-05
-6.94959e-07
1.57226e-05
-8.51472e-07
1.5805e-05
-1.04343e-06
1.59059e-05
-1.2791e-06
1.60299e-05
-1.56874e-06
1.61824e-05
-1.92513e-06
1.63704e-05
-2.36392e-06
1.6603e-05
-2.90505e-06
1.68929e-05
-3.57076e-06
1.72525e-05
-4.39817e-06
-5.38881e-06
1.77216e-05
1.53338e-05
-2.40373e-09
1.5335e-05
-7.31022e-09
1.5337e-05
-1.29726e-08
1.53396e-05
-1.9849e-08
1.53428e-05
-2.81553e-08
1.53468e-05
-3.78028e-08
1.53516e-05
-4.87184e-08
1.53573e-05
-6.1199e-08
1.53643e-05
-7.59009e-08
1.53727e-05
-9.37282e-08
1.53828e-05
-1.1571e-07
1.53947e-05
-1.42851e-07
1.54088e-05
-1.76221e-07
1.54254e-05
-2.1717e-07
1.54449e-05
-2.67395e-07
1.54678e-05
-3.28845e-07
1.54948e-05
-4.03767e-07
1.55273e-05
-4.95012e-07
1.55664e-05
-6.06338e-07
1.5614e-05
-7.42521e-07
1.56719e-05
-9.09434e-07
1.57427e-05
-1.11424e-06
1.58294e-05
-1.36579e-06
1.59358e-05
-1.67506e-06
1.60664e-05
-2.0558e-06
1.62275e-05
-2.525e-06
1.64268e-05
-3.10432e-06
1.66755e-05
-3.81948e-06
1.69848e-05
-4.70746e-06
-5.79655e-06
1.73925e-05
1.53337e-05
-2.76039e-09
1.53348e-05
-8.37505e-09
1.53365e-05
-1.46823e-08
1.53388e-05
-2.21419e-08
1.53416e-05
-3.10165e-08
1.53451e-05
-4.12792e-08
1.53493e-05
-5.29074e-08
1.53543e-05
-6.6237e-08
1.53604e-05
-8.19463e-08
1.53676e-05
-1.00929e-07
1.53761e-05
-1.24236e-07
1.53862e-05
-1.52961e-07
1.53982e-05
-1.88217e-07
1.54123e-05
-2.31323e-07
1.54289e-05
-2.83955e-07
1.54482e-05
-3.4818e-07
1.5471e-05
-4.26503e-07
1.5498e-05
-5.2207e-07
1.55306e-05
-6.38883e-07
1.557e-05
-7.81937e-07
1.56179e-05
-9.57363e-07
1.56764e-05
-1.17268e-06
1.57478e-05
-1.43719e-06
1.58352e-05
-1.76247e-06
1.59424e-05
-2.16304e-06
1.60744e-05
-2.65698e-06
1.62375e-05
-3.26742e-06
1.64411e-05
-4.0231e-06
1.66945e-05
-4.96088e-06
-6.13405e-06
1.7032e-05
1.53336e-05
-3.06233e-09
1.53345e-05
-9.27813e-09
1.5336e-05
-1.61445e-08
1.5338e-05
-2.41121e-08
1.53404e-05
-3.3471e-08
1.53434e-05
-4.42559e-08
1.5347e-05
-5.64714e-08
1.53512e-05
-7.04511e-08
1.53562e-05
-8.69248e-08
1.53621e-05
-1.06846e-07
1.53691e-05
-1.3128e-07
1.53775e-05
-1.61326e-07
1.53874e-05
-1.98099e-07
1.53989e-05
-2.42888e-07
1.54123e-05
-2.97367e-07
1.54279e-05
-3.63702e-07
1.5446e-05
-4.44607e-07
1.54674e-05
-5.43462e-07
1.54929e-05
-6.64464e-07
1.55238e-05
-8.12778e-07
1.55612e-05
-9.9473e-07
1.56066e-05
-1.21809e-06
1.56619e-05
-1.4925e-06
1.57294e-05
-1.82995e-06
1.58119e-05
-2.24554e-06
1.5913e-05
-2.75814e-06
1.60376e-05
-3.39198e-06
1.61927e-05
-4.17821e-06
1.63853e-05
-5.15347e-06
-6.39302e-06
1.66442e-05
1.53336e-05
-3.31468e-09
1.53343e-05
-1.0033e-08
1.53356e-05
-1.73693e-08
1.53372e-05
-2.57618e-08
1.53393e-05
-3.55123e-08
1.53417e-05
-4.67041e-08
1.53446e-05
-5.93789e-08
1.5348e-05
-7.38638e-08
1.5352e-05
-9.09001e-08
1.53566e-05
-1.11491e-07
1.53621e-05
-1.36749e-07
1.53686e-05
-1.67798e-07
1.53762e-05
-2.05726e-07
1.53851e-05
-2.51755e-07
1.53952e-05
-3.07525e-07
1.54068e-05
-3.75277e-07
1.54201e-05
-4.57897e-07
1.54356e-05
-5.58956e-07
1.54539e-05
-6.82798e-07
1.54759e-05
-8.34706e-07
1.55023e-05
-1.02113e-06
1.55341e-05
-1.24999e-06
1.55728e-05
-1.53112e-06
1.56196e-05
-1.87676e-06
1.56764e-05
-2.30233e-06
1.57454e-05
-2.82719e-06
1.58296e-05
-3.4762e-06
1.59336e-05
-4.28218e-06
1.60613e-05
-5.2812e-06
-6.56639e-06
1.62347e-05
1.53335e-05
-3.5212e-09
1.53342e-05
-1.06504e-08
1.53352e-05
-1.83678e-08
1.53365e-05
-2.70958e-08
1.53381e-05
-3.71409e-08
1.534e-05
-4.86204e-08
1.53423e-05
-6.16041e-08
1.53448e-05
-7.6418e-08
1.53477e-05
-9.38202e-08
1.53511e-05
-1.14861e-07
1.5355e-05
-1.40686e-07
1.53596e-05
-1.72411e-07
1.5365e-05
-2.11082e-07
1.53711e-05
-2.57848e-07
1.53779e-05
-3.14309e-07
1.53854e-05
-3.82757e-07
1.53937e-05
-4.66206e-07
1.54031e-05
-5.68366e-07
1.5414e-05
-6.9368e-07
1.54267e-05
-8.4749e-07
1.54419e-05
-1.03629e-06
1.546e-05
-1.26805e-06
1.54815e-05
-1.55265e-06
1.55071e-05
-1.90241e-06
1.55376e-05
-2.33281e-06
1.55738e-05
-2.86332e-06
1.56165e-05
-3.51896e-06
1.56676e-05
-4.3333e-06
1.57278e-05
-5.34135e-06
-6.64894e-06
1.58103e-05
1.53335e-05
-3.68537e-09
1.5334e-05
-1.11403e-08
1.53348e-05
-1.91503e-08
1.53358e-05
-2.81184e-08
1.5337e-05
-3.83535e-08
1.53384e-05
-4.99989e-08
1.53399e-05
-6.31482e-08
1.53416e-05
-7.81293e-08
1.53435e-05
-9.5708e-08
1.53456e-05
-1.16966e-07
1.5348e-05
-1.43072e-07
1.53507e-05
-1.75126e-07
1.53538e-05
-2.14117e-07
1.5357e-05
-2.61114e-07
1.53604e-05
-3.17664e-07
1.53637e-05
-3.86079e-07
1.5367e-05
-4.69459e-07
1.53702e-05
-5.71602e-07
1.53735e-05
-6.97e-07
1.5377e-05
-8.50999e-07
1.53808e-05
-1.04006e-06
1.53849e-05
-1.27211e-06
1.53891e-05
-1.55694e-06
1.53935e-05
-1.90673e-06
1.53974e-05
-2.33677e-06
1.54004e-05
-2.86629e-06
1.54013e-05
-3.51986e-06
1.53989e-05
-4.33094e-06
1.53903e-05
-5.33272e-06
-6.63792e-06
1.53793e-05
1.53335e-05
-3.81061e-09
1.53338e-05
-1.15126e-08
1.53344e-05
-1.97296e-08
1.53351e-05
-2.88405e-08
1.53359e-05
-3.91542e-08
1.53368e-05
-5.08385e-08
1.53376e-05
-6.40088e-08
1.53385e-05
-7.89962e-08
1.53394e-05
-9.6568e-08
1.53402e-05
-1.17823e-07
1.53411e-05
-1.43932e-07
1.53419e-05
-1.75967e-07
1.53426e-05
-2.14846e-07
1.53431e-05
-2.61555e-07
1.5343e-05
-3.17576e-07
1.53421e-05
-3.85214e-07
1.53403e-05
-4.67615e-07
1.53373e-05
-5.6862e-07
1.5333e-05
-6.92723e-07
1.53272e-05
-8.45214e-07
1.53196e-05
-1.03245e-06
1.53097e-05
-1.2622e-06
1.52968e-05
-1.54403e-06
1.52799e-05
-1.88981e-06
1.52575e-05
-2.31438e-06
1.52276e-05
-2.83636e-06
1.5187e-05
-3.47933e-06
1.51317e-05
-4.27563e-06
1.50549e-05
-5.25587e-06
-6.53351e-06
1.49505e-05
1.53334e-05
-3.90078e-09
1.53337e-05
-1.17784e-08
1.53341e-05
-2.0121e-08
1.53345e-05
-2.92772e-08
1.53349e-05
-3.95516e-08
1.53352e-05
-5.11399e-08
1.53354e-05
-6.41894e-08
1.53354e-05
-7.90365e-08
1.53353e-05
-9.64368e-08
1.5335e-05
-1.17478e-07
1.53343e-05
-1.4331e-07
1.53333e-05
-1.7496e-07
1.53318e-05
-2.13283e-07
1.53294e-05
-2.59178e-07
1.53259e-05
-3.14051e-07
1.53208e-05
-3.80173e-07
1.53139e-05
-4.60695e-07
1.53047e-05
-5.59458e-07
1.52929e-05
-6.80906e-07
1.52779e-05
-8.30221e-07
1.52591e-05
-1.01358e-06
1.52354e-05
-1.2385e-06
1.52055e-05
-1.5142e-06
1.51678e-05
-1.85206e-06
1.51196e-05
-2.26623e-06
1.50576e-05
-2.77436e-06
1.49768e-05
-3.39855e-06
1.48703e-05
-4.16906e-06
1.47276e-05
-5.11321e-06
-6.33909e-06
1.45332e-05
1.53334e-05
-3.96064e-09
1.53336e-05
-1.19516e-08
1.53338e-05
-2.03419e-08
1.5334e-05
-2.94435e-08
1.5334e-05
-3.95562e-08
1.53337e-05
-5.09153e-08
1.53333e-05
-6.37129e-08
1.53325e-05
-7.82817e-08
1.53314e-05
-9.5345e-08
1.53299e-05
-1.15961e-07
1.53278e-05
-1.4124e-07
1.5325e-05
-1.72149e-07
1.53212e-05
-2.09478e-07
1.53161e-05
-2.54046e-07
1.53092e-05
-3.07165e-07
1.53001e-05
-3.71042e-07
1.52882e-05
-4.48793e-07
1.52729e-05
-5.44219e-07
1.52537e-05
-6.61681e-07
1.52297e-05
-8.062e-07
1.51998e-05
-9.83707e-07
1.51627e-05
-1.20136e-06
1.51164e-05
-1.46793e-06
1.50585e-05
-1.79414e-06
1.49855e-05
-2.19324e-06
1.48927e-05
-2.68162e-06
1.47736e-05
-3.27944e-06
1.46187e-05
-4.01409e-06
1.44144e-05
-4.90892e-06
-6.06121e-06
1.41365e-05
1.53334e-05
-3.9961e-09
1.53335e-05
-1.20495e-08
1.53335e-05
-2.0415e-08
1.53335e-05
-2.93592e-08
1.53331e-05
-3.91867e-08
1.53324e-05
-5.01889e-08
1.53312e-05
-6.25968e-08
1.53297e-05
-7.67341e-08
1.53277e-05
-9.33022e-08
1.5325e-05
-1.13313e-07
1.53216e-05
-1.37794e-07
1.5317e-05
-1.67627e-07
1.53111e-05
-2.03541e-07
1.53033e-05
-2.46276e-07
1.52932e-05
-2.97035e-07
1.52801e-05
-3.57933e-07
1.52633e-05
-4.3203e-07
1.52422e-05
-5.23059e-07
1.52157e-05
-6.35256e-07
1.5183e-05
-7.7343e-07
1.51425e-05
-9.43197e-07
1.50924e-05
-1.15129e-06
1.50303e-05
-1.40588e-06
1.49532e-05
-1.71696e-06
1.48566e-05
-2.09667e-06
1.47349e-05
-2.55992e-06
1.45801e-05
-3.12459e-06
1.43805e-05
-3.81456e-06
1.41204e-05
-4.64877e-06
-5.70924e-06
1.37684e-05
1.53334e-05
-4.01489e-09
1.53334e-05
-1.20948e-08
1.53334e-05
-2.03698e-08
1.5333e-05
-2.90494e-08
1.53323e-05
-3.84522e-08
1.53311e-05
-4.89538e-08
1.53293e-05
-6.08629e-08
1.53271e-05
-7.44925e-08
1.53242e-05
-9.04504e-08
1.53206e-05
-1.09643e-07
1.53158e-05
-1.33022e-07
1.53096e-05
-1.61422e-07
1.53016e-05
-1.95517e-07
1.52912e-05
-2.35945e-07
1.5278e-05
-2.8377e-07
1.5261e-05
-3.40994e-07
1.52396e-05
-4.10597e-07
1.52128e-05
-4.96218e-07
1.51794e-05
-6.01935e-07
1.51383e-05
-7.32298e-07
1.50877e-05
-8.92546e-07
1.50253e-05
-1.08891e-06
1.49483e-05
-1.32892e-06
1.4853e-05
-1.62166e-06
1.47344e-05
-1.97808e-06
1.45859e-05
-2.41143e-06
1.43984e-05
-2.9371e-06
1.4159e-05
-3.57507e-06
1.38499e-05
-4.33975e-06
-5.29476e-06
1.34355e-05
1.53333e-05
-4.02812e-09
1.53334e-05
-1.21173e-08
1.53332e-05
-2.02346e-08
1.53327e-05
-2.85264e-08
1.53317e-05
-3.73934e-08
1.533e-05
-4.73039e-08
1.53277e-05
-5.85768e-08
1.53248e-05
-7.15335e-08
1.5321e-05
-8.67363e-08
1.53163e-05
-1.04949e-07
1.53103e-05
-1.27001e-07
1.53026e-05
-1.53686e-07
1.52927e-05
-1.85626e-07
1.528e-05
-2.23297e-07
1.52639e-05
-2.67587e-07
1.52433e-05
-3.20406e-07
1.52174e-05
-3.84679e-07
1.51851e-05
-4.6394e-07
1.51452e-05
-5.62056e-07
1.50962e-05
-6.83256e-07
1.5036e-05
-8.32344e-07
1.4962e-05
-1.015e-06
1.48712e-05
-1.23803e-06
1.47591e-05
-1.50955e-06
1.46202e-05
-1.83924e-06
1.44474e-05
-2.23858e-06
1.42307e-05
-2.72046e-06
1.39564e-05
-3.30076e-06
1.36063e-05
-3.98959e-06
-4.83067e-06
1.31422e-05
1.53334e-05
-4.0533e-09
1.53334e-05
-1.21593e-08
1.53332e-05
-2.0053e-08
1.53325e-05
-2.78532e-08
1.53312e-05
-3.60392e-08
1.5329e-05
-4.51487e-08
1.53261e-05
-5.56692e-08
1.53226e-05
-6.79684e-08
1.53182e-05
-8.23948e-08
1.53127e-05
-9.94708e-08
1.53056e-05
-1.19903e-07
1.52964e-05
-1.44486e-07
1.52847e-05
-1.73849e-07
1.52697e-05
-2.08324e-07
1.52507e-05
-2.48585e-07
1.52267e-05
-2.96401e-07
1.51966e-05
-3.54617e-07
1.51593e-05
-4.26638e-07
1.51134e-05
-5.16097e-07
1.5057e-05
-6.26864e-07
1.49879e-05
-7.63275e-07
1.49033e-05
-9.30422e-07
1.47996e-05
-1.13433e-06
1.46722e-05
-1.38211e-06
1.4515e-05
-1.68209e-06
1.43205e-05
-2.04401e-06
1.40783e-05
-2.47833e-06
1.37745e-05
-2.99697e-06
1.33912e-05
-3.60629e-06
-4.3302e-06
1.28908e-05
1.53334e-05
-4.11699e-09
1.53335e-05
-1.22793e-08
1.53333e-05
-1.98604e-08
1.53325e-05
-2.70106e-08
1.53309e-05
-3.44714e-08
1.53286e-05
-4.28167e-08
1.53253e-05
-5.23995e-08
1.5321e-05
-6.36351e-08
1.53156e-05
-7.70108e-08
1.5309e-05
-9.29285e-08
1.53009e-05
-1.11768e-07
1.52906e-05
-1.34135e-07
1.52773e-05
-1.60617e-07
1.52604e-05
-1.91413e-07
1.52389e-05
-2.27039e-07
1.52117e-05
-2.69204e-07
1.51777e-05
-3.20678e-07
1.51358e-05
-3.84681e-07
1.50842e-05
-4.64547e-07
1.50211e-05
-5.63742e-07
1.49439e-05
-6.86108e-07
1.48497e-05
-8.3614e-07
1.47344e-05
-1.01907e-06
1.45932e-05
-1.24091e-06
1.44198e-05
-1.50867e-06
1.42062e-05
-1.83042e-06
1.39423e-05
-2.21441e-06
1.36142e-05
-2.66894e-06
1.32055e-05
-3.19752e-06
-3.8059e-06
1.26812e-05
1.53335e-05
-4.25895e-09
1.53338e-05
-1.25602e-08
1.53336e-05
-1.97101e-08
1.53327e-05
-2.60852e-08
1.53309e-05
-3.26544e-08
1.5328e-05
-3.99414e-08
1.53241e-05
-4.84776e-08
1.53192e-05
-5.87917e-08
1.53134e-05
-7.11869e-08
1.53063e-05
-8.58046e-08
1.52973e-05
-1.02775e-07
1.52857e-05
-1.22547e-07
1.52708e-05
-1.45721e-07
1.52518e-05
-1.72451e-07
1.52279e-05
-2.0311e-07
1.5198e-05
-2.39255e-07
1.51607e-05
-2.83444e-07
1.51147e-05
-3.38675e-07
1.50582e-05
-4.08016e-07
1.4989e-05
-4.94559e-07
1.49045e-05
-6.01645e-07
1.48016e-05
-7.33173e-07
1.4676e-05
-8.9353e-07
1.45227e-05
-1.08759e-06
1.43351e-05
-1.32108e-06
1.41052e-05
-1.60053e-06
1.38231e-05
-1.93227e-06
1.34757e-05
-2.32152e-06
1.30483e-05
-2.77012e-06
-3.26868e-06
1.25111e-05
1.53336e-05
-4.5541e-09
1.53342e-05
-1.31186e-08
1.53341e-05
-1.96167e-08
1.53331e-05
-2.50513e-08
1.53312e-05
-3.07939e-08
1.53284e-05
-3.71902e-08
1.53245e-05
-4.44951e-08
1.5319e-05
-5.32864e-08
1.5312e-05
-6.42272e-08
1.53036e-05
-7.73946e-08
1.52933e-05
-9.24544e-08
1.52803e-05
-1.09562e-07
1.52639e-05
-1.29372e-07
1.52434e-05
-1.51908e-07
1.52176e-05
-1.77318e-07
1.51854e-05
-2.07038e-07
1.51454e-05
-2.43441e-07
1.5096e-05
-2.89269e-07
1.50352e-05
-3.47283e-07
1.49609e-05
-4.20175e-07
1.487e-05
-5.10825e-07
1.47595e-05
-6.22621e-07
1.4625e-05
-7.59084e-07
1.44613e-05
-9.23846e-07
1.42616e-05
-1.12141e-06
1.4018e-05
-1.35694e-06
1.3721e-05
-1.6352e-06
1.33584e-05
-1.95895e-06
1.2918e-05
-2.32974e-06
-2.72706e-06
1.23764e-05
1.53339e-05
-5.14365e-09
1.53349e-05
-1.4141e-08
1.53349e-05
-1.95693e-08
1.53338e-05
-2.39292e-08
1.53319e-05
-2.88882e-08
1.53289e-05
-3.41969e-08
1.53241e-05
-3.97016e-08
1.5317e-05
-4.62139e-08
1.53082e-05
-5.54046e-08
1.52986e-05
-6.77922e-08
1.52883e-05
-8.21881e-08
1.5276e-05
-9.72208e-08
1.52596e-05
-1.12984e-07
1.52375e-05
-1.29861e-07
1.52091e-05
-1.48902e-07
1.5174e-05
-1.71915e-07
1.51312e-05
-2.00688e-07
1.50791e-05
-2.37114e-07
1.50151e-05
-2.8333e-07
1.49366e-05
-3.41664e-07
1.48405e-05
-4.14737e-07
1.47236e-05
-5.05687e-07
1.45817e-05
-6.17158e-07
1.44092e-05
-7.51396e-07
1.41996e-05
-9.11763e-07
1.39449e-05
-1.10225e-06
1.36361e-05
-1.32639e-06
1.32621e-05
-1.58502e-06
1.28135e-05
-1.88105e-06
-2.18621e-06
1.22726e-05
1.53345e-05
-6.28936e-09
1.53361e-05
-1.57908e-08
1.53362e-05
-1.96254e-08
1.53351e-05
-2.28714e-08
1.53332e-05
-2.69412e-08
1.53299e-05
-3.09364e-08
1.53247e-05
-3.44649e-08
1.53171e-05
-3.86178e-08
1.53075e-05
-4.57982e-08
1.52962e-05
-5.65233e-08
1.5283e-05
-6.89384e-08
1.52666e-05
-8.08428e-08
1.52468e-05
-9.3247e-08
1.52234e-05
-1.06438e-07
1.51954e-05
-1.20897e-07
1.51614e-05
-1.37933e-07
1.51193e-05
-1.58505e-07
1.50664e-05
-1.84221e-07
1.50002e-05
-2.17151e-07
1.49181e-05
-2.5956e-07
1.48173e-05
-3.13954e-07
1.4695e-05
-3.83359e-07
1.45471e-05
-4.69254e-07
1.43679e-05
-5.72225e-07
1.41508e-05
-6.94668e-07
1.38881e-05
-8.39574e-07
1.35712e-05
-1.00949e-06
1.31898e-05
-1.20361e-06
1.2737e-05
-1.42821e-06
-1.64686e-06
1.21976e-05
1.53357e-05
-8.62052e-09
1.53378e-05
-1.79166e-08
1.53379e-05
-1.97081e-08
1.5337e-05
-2.20378e-08
1.53353e-05
-2.51699e-08
1.53323e-05
-2.79909e-08
1.53279e-05
-2.99954e-08
1.53202e-05
-3.09679e-08
1.53067e-05
-3.22867e-08
1.52865e-05
-3.63716e-08
1.52634e-05
-4.5794e-08
1.52425e-05
-5.99016e-08
1.52259e-05
-7.67018e-08
1.52106e-05
-9.10919e-08
1.51906e-05
-1.00891e-07
1.51613e-05
-1.08646e-07
1.51195e-05
-1.16722e-07
1.50637e-05
-1.28484e-07
1.49932e-05
-1.46652e-07
1.49067e-05
-1.72989e-07
1.4802e-05
-2.09238e-07
1.46765e-05
-2.57885e-07
1.45256e-05
-3.18393e-07
1.4343e-05
-3.89614e-07
1.41219e-05
-4.73559e-07
1.38547e-05
-5.72366e-07
1.35329e-05
-6.87653e-07
1.31464e-05
-8.17144e-07
1.26901e-05
-9.71949e-07
-1.09912e-06
1.21424e-05
1.53394e-05
-1.46989e-08
1.53414e-05
-1.9936e-08
1.5341e-05
-1.92923e-08
1.53393e-05
-2.03669e-08
1.53361e-05
-2.1895e-08
1.53305e-05
-2.23927e-08
1.53217e-05
-2.12176e-08
1.53096e-05
-1.89206e-08
1.52958e-05
-1.84678e-08
1.52832e-05
-2.37317e-08
1.52728e-05
-3.54106e-08
1.52622e-05
-4.92603e-08
1.52478e-05
-6.23016e-08
1.52266e-05
-6.99738e-08
1.51968e-05
-7.1039e-08
1.51569e-05
-6.87937e-08
1.51067e-05
-6.64864e-08
1.50459e-05
-6.76558e-08
1.49736e-05
-7.43914e-08
1.48882e-05
-8.76141e-08
1.4786e-05
-1.06993e-07
1.46594e-05
-1.31339e-07
1.45028e-05
-1.61743e-07
1.43125e-05
-1.99338e-07
1.40825e-05
-2.4355e-07
1.3805e-05
-2.9481e-07
1.3471e-05
-3.53713e-07
1.30731e-05
-4.19184e-07
1.26005e-05
-4.994e-07
-5.13959e-07
1.20153e-05
1.53186e-05
1.52987e-05
1.52794e-05
1.5259e-05
1.52371e-05
1.52148e-05
1.51935e-05
1.51746e-05
1.51561e-05
1.51324e-05
1.5097e-05
1.50477e-05
1.49854e-05
1.49155e-05
1.48444e-05
1.47756e-05
1.47091e-05
1.46415e-05
1.45671e-05
1.44795e-05
1.43725e-05
1.42412e-05
1.40794e-05
1.38801e-05
1.36365e-05
1.33417e-05
1.2988e-05
1.25688e-05
1.20694e-05
1.15555e-05
1.86369e-05
-8.69741e-06
8.98252e-06
1.83878e-05
-8.87324e-06
9.1224e-06
1.81093e-05
-9.05267e-06
9.33116e-06
1.7802e-05
-9.22799e-06
9.53525e-06
1.74697e-05
-9.40593e-06
9.73825e-06
1.71165e-05
-9.58993e-06
9.94314e-06
1.67448e-05
-9.78137e-06
1.0153e-05
1.63562e-05
-9.98126e-06
1.03699e-05
1.59512e-05
-1.01905e-05
1.05955e-05
1.55298e-05
-1.04097e-05
1.08311e-05
1.50914e-05
-1.06394e-05
1.10778e-05
1.4635e-05
-1.088e-05
1.13364e-05
1.41596e-05
-1.11324e-05
1.16079e-05
1.36641e-05
-1.13979e-05
1.18933e-05
1.31476e-05
-1.1678e-05
1.21945e-05
1.26087e-05
-1.19747e-05
1.25135e-05
1.20459e-05
-1.22903e-05
1.28531e-05
1.14574e-05
-1.26279e-05
1.32163e-05
1.08407e-05
-1.29907e-05
1.36074e-05
1.01927e-05
-1.33833e-05
1.40313e-05
9.50935e-06
-1.38106e-05
1.4494e-05
8.78543e-06
-1.42793e-05
1.50032e-05
8.01415e-06
-1.47972e-05
1.55685e-05
7.18669e-06
-1.53747e-05
1.62021e-05
6.29035e-06
-1.60235e-05
1.69199e-05
5.31157e-06
-1.67612e-05
1.774e-05
4.22847e-06
-1.76053e-05
1.86884e-05
2.97571e-06
-1.86033e-05
1.9856e-05
1.66008e-06
-1.96445e-05
2.09601e-05
-2.13398e-05
2.29999e-05
1.87427e-05
-8.42486e-06
1.8439e-05
-8.56957e-06
1.81096e-05
-8.72327e-06
1.7763e-05
-8.88137e-06
1.74028e-05
-9.04573e-06
1.70304e-05
-9.21757e-06
1.66461e-05
-9.39709e-06
1.62494e-05
-9.58447e-06
1.58389e-05
-9.78007e-06
1.54135e-05
-9.9843e-06
1.49718e-05
-1.01977e-05
1.45127e-05
-1.04209e-05
1.40353e-05
-1.0655e-05
1.35387e-05
-1.09012e-05
1.30217e-05
-1.11611e-05
1.24833e-05
-1.14362e-05
1.19217e-05
-1.17287e-05
1.13349e-05
-1.20411e-05
1.07204e-05
-1.23763e-05
1.0075e-05
-1.27379e-05
9.39462e-06
-1.31303e-05
8.67408e-06
-1.35588e-05
7.90668e-06
-1.40298e-05
7.08371e-06
-1.45517e-05
6.19379e-06
-1.51336e-05
5.22226e-06
-1.57897e-05
4.14817e-06
-1.65312e-05
2.93708e-06
-1.73922e-05
1.6121e-06
-1.83195e-05
-1.97277e-05
1.86301e-05
-8.11546e-06
1.83048e-05
-8.24429e-06
1.79652e-05
-8.38364e-06
1.7615e-05
-8.53114e-06
1.72548e-05
-8.68553e-06
1.68834e-05
-8.84622e-06
1.64996e-05
-9.01329e-06
1.61023e-05
-9.18712e-06
1.56904e-05
-9.3682e-06
1.52632e-05
-9.55711e-06
1.482e-05
-9.75448e-06
1.43602e-05
-9.9611e-06
1.38831e-05
-1.01779e-05
1.33877e-05
-1.04058e-05
1.28729e-05
-1.06462e-05
1.23372e-05
-1.09005e-05
1.1779e-05
-1.11705e-05
1.11961e-05
-1.14582e-05
1.05859e-05
-1.1766e-05
9.94505e-06
-1.20971e-05
9.26958e-06
-1.24548e-05
8.55428e-06
-1.28435e-05
7.79256e-06
-1.32681e-05
6.97597e-06
-1.37351e-05
6.09361e-06
-1.42512e-05
5.13125e-06
-1.48274e-05
4.07022e-06
-1.54701e-05
2.88334e-06
-1.62053e-05
1.5647e-06
-1.70009e-05
-1.8163e-05
1.85082e-05
-7.79387e-06
1.81757e-05
-7.91179e-06
1.78314e-05
-8.03933e-06
1.74763e-05
-8.17608e-06
1.71104e-05
-8.3196e-06
1.67327e-05
-8.46848e-06
1.63423e-05
-8.62295e-06
1.59389e-05
-8.7837e-06
1.5522e-05
-8.95127e-06
1.5091e-05
-9.12612e-06
1.46453e-05
-9.30878e-06
1.41841e-05
-9.49989e-06
1.37064e-05
-9.70023e-06
1.32113e-05
-9.91068e-06
1.26973e-05
-1.01323e-05
1.21631e-05
-1.03663e-05
1.16068e-05
-1.06142e-05
1.10264e-05
-1.08777e-05
1.04191e-05
-1.11588e-05
9.78178e-06
-1.14597e-05
9.11036e-06
-1.17834e-05
8.39978e-06
-1.21329e-05
7.6437e-06
-1.2512e-05
6.83408e-06
-1.29255e-05
5.96064e-06
-1.33778e-05
5.01029e-06
-1.3877e-05
3.96596e-06
-1.44258e-05
2.80564e-06
-1.5045e-05
1.51068e-06
-1.57059e-05
-1.66523e-05
1.83499e-05
-7.46209e-06
1.80086e-05
-7.57046e-06
1.76566e-05
-7.68735e-06
1.72944e-05
-7.81385e-06
1.69218e-05
-7.94704e-06
1.65383e-05
-8.08496e-06
1.61432e-05
-8.22787e-06
1.57361e-05
-8.37656e-06
1.53163e-05
-8.53151e-06
1.48833e-05
-8.69306e-06
1.44361e-05
-8.86164e-06
1.39741e-05
-9.03784e-06
1.34961e-05
-9.22231e-06
1.30013e-05
-9.41583e-06
1.24883e-05
-9.61927e-06
1.19556e-05
-9.83363e-06
1.14014e-05
-1.00601e-05
1.08237e-05
-1.03e-05
1.02198e-05
-1.05548e-05
9.58646e-06
-1.08264e-05
8.91978e-06
-1.11167e-05
8.2149e-06
-1.1428e-05
7.46579e-06
-1.17629e-05
6.66489e-06
-1.21246e-05
5.8027e-06
-1.25156e-05
4.86727e-06
-1.29416e-05
3.84317e-06
-1.34017e-05
2.71122e-06
-1.3913e-05
1.44868e-06
-1.44434e-05
-1.52037e-05
1.81564e-05
-7.12171e-06
1.78074e-05
-7.22148e-06
1.74488e-05
-7.32874e-06
1.70807e-05
-7.44571e-06
1.67028e-05
-7.56913e-06
1.63145e-05
-7.69669e-06
1.59153e-05
-7.82864e-06
1.55045e-05
-7.96584e-06
1.50818e-05
-8.10872e-06
1.46462e-05
-8.25755e-06
1.41973e-05
-8.41269e-06
1.37341e-05
-8.57463e-06
1.32557e-05
-8.74392e-06
1.2761e-05
-8.92118e-06
1.22488e-05
-9.10709e-06
1.17176e-05
-9.30242e-06
1.11656e-05
-9.50808e-06
1.05907e-05
-9.72503e-06
9.99022e-06
-9.95438e-06
9.36119e-06
-1.01974e-05
8.69981e-06
-1.04553e-05
8.00147e-06
-1.07297e-05
7.26054e-06
-1.1022e-05
6.47004e-06
-1.13341e-05
5.62131e-06
-1.16669e-05
4.7036e-06
-1.20239e-05
3.70313e-06
-1.24012e-05
2.60332e-06
-1.28132e-05
1.38133e-06
-1.32214e-05
-1.38223e-05
1.79268e-05
-6.77361e-06
1.75709e-05
-6.86552e-06
1.72061e-05
-6.96394e-06
1.68323e-05
-7.07194e-06
1.64493e-05
-7.18609e-06
1.60564e-05
-7.30385e-06
1.56532e-05
-7.42544e-06
1.52391e-05
-7.55175e-06
1.48136e-05
-7.68321e-06
1.43761e-05
-7.81998e-06
1.39257e-05
-7.96233e-06
1.34617e-05
-8.11065e-06
1.29832e-05
-8.26539e-06
1.2489e-05
-8.42701e-06
1.1978e-05
-8.59602e-06
1.14485e-05
-8.77299e-06
1.0899e-05
-8.95853e-06
1.03272e-05
-9.1533e-06
9.73089e-06
-9.35802e-06
9.10695e-06
-9.57343e-06
8.45188e-06
-9.80024e-06
7.7614e-06
-1.00392e-05
7.0303e-06
-1.02909e-05
6.25223e-06
-1.0556e-05
5.41945e-06
-1.08341e-05
4.52241e-06
-1.11268e-05
3.54906e-06
-1.14279e-05
2.48527e-06
-1.17494e-05
1.31013e-06
-1.20462e-05
-1.25122e-05
1.76612e-05
-6.41854e-06
1.72989e-05
-6.50324e-06
1.69285e-05
-6.59354e-06
1.65497e-05
-6.69312e-06
1.61621e-05
-6.7985e-06
1.57652e-05
-6.90699e-06
1.53586e-05
-7.0188e-06
1.49417e-05
-7.13483e-06
1.45139e-05
-7.25545e-06
1.40747e-05
-7.38075e-06
1.36233e-05
-7.5109e-06
1.31588e-05
-7.64622e-06
1.26805e-05
-7.78703e-06
1.21871e-05
-7.93366e-06
1.16776e-05
-8.08646e-06
1.11504e-05
-8.24578e-06
1.06038e-05
-8.41199e-06
1.0036e-05
-8.58547e-06
9.44452e-06
-8.76656e-06
8.82667e-06
-8.95557e-06
8.17913e-06
-9.1527e-06
7.49797e-06
-9.35805e-06
6.77849e-06
-9.57141e-06
6.01501e-06
-9.79254e-06
5.20069e-06
-1.00198e-05
4.3272e-06
-1.02534e-05
3.38429e-06
-1.0485e-05
2.3601e-06
-1.07252e-05
1.23671e-06
-1.09228e-05
-1.12755e-05
1.73602e-05
-6.05722e-06
1.69923e-05
-6.13532e-06
1.66169e-05
-6.21815e-06
1.62336e-05
-6.30984e-06
1.58421e-05
-6.40692e-06
1.54418e-05
-6.50667e-06
1.50322e-05
-6.60927e-06
1.4613e-05
-6.71558e-06
1.41834e-05
-6.82593e-06
1.3743e-05
-6.94033e-06
1.3291e-05
-7.0589e-06
1.28267e-05
-7.18185e-06
1.2349e-05
-7.30939e-06
1.18571e-05
-7.44172e-06
1.13496e-05
-7.57903e-06
1.08254e-05
-7.7215e-06
1.02826e-05
-7.86926e-06
9.71961e-06
-8.02244e-06
9.1341e-06
-8.18106e-06
8.52357e-06
-8.34504e-06
7.885e-06
-8.51414e-06
7.21486e-06
-8.68791e-06
6.50894e-06
-8.8655e-06
5.76225e-06
-9.04585e-06
4.96889e-06
-9.22641e-06
4.12173e-06
-9.40619e-06
3.21225e-06
-9.57549e-06
2.23071e-06
-9.74369e-06
1.16259e-06
-9.85472e-06
-1.01129e-05
1.70257e-05
-5.69039e-06
1.66529e-05
-5.76246e-06
1.62732e-05
-5.83847e-06
1.58861e-05
-5.92276e-06
1.54912e-05
-6.01201e-06
1.50881e-05
-6.10354e-06
1.46763e-05
-6.19747e-06
1.42553e-05
-6.29462e-06
1.38247e-05
-6.39527e-06
1.33837e-05
-6.49939e-06
1.29318e-05
-6.60699e-06
1.24682e-05
-6.71821e-06
1.19919e-05
-6.83316e-06
1.15021e-05
-6.95193e-06
1.09976e-05
-7.07454e-06
1.04772e-05
-7.20102e-06
9.93923e-06
-7.33132e-06
9.38209e-06
-7.46531e-06
8.80378e-06
-7.60274e-06
8.20196e-06
-7.74322e-06
7.57394e-06
-7.88612e-06
6.91657e-06