/*--------------------------------*- C++ -*----------------------------------*\
  =========                 |
  \\      /  F ield         | OpenFOAM: The Open Source CFD Toolbox
   \\    /   O peration     | Website:  https://openfoam.org
    \\  /    A nd           | Version:  11
     \\/     M anipulation  |
\*---------------------------------------------------------------------------*/
FoamFile
{
    format      ascii;
    class       volVectorField;
    location    "0.6";
    object      U;
}
// * * * * * * * * * * * * * * * * * * * * * * * * * * * * * * * * * * * * * //

dimensions      [0 1 -1 0 0 0 0];

internalField   nonuniform List<vector> 
12600
(
(0.412111 0.000109488 0)
(0.41184 0.000180035 0)
(0.411433 0.000184896 0)
(0.410974 0.000184769 0)
(0.410524 0.000188862 0)
(0.410093 0.00018611 0)
(0.409694 0.000158705 0)
(0.409372 9.41982e-05 0)
(0.409158 4.08967e-05 0)
(0.409008 4.27918e-05 0)
(0.408796 0.000167837 0)
(0.40837 0.000371754 0)
(0.407672 0.000447929 0)
(0.40679 0.000454144 0)
(0.405878 0.000401149 0)
(0.405099 0.000260942 0)
(0.404607 7.75053e-05 0)
(0.404483 -7.53459e-05 0)
(0.404691 -0.000169501 0)
(0.40515 -0.00021296 0)
(0.405785 -0.000248894 0)
(0.406546 -0.000270509 0)
(0.407409 -0.000285922 0)
(0.408377 -0.000304182 0)
(0.409481 -0.000335718 0)
(0.410761 -0.000382651 0)
(0.412277 -0.000452039 0)
(0.414084 -0.000532481 0)
(0.416306 -0.000668391 0)
(0.418577 -0.000801146 0)
(0.412493 0.000151877 0)
(0.412641 0.000276135 0)
(0.412777 0.00025751 0)
(0.412829 0.000249161 0)
(0.41287 0.000248972 0)
(0.412904 0.000245229 0)
(0.412914 0.000225791 0)
(0.412886 0.000178355 0)
(0.412813 0.000127569 0)
(0.412727 0.000102362 0)
(0.412738 0.000124504 0)
(0.412953 0.000222309 0)
(0.413326 0.000385364 0)
(0.413688 0.000493505 0)
(0.413966 0.000504656 0)
(0.414164 0.00042754 0)
(0.414318 0.000231979 0)
(0.414474 9.99912e-06 0)
(0.414673 -0.000195298 0)
(0.414939 -0.000357839 0)
(0.415288 -0.000471381 0)
(0.41573 -0.00055795 0)
(0.416286 -0.000641749 0)
(0.416962 -0.000739282 0)
(0.417825 -0.000861278 0)
(0.41881 -0.00101725 0)
(0.42012 -0.00121668 0)
(0.421533 -0.0014718 0)
(0.423623 -0.0018171 0)
(0.425233 -0.00223813 0)
(0.41248 8.50564e-05 0)
(0.412556 0.000152262 0)
(0.412648 0.000152442 0)
(0.412717 0.000150594 0)
(0.412772 0.000154796 0)
(0.412834 0.00015806 0)
(0.412914 0.000157588 0)
(0.41299 0.00015442 0)
(0.413002 0.000151783 0)
(0.412972 0.000145246 0)
(0.412806 0.000111152 0)
(0.412624 6.88296e-05 0)
(0.412615 5.9144e-05 0)
(0.412726 7.4684e-05 0)
(0.413103 8.39209e-05 0)
(0.4136 4.01378e-05 0)
(0.414068 -7.35068e-05 0)
(0.414428 -0.000214787 0)
(0.4147 -0.000360055 0)
(0.414951 -0.000500999 0)
(0.415246 -0.000638164 0)
(0.415632 -0.000776701 0)
(0.416142 -0.000926218 0)
(0.416798 -0.00110266 0)
(0.417627 -0.00131602 0)
(0.418658 -0.00158279 0)
(0.41993 -0.00191332 0)
(0.421486 -0.0023321 0)
(0.423339 -0.00288308 0)
(0.425641 -0.00333148 0)
(0.412473 5.45008e-05 0)
(0.412523 0.000127442 0)
(0.412599 0.000150855 0)
(0.412664 0.000155291 0)
(0.412716 0.000163003 0)
(0.41277 0.000161339 0)
(0.41283 0.000150089 0)
(0.412888 0.000126649 0)
(0.412937 0.000118116 0)
(0.41298 0.000146118 0)
(0.41304 0.000232737 0)
(0.413106 0.000290034 0)
(0.413167 0.000292437 0)
(0.413263 0.000250287 0)
(0.413404 0.000111495 0)
(0.413594 -5.14198e-05 0)
(0.41384 -0.000205865 0)
(0.414123 -0.000352385 0)
(0.414425 -0.000500418 0)
(0.414748 -0.000657219 0)
(0.415106 -0.000826957 0)
(0.415526 -0.00101487 0)
(0.41604 -0.00123013 0)
(0.416682 -0.00148536 0)
(0.417483 -0.00179285 0)
(0.418477 -0.0021701 0)
(0.4197 -0.00263618 0)
(0.421207 -0.00320451 0)
(0.423001 -0.00393802 0)
(0.425346 -0.00452437 0)
(0.412468 3.8342e-05 0)
(0.412503 9.6729e-05 0)
(0.412562 0.000118688 0)
(0.41262 0.000120176 0)
(0.412671 0.000116492 0)
(0.412726 0.00010982 0)
(0.412787 0.000102897 0)
(0.412848 0.00010603 0)
(0.412893 0.000121179 0)
(0.412925 0.000126888 0)
(0.412982 0.000106312 0)
(0.4131 6.48531e-05 0)
(0.413266 3.50318e-05 0)
(0.413452 -1.0774e-05 0)
(0.413631 -8.72586e-05 0)
(0.413793 -0.000189104 0)
(0.413957 -0.000325525 0)
(0.414146 -0.000485959 0)
(0.414376 -0.000655623 0)
(0.414656 -0.000833328 0)
(0.414993 -0.00102795 0)
(0.415401 -0.00125183 0)
(0.4159 -0.00151829 0)
(0.416518 -0.00184143 0)
(0.417283 -0.00223603 0)
(0.418232 -0.00271969 0)
(0.419398 -0.00331429 0)
(0.420844 -0.00403167 0)
(0.422564 -0.00494164 0)
(0.424874 -0.00578113 0)
(0.412466 2.74736e-05 0)
(0.412491 7.21396e-05 0)
(0.412538 9.28849e-05 0)
(0.412591 9.58985e-05 0)
(0.41264 9.38177e-05 0)
(0.41269 8.90996e-05 0)
(0.412745 8.23724e-05 0)
(0.412807 7.54047e-05 0)
(0.412878 7.20417e-05 0)
(0.412959 7.95626e-05 0)
(0.413054 9.07573e-05 0)
(0.413164 8.62775e-05 0)
(0.413286 6.68974e-05 0)
(0.413421 2.1252e-05 0)
(0.41357 -7.72025e-05 0)
(0.413729 -0.000221458 0)
(0.4139 -0.000393894 0)
(0.414088 -0.000580374 0)
(0.414304 -0.000774771 0)
(0.414561 -0.000981106 0)
(0.414875 -0.0012105 0)
(0.415258 -0.00147749 0)
(0.415729 -0.00179776 0)
(0.416313 -0.00218746 0)
(0.417034 -0.00266387 0)
(0.417928 -0.00324685 0)
(0.419026 -0.00396209 0)
(0.420395 -0.00482548 0)
(0.422024 -0.00591256 0)
(0.424252 -0.0070056 0)
(0.412464 1.99013e-05 0)
(0.412483 5.30955e-05 0)
(0.412522 7.05081e-05 0)
(0.412569 7.38214e-05 0)
(0.412617 6.97594e-05 0)
(0.412664 5.98491e-05 0)
(0.412714 4.71939e-05 0)
(0.412771 3.98496e-05 0)
(0.412841 4.20036e-05 0)
(0.412921 4.33462e-05 0)
(0.413012 2.92539e-05 0)
(0.41312 -7.52914e-06 0)
(0.413247 -6.14951e-05 0)
(0.413386 -0.000129119 0)
(0.413532 -0.000221706 0)
(0.413685 -0.000346846 0)
(0.413849 -0.000503237 0)
(0.414025 -0.000686212 0)
(0.414222 -0.000891137 0)
(0.414455 -0.00111931 0)
(0.41474 -0.00137969 0)
(0.415092 -0.00168648 0)
(0.415528 -0.00205644 0)
(0.41607 -0.00250769 0)
(0.416739 -0.00306021 0)
(0.417568 -0.00373681 0)
(0.418587 -0.00456661 0)
(0.419862 -0.00557162 0)
(0.421381 -0.00682869 0)
(0.423493 -0.00816982 0)
(0.412463 1.42125e-05 0)
(0.412479 3.79611e-05 0)
(0.412511 5.09665e-05 0)
(0.412552 5.21482e-05 0)
(0.412596 4.5062e-05 0)
(0.412642 3.39655e-05 0)
(0.41269 2.32475e-05 0)
(0.412747 1.3968e-05 0)
(0.412813 3.30364e-06 0)
(0.41289 -1.06944e-05 0)
(0.41298 -2.84687e-05 0)
(0.413088 -5.45253e-05 0)
(0.413211 -9.17502e-05 0)
(0.413343 -0.000154438 0)
(0.413478 -0.000253558 0)
(0.413617 -0.000393585 0)
(0.413763 -0.000569297 0)
(0.413921 -0.000771955 0)
(0.4141 -0.000996802 0)
(0.414314 -0.0012477 0)
(0.414577 -0.00153655 0)
(0.4149 -0.00187977 0)
(0.4153 -0.00229563 0)
(0.415793 -0.00280375 0)
(0.416403 -0.00342622 0)
(0.417158 -0.00418881 0)
(0.418086 -0.00512435 0)
(0.419251 -0.00626206 0)
(0.420639 -0.00767894 0)
(0.422605 -0.00925932 0)
(0.412463 9.74368e-06 0)
(0.412475 2.5504e-05 0)
(0.412502 3.33927e-05 0)
(0.41254 3.21228e-05 0)
(0.412581 2.37902e-05 0)
(0.412624 1.08628e-05 0)
(0.412668 -4.24885e-06 0)
(0.412722 -1.90483e-05 0)
(0.412786 -3.25415e-05 0)
(0.412858 -4.80966e-05 0)
(0.41294 -7.2094e-05 0)
(0.413039 -0.000110894 0)
(0.413152 -0.000165916 0)
(0.413273 -0.000241629 0)
(0.413399 -0.000345225 0)
(0.413532 -0.000482373 0)
(0.413674 -0.000653784 0)
(0.413822 -0.000857266 0)
(0.413985 -0.00109185 0)
(0.414175 -0.00136163 0)
(0.414408 -0.00167715 0)
(0.414694 -0.00205406 0)
(0.415049 -0.00251123 0)
(0.415487 -0.00307001 0)
(0.416029 -0.003755 0)
(0.4167 -0.00459512 0)
(0.417526 -0.00562679 0)
(0.418567 -0.00688654 0)
(0.419805 -0.00845102 0)
(0.421592 -0.0102577 0)
(0.412462 6.05055e-06 0)
(0.412473 1.4998e-05 0)
(0.412496 1.80381e-05 0)
(0.41253 1.3878e-05 0)
(0.412568 3.13519e-06 0)
(0.412608 -1.22019e-05 0)
(0.41265 -2.89275e-05 0)
(0.412701 -4.54561e-05 0)
(0.412763 -6.42756e-05 0)
(0.41283 -8.89437e-05 0)
(0.412905 -0.000121847 0)
(0.412993 -0.000164785 0)
(0.413098 -0.000220034 0)
(0.41321 -0.000294792 0)
(0.413325 -0.000399417 0)
(0.413446 -0.000540597 0)
(0.413573 -0.000718663 0)
(0.413706 -0.000931001 0)
(0.41385 -0.00117742 0)
(0.414018 -0.00146354 0)
(0.414221 -0.00180117 0)
(0.41447 -0.00220675 0)
(0.414776 -0.0026999 0)
(0.415155 -0.0033032 0)
(0.415622 -0.00404317 0)
(0.416201 -0.0049515 0)
(0.416913 -0.0060681 0)
(0.417815 -0.00743663 0)
(0.418885 -0.00913335 0)
(0.420462 -0.0111485 0)
(0.412462 2.88325e-06 0)
(0.412471 5.88022e-06 0)
(0.412492 4.26066e-06 0)
(0.412522 -3.07025e-06 0)
(0.412557 -1.59983e-05 0)
(0.412595 -3.31061e-05 0)
(0.412635 -5.2104e-05 0)
(0.412682 -7.1979e-05 0)
(0.412737 -9.49639e-05 0)
(0.412796 -0.000124322 0)
(0.412862 -0.000161896 0)
(0.412944 -0.000209502 0)
(0.413042 -0.000270766 0)
(0.413144 -0.000352147 0)
(0.413249 -0.000461492 0)
(0.413359 -0.000604353 0)
(0.413473 -0.000782842 0)
(0.413591 -0.000997685 0)
(0.413715 -0.00125135 0)
(0.413856 -0.0015505 0)
(0.414025 -0.00190688 0)
(0.414232 -0.00233677 0)
(0.414486 -0.00286021 0)
(0.414799 -0.00350089 0)
(0.415186 -0.00428711 0)
(0.415665 -0.00525313 0)
(0.416255 -0.00644196 0)
(0.417004 -0.00790389 0)
(0.41789 -0.00971456 0)
(0.419226 -0.011915 0)
(0.412462 1.7246e-07 0)
(0.41247 -2.0931e-06 0)
(0.412489 -8.11209e-06 0)
(0.412516 -1.8595e-05 0)
(0.412549 -3.37247e-05 0)
(0.412583 -5.28269e-05 0)
(0.41262 -7.4109e-05 0)
(0.412664 -9.65067e-05 0)
(0.412719 -0.000122319 0)
(0.412775 -0.000155561 0)
(0.412834 -0.000198415 0)
(0.412903 -0.000251784 0)
(0.412986 -0.000318021 0)
(0.413076 -0.000402715 0)
(0.413169 -0.000513741 0)
(0.413266 -0.000657478 0)
(0.413367 -0.000837068 0)
(0.413468 -0.00105443 0)
(0.413571 -0.00131343 0)
(0.413685 -0.00162196 0)
(0.41382 -0.00199244 0)
(0.413982 -0.0024414 0)
(0.41418 -0.0029891 0)
(0.414424 -0.00365994 0)
(0.414726 -0.00448351 0)
(0.415099 -0.00549609 0)
(0.415558 -0.00674328 0)
(0.416143 -0.00828112 0)
(0.41683 -0.0101844 0)
(0.417898 -0.0125412 0)
(0.412462 -2.41373e-06 0)
(0.412469 -9.09653e-06 0)
(0.412486 -1.92101e-05 0)
(0.412511 -3.28522e-05 0)
(0.412541 -5.02963e-05 0)
(0.412573 -7.1203e-05 0)
(0.412607 -9.42101e-05 0)
(0.412648 -0.00011892 0)
(0.412696 -0.000148057 0)
(0.412745 -0.000185202 0)
(0.412797 -0.00023162 0)
(0.412862 -0.000287987 0)
(0.412938 -0.000357379 0)
(0.413017 -0.000445641 0)
(0.413097 -0.000559582 0)
(0.41318 -0.000704495 0)
(0.413265 -0.000883863 0)
(0.413346 -0.00110131 0)
(0.413426 -0.00136265 0)
(0.41351 -0.00167705 0)
(0.413607 -0.0020574 0)
(0.413722 -0.00252019 0)
(0.413862 -0.00308575 0)
(0.414035 -0.00377889 0)
(0.414247 -0.00463013 0)
(0.41451 -0.0056772 0)
(0.414832 -0.00696764 0)
(0.415243 -0.00856205 0)
(0.415719 -0.0105341 0)
(0.416494 -0.0130126 0)
(0.412462 -4.60253e-06 0)
(0.412468 -1.56288e-05 0)
(0.412484 -2.95399e-05 0)
(0.412507 -4.61163e-05 0)
(0.412535 -6.56377e-05 0)
(0.412565 -8.81537e-05 0)
(0.412596 -0.000112905 0)
(0.412634 -0.000139531 0)
(0.412679 -0.000170617 0)
(0.412724 -0.000210314 0)
(0.412769 -0.000260238 0)
(0.412823 -0.000320466 0)
(0.412888 -0.000393411 0)
(0.412956 -0.000484444 0)
(0.413024 -0.000599569 0)
(0.413094 -0.000743621 0)
(0.413162 -0.00092083 0)
(0.413224 -0.00113637 0)
(0.413278 -0.00139752 0)
(0.413331 -0.00171443 0)
(0.413389 -0.0021003 0)
(0.413456 -0.0025716 0)
(0.413536 -0.00314853 0)
(0.413635 -0.003856 0)
(0.413755 -0.00472496 0)
(0.413904 -0.005794 0)
(0.414084 -0.00711175 0)
(0.414316 -0.00874195 0)
(0.414572 -0.0107564 0)
(0.415035 -0.0133171 0)
(0.412461 -6.6659e-06 0)
(0.412468 -2.16869e-05 0)
(0.412482 -3.9094e-05 0)
(0.412504 -5.84026e-05 0)
(0.41253 -7.9881e-05 0)
(0.412558 -0.000103892 0)
(0.412586 -0.000130033 0)
(0.412621 -0.00015831 0)
(0.412661 -0.000191563 0)
(0.412701 -0.000233644 0)
(0.412741 -0.000285707 0)
(0.412789 -0.000347825 0)
(0.412845 -0.000422698 0)
(0.412902 -0.000515685 0)
(0.412957 -0.000631857 0)
(0.413012 -0.000774852 0)
(0.413062 -0.000948825 0)
(0.413102 -0.00116023 0)
(0.41313 -0.00141807 0)
(0.413151 -0.00173369 0)
(0.413169 -0.00212066 0)
(0.413186 -0.00259512 0)
(0.413206 -0.00317686 0)
(0.413229 -0.0038905 0)
(0.413257 -0.00476697 0)
(0.41329 -0.00584504 0)
(0.413326 -0.00717359 0)
(0.413375 -0.00881781 0)
(0.413407 -0.0108469 0)
(0.413545 -0.0134458 0)
(0.412461 -8.6141e-06 0)
(0.412468 -2.74107e-05 0)
(0.412481 -4.81037e-05 0)
(0.412502 -6.99602e-05 0)
(0.412527 -9.31563e-05 0)
(0.412552 -0.000118297 0)
(0.412577 -0.00014553 0)
(0.412608 -0.000175161 0)
(0.412645 -0.000209987 0)
(0.412682 -0.0002538 0)
(0.412716 -0.000307708 0)
(0.412756 -0.000371671 0)
(0.412802 -0.000448263 0)
(0.41285 -0.000542315 0)
(0.412894 -0.00065768 0)
(0.412935 -0.000797198 0)
(0.412967 -0.000965645 0)
(0.412984 -0.00117089 0)
(0.412984 -0.00142316 0)
(0.412971 -0.00173441 0)
(0.412949 -0.00211826 0)
(0.412916 -0.0025905 0)
(0.412875 -0.00317036 0)
(0.412822 -0.00388193 0)
(0.412757 -0.00475564 0)
(0.412674 -0.00582975 0)
(0.412567 -0.00715244 0)
(0.412432 -0.00878854 0)
(0.41224 -0.0108038 0)
(0.412051 -0.0133947 0)
(0.412461 -1.05016e-05 0)
(0.412467 -3.29435e-05 0)
(0.412481 -5.67533e-05 0)
(0.412501 -8.09605e-05 0)
(0.412524 -0.000105579 0)
(0.412548 -0.000131376 0)
(0.41257 -0.000159243 0)
(0.412598 -0.000190344 0)
(0.412632 -0.000227173 0)
(0.412664 -0.000272232 0)
(0.412693 -0.000326312 0)
(0.412725 -0.000390412 0)
(0.412764 -0.000468011 0)
(0.412803 -0.000563162 0)
(0.412837 -0.000677409 0)
(0.412863 -0.0008121 0)
(0.412877 -0.000972704 0)
(0.41287 -0.0011689 0)
(0.412842 -0.0014124 0)
(0.412795 -0.00171577 0)
(0.412731 -0.00209242 0)
(0.412649 -0.00255739 0)
(0.412546 -0.00312903 0)
(0.412419 -0.00383053 0)
(0.412261 -0.00469136 0)
(0.412064 -0.00574869 0)
(0.411816 -0.00704904 0)
(0.4115 -0.00865514 0)
(0.411089 -0.0106283 0)
(0.410578 -0.0131648 0)
(0.412461 -1.23859e-05 0)
(0.412467 -3.84333e-05 0)
(0.412481 -6.52218e-05 0)
(0.412501 -9.15866e-05 0)
(0.412523 -0.000117288 0)
(0.412545 -0.000143252 0)
(0.412565 -0.000171549 0)
(0.41259 -0.00020402 0)
(0.41262 -0.000242033 0)
(0.412648 -0.000287397 0)
(0.412673 -0.000341871 0)
(0.412701 -0.00040701 0)
(0.412734 -0.000485534 0)
(0.412765 -0.000579905 0)
(0.412787 -0.000690097 0)
(0.412797 -0.000817239 0)
(0.412789 -0.000967923 0)
(0.412758 -0.00115317 0)
(0.412701 -0.00138563 0)
(0.412621 -0.00167815 0)
(0.412518 -0.0020437 0)
(0.412387 -0.0024964 0)
(0.412225 -0.00305349 0)
(0.412025 -0.00373702 0)
(0.411777 -0.00457513 0)
(0.411469 -0.00560326 0)
(0.411083 -0.00686548 0)
(0.410594 -0.00842066 0)
(0.409972 -0.0103249 0)
(0.409155 -0.0127624 0)
(0.412461 -1.43318e-05 0)
(0.412468 -4.4059e-05 0)
(0.412482 -7.37243e-05 0)
(0.412501 -0.000101928 0)
(0.412523 -0.000128416 0)
(0.412544 -0.00015429 0)
(0.412562 -0.00018242 0)
(0.412584 -0.000216098 0)
(0.412613 -0.000256129 0)
(0.412638 -0.000301936 0)
(0.412657 -0.000355044 0)
(0.412679 -0.000419014 0)
(0.412705 -0.000497618 0)
(0.412728 -0.000591197 0)
(0.41274 -0.000696371 0)
(0.412735 -0.000813706 0)
(0.412708 -0.000951932 0)
(0.412654 -0.00112408 0)
(0.41257 -0.0013434 0)
(0.412457 -0.0016223 0)
(0.412313 -0.00197287 0)
(0.412135 -0.00240825 0)
(0.411914 -0.00294456 0)
(0.411643 -0.00360252 0)
(0.411309 -0.00440855 0)
(0.410894 -0.0053958 0)
(0.410378 -0.00660512 0)
(0.409724 -0.00809011 0)
(0.408906 -0.00990104 0)
(0.407806 -0.0121995 0)
(0.412462 -1.6422e-05 0)
(0.412468 -5.00375e-05 0)
(0.412483 -8.25163e-05 0)
(0.412504 -0.000112186 0)
(0.412525 -0.000138896 0)
(0.412544 -0.00016451 0)
(0.412561 -0.000192844 0)
(0.412581 -0.000226807 0)
(0.412602 -0.000266558 0)
(0.412621 -0.000312567 0)
(0.412641 -0.000367012 0)
(0.412666 -0.000431808 0)
(0.412691 -0.000508848 0)
(0.412705 -0.000597653 0)
(0.412703 -0.000694598 0)
(0.412681 -0.000800666 0)
(0.412634 -0.000925343 0)
(0.412556 -0.00108238 0)
(0.412445 -0.00128562 0)
(0.4123 -0.00154751 0)
(0.412118 -0.00187939 0)
(0.411893 -0.00229309 0)
(0.411617 -0.0028032 0)
(0.411278 -0.0034287 0)
(0.410862 -0.004194 0)
(0.410346 -0.00512959 0)
(0.409708 -0.00627257 0)
(0.408902 -0.0076702 0)
(0.407904 -0.00936673 0)
(0.406553 -0.0114926 0)
(0.412462 -1.87664e-05 0)
(0.41247 -5.66484e-05 0)
(0.412486 -9.18749e-05 0)
(0.412508 -0.000122597 0)
(0.41253 -0.000149109 0)
(0.412548 -0.000173863 0)
(0.412562 -0.000201551 0)
(0.412581 -0.00023598 0)
(0.412604 -0.000277179 0)
(0.412623 -0.000324098 0)
(0.412636 -0.000377367 0)
(0.412652 -0.000439966 0)
(0.412672 -0.000515024 0)
(0.412682 -0.000599574 0)
(0.41267 -0.000687278 0)
(0.412633 -0.000779806 0)
(0.412566 -0.000888454 0)
(0.412465 -0.00102823 0)
(0.412327 -0.00121344 0)
(0.412152 -0.00145599 0)
(0.411934 -0.0017658 0)
(0.411667 -0.00215323 0)
(0.411338 -0.00263142 0)
(0.410935 -0.00321769 0)
(0.410441 -0.00393419 0)
(0.409832 -0.00480838 0)
(0.409081 -0.00587319 0)
(0.408137 -0.00716891 0)
(0.406977 -0.00873393 0)
(0.405413 -0.0106618 0)
(0.412462 -2.15599e-05 0)
(0.412471 -6.42649e-05 0)
(0.41249 -0.000102095 0)
(0.412514 -0.000133174 0)
(0.412537 -0.00015929 0)
(0.412554 -0.000183626 0)
(0.412568 -0.00020995 0)
(0.412583 -0.000242412 0)
(0.412599 -0.000283635 0)
(0.412615 -0.000333754 0)
(0.412631 -0.000390118 0)
(0.412649 -0.000451393 0)
(0.412661 -0.000520013 0)
(0.412659 -0.000593885 0)
(0.412637 -0.000667376 0)
(0.412591 -0.000744357 0)
(0.412512 -0.000837048 0)
(0.412392 -0.000959896 0)
(0.412228 -0.00112637 0)
(0.41202 -0.00134743 0)
(0.411765 -0.00163191 0)
(0.411455 -0.00198904 0)
(0.411077 -0.00243056 0)
(0.410615 -0.00297185 0)
(0.41005 -0.00363256 0)
(0.409356 -0.00443683 0)
(0.408502 -0.00541332 0)
(0.407437 -0.00659519 0)
(0.406135 -0.0080158 0)
(0.404395 -0.00972945 0)
(0.412463 -2.50162e-05 0)
(0.412474 -7.34178e-05 0)
(0.412497 -0.000113792 0)
(0.412524 -0.000144414 0)
(0.412546 -0.000168599 0)
(0.412564 -0.00019154 0)
(0.412577 -0.000218661 0)
(0.41259 -0.000252556 0)
(0.412605 -0.000292419 0)
(0.412618 -0.000338173 0)
(0.412628 -0.000391781 0)
(0.412649 -0.000454205 0)
(0.412661 -0.000524831 0)
(0.412652 -0.000598479 0)
(0.412621 -0.00066378 0)
(0.412558 -0.000722306 0)
(0.412457 -0.000789103 0)
(0.412313 -0.000883836 0)
(0.412125 -0.00102412 0)
(0.411892 -0.00122054 0)
(0.411608 -0.00147821 0)
(0.411262 -0.00180276 0)
(0.41084 -0.00220364 0)
(0.410324 -0.00269446 0)
(0.409694 -0.00329274 0)
(0.408923 -0.00401951 0)
(0.407978 -0.0048992 0)
(0.406806 -0.00595803 0)
(0.405384 -0.00722567 0)
(0.403505 -0.00871764 0)
(0.412463 -2.95903e-05 0)
(0.412479 -8.4888e-05 0)
(0.412507 -0.000126794 0)
(0.412537 -0.000156415 0)
(0.412562 -0.000180146 0)
(0.412578 -0.000200398 0)
(0.412588 -0.000221106 0)
(0.412598 -0.000251956 0)
(0.41261 -0.000298953 0)
(0.41262 -0.000355918 0)
(0.412628 -0.000410825 0)
(0.412637 -0.000457124 0)
(0.412641 -0.000500462 0)
(0.412629 -0.000550892 0)
(0.412592 -0.000602883 0)
(0.412524 -0.000651951 0)
(0.412415 -0.000709542 0)
(0.41226 -0.000791202 0)
(0.412053 -0.000912403 0)
(0.411793 -0.0010836 0)
(0.411477 -0.00130999 0)
(0.411093 -0.00159692 0)
(0.410628 -0.00195259 0)
(0.410062 -0.00238846 0)
(0.409374 -0.00291923 0)
(0.408535 -0.00356239 0)
(0.407511 -0.00433831 0)
(0.406248 -0.00526699 0)
(0.404724 -0.00637646 0)
(0.402741 -0.00764755 0)
(0.412465 -3.59521e-05 0)
(0.412485 -9.99529e-05 0)
(0.412522 -0.000142098 0)
(0.412557 -0.000167897 0)
(0.412581 -0.000189527 0)
(0.412597 -0.000211394 0)
(0.412612 -0.000233915 0)
(0.412622 -0.000260998 0)
(0.412631 -0.00029586 0)
(0.412629 -0.000344075 0)
(0.41263 -0.000410469 0)
(0.412634 -0.000484922 0)
(0.412631 -0.00055687 0)
(0.412609 -0.000614328 0)
(0.412559 -0.000634749 0)
(0.412475 -0.000641111 0)
(0.412353 -0.000655256 0)
(0.412186 -0.000699033 0)
(0.411967 -0.000788433 0)
(0.411693 -0.000929543 0)
(0.411355 -0.0011226 0)
(0.410942 -0.00136997 0)
(0.410441 -0.00167771 0)
(0.409832 -0.00205502 0)
(0.409095 -0.002514 0)
(0.408198 -0.00306871 0)
(0.407106 -0.00373573 0)
(0.405766 -0.0045294 0)
(0.404158 -0.00547886 0)
(0.402096 -0.00653619 0)
(0.412467 -4.54824e-05 0)
(0.412497 -0.000120274 0)
(0.412545 -0.00016065 0)
(0.412584 -0.000181294 0)
(0.412608 -0.000196496 0)
(0.412627 -0.000210911 0)
(0.412645 -0.000229347 0)
(0.412649 -0.00025866 0)
(0.412626 -0.000306161 0)
(0.412575 -0.000358666 0)
(0.41254 -0.000393451 0)
(0.412553 -0.000409623 0)
(0.41258 -0.000424792 0)
(0.412571 -0.000467695 0)
(0.412531 -0.000511008 0)
(0.412457 -0.000540476 0)
(0.412315 -0.000559972 0)
(0.412126 -0.000590806 0)
(0.411893 -0.000656351 0)
(0.411607 -0.00076736 0)
(0.411254 -0.000924947 0)
(0.410818 -0.00113069 0)
(0.410284 -0.00138831 0)
(0.409638 -0.00170428 0)
(0.408857 -0.00208774 0)
(0.407911 -0.0025492 0)
(0.406764 -0.00310182 0)
(0.405361 -0.00375489 0)
(0.403683 -0.00454318 0)
(0.401556 -0.00539809 0)
(0.412471 -6.01118e-05 0)
(0.412517 -0.000146717 0)
(0.412581 -0.000184019 0)
(0.412627 -0.000203698 0)
(0.412652 -0.000227424 0)
(0.412668 -0.000246944 0)
(0.412681 -0.000250029 0)
(0.412682 -0.000249027 0)
(0.412655 -0.000255674 0)
(0.412603 -0.000316246 0)
(0.412543 -0.000448343 0)
(0.412495 -0.000573725 0)
(0.41244 -0.000632095 0)
(0.412365 -0.000634447 0)
(0.412286 -0.000591468 0)
(0.412211 -0.000528715 0)
(0.412127 -0.000493648 0)
(0.412007 -0.000495757 0)
(0.411822 -0.000537122 0)
(0.411551 -0.000613336 0)
(0.411186 -0.000723659 0)
(0.410723 -0.000875397 0)
(0.410157 -0.00107426 0)
(0.409478 -0.00132422 0)
(0.408663 -0.00163025 0)
(0.407679 -0.00199786 0)
(0.406489 -0.00243523 0)
(0.405035 -0.00294471 0)
(0.403301 -0.00356791 0)
(0.401108 -0.00423439 0)
(0.412479 -8.89964e-05 0)
(0.412549 -0.000165411 0)
(0.41263 -0.000179942 0)
(0.412679 -0.000188765 0)
(0.412706 -0.000200021 0)
(0.412732 -0.000216134 0)
(0.412756 -0.000230181 0)
(0.412756 -0.000242425 0)
(0.412732 -0.00026054 0)
(0.412614 -0.000267675 0)
(0.41233 -0.000271298 0)
(0.411991 -0.000280608 0)
(0.411814 -0.000300771 0)
(0.411815 -0.000368879 0)
(0.411945 -0.000440516 0)
(0.412158 -0.000463689 0)
(0.412263 -0.000442489 0)
(0.412225 -0.000412194 0)
(0.412017 -0.000403112 0)
(0.411655 -0.000429356 0)
(0.411198 -0.00049624 0)
(0.410667 -0.000605932 0)
(0.410058 -0.0007578 0)
(0.409349 -0.000948328 0)
(0.40851 -0.00117634 0)
(0.407502 -0.00144454 0)
(0.406287 -0.00175951 0)
(0.404801 -0.00211717 0)
(0.403031 -0.0025607 0)
(0.400737 -0.00296933 0)
(0.41249 -0.0001547 0)
(0.412643 -0.000288206 0)
(0.412754 -0.000273423 0)
(0.412779 -0.000271469 0)
(0.412786 -0.000280434 0)
(0.412779 -0.000280592 0)
(0.412743 -0.00026709 0)
(0.412658 -0.000233566 0)
(0.41251 -0.000196399 0)
(0.412337 -0.000178899 0)
(0.412264 -0.000216725 0)
(0.412342 -0.000344421 0)
(0.412499 -0.000542197 0)
(0.412624 -0.000692388 0)
(0.412652 -0.000722021 0)
(0.412564 -0.000686491 0)
(0.412366 -0.000558725 0)
(0.412084 -0.000406219 0)
(0.411745 -0.000279389 0)
(0.411359 -0.000215816 0)
(0.410917 -0.000226562 0)
(0.4104 -0.000293559 0)
(0.409791 -0.000396898 0)
(0.409066 -0.000528122 0)
(0.408202 -0.000683893 0)
(0.407168 -0.00086304 0)
(0.405933 -0.00106816 0)
(0.404445 -0.00129048 0)
(0.402711 -0.00158456 0)
(0.400068 -0.00155509 0)
(0.412109 -0.000110409 0)
(0.41183 -0.000183012 0)
(0.411407 -0.000190343 0)
(0.410924 -0.000191907 0)
(0.410441 -0.00019816 0)
(0.409966 -0.000200677 0)
(0.409514 -0.000175502 0)
(0.409125 -0.000114046 0)
(0.408828 -6.15378e-05 0)
(0.40858 -6.78493e-05 0)
(0.408253 -0.000206362 0)
(0.407685 -0.000412851 0)
(0.406818 -0.000492731 0)
(0.405723 -0.000513531 0)
(0.404546 -0.000473081 0)
(0.403454 -0.000334811 0)
(0.402588 -0.000161554 0)
(0.402002 -4.99622e-05 0)
(0.401646 -2.39096e-07 0)
(0.401421 1.42866e-05 0)
(0.401225 7.4765e-06 0)
(0.40097 -2.48802e-05 0)
(0.400588 -7.66913e-05 0)
(0.400033 -0.000136484 0)
(0.399275 -0.000202633 0)
(0.398282 -0.000274593 0)
(0.397025 -0.000356075 0)
(0.395471 -0.000434072 0)
(0.393596 -0.000584092 0)
(0.390268 -0.000311442 0)
(0.422154 -0.00176949 -1.2086e-18)
(0.425683 -0.00265443 -9.32127e-21)
(0.428342 -0.00354393 1.24686e-18)
(0.42998 -0.00456634 2.49696e-18)
(0.43108 -0.00575607 1.26993e-18)
(0.431953 -0.00709448 -1.25866e-18)
(0.432722 -0.00857329 1.27743e-18)
(0.433446 -0.0102017 0)
(0.434159 -0.0119899 1.28756e-18)
(0.434874 -0.0139448 -8.41142e-21)
(0.435585 -0.016077 9.01304e-20)
(0.436286 -0.0184047 0)
(0.436973 -0.0209547 -1.50338e-18)
(0.437649 -0.0237611 0)
(0.438318 -0.026867 0)
(0.438984 -0.030327 -1.6394e-18)
(0.439652 -0.0342113 -1.56186e-18)
(0.440325 -0.0386115 -5.56508e-22)
(0.441007 -0.0436482 1.5386e-18)
(0.4417 -0.0494828 2.27462e-19)
(0.44241 -0.0563336 -2.0912e-18)
(0.443138 -0.0645173 2.39905e-19)
(0.443903 -0.0744247 -1.23594e-19)
(0.444659 -0.086922 1.85263e-18)
(0.445659 -0.102171 2.51157e-19)
(0.446265 -0.124766 -1.26775e-19)
(0.448687 -0.148285 0)
(0.448192 -0.203733 -1.39983e-18)
(0.458814 -0.237135 -1.43131e-18)
(0.454216 -0.426825 0)
(0.427522 -0.00304841 1.21682e-18)
(0.428992 -0.00379997 -2.86913e-20)
(0.429955 -0.00481867 2.45874e-20)
(0.430447 -0.00601309 -1.26548e-18)
(0.430868 -0.00733369 -4.03586e-20)
(0.431394 -0.00877043 1.35852e-18)
(0.432004 -0.0103345 1.26703e-18)
(0.432649 -0.0120383 1.72049e-19)
(0.433303 -0.0138894 -8.81235e-20)
(0.43395 -0.0158977 1.43409e-18)
(0.434578 -0.0180802 1.57171e-18)
(0.435182 -0.0204614 1.42244e-18)
(0.435763 -0.0230707 1.65329e-18)
(0.436325 -0.0259437 1.49916e-18)
(0.436869 -0.0291244 1.64352e-18)
(0.437396 -0.0326687 3.4665e-18)
(0.437904 -0.0366487 1.63322e-18)
(0.438389 -0.0411581 -1.90612e-18)
(0.438846 -0.0463194 1.96631e-18)
(0.439268 -0.0522966 -1.18044e-19)
(0.439641 -0.0593115 1.22315e-19)
(0.439947 -0.0676783 2.03332e-18)
(0.440158 -0.0778146 0)
(0.440221 -0.0905012 -1.31187e-19)
(0.440172 -0.106196 2.32926e-18)
(0.439505 -0.12865 0)
(0.439622 -0.153498 2.19886e-18)
(0.436015 -0.207241 -1.77086e-18)
(0.440239 -0.243444 -4.2838e-20)
(0.426502 -0.426524 -5.80483e-19)
(0.427148 -0.0041586 -9.51566e-21)
(0.427924 -0.00500287 -9.62415e-21)
(0.428598 -0.00616731 -1.24318e-18)
(0.42917 -0.00747205 -4.02584e-20)
(0.429771 -0.00884608 4.12459e-20)
(0.430428 -0.0103043 -4.19568e-20)
(0.431083 -0.0118751 -1.32781e-18)
(0.431698 -0.0135762 0)
(0.432272 -0.0154213 0)
(0.432812 -0.0174276 0)
(0.433324 -0.0196157 -1.50414e-18)
(0.43381 -0.0220095 -8.22846e-20)
(0.434271 -0.0246369 -1.38504e-18)
(0.434705 -0.0275328 -1.62808e-18)
(0.435108 -0.030742 -1.77979e-18)
(0.435476 -0.0343216 -1.724e-18)
(0.435802 -0.0383449 1.36459e-19)
(0.436077 -0.0429062 1.71713e-18)
(0.436286 -0.0481293 -1.77273e-18)
(0.436412 -0.0541789 -1.23343e-19)
(0.436424 -0.0612787 0)
(0.436282 -0.0697404 -4.34794e-18)
(0.435924 -0.0800014 1.36356e-19)
(0.435245 -0.0927648 -2.27717e-18)
(0.434182 -0.108779 8.23526e-20)
(0.432128 -0.130861 0)
(0.43009 -0.157131 -4.73778e-18)
(0.423217 -0.208191 4.09242e-18)
(0.421264 -0.248797 -2.16922e-18)
(0.397469 -0.422716 6.02283e-19)
(0.426899 -0.00566651 0)
(0.427543 -0.00663041 -1.28433e-18)
(0.428124 -0.00781094 6.57587e-23)
(0.428663 -0.00908057 2.05742e-20)
(0.429191 -0.0104162 0)
(0.429714 -0.0118534 0)
(0.430214 -0.0134218 -1.40865e-18)
(0.430684 -0.0151337 0)
(0.431132 -0.0169977 9.18746e-20)
(0.43156 -0.0190272 -1.88701e-19)
(0.431965 -0.0212403 2.53107e-22)
(0.432342 -0.0236599 -1.48444e-18)
(0.432683 -0.0263148 1.02213e-19)
(0.432985 -0.0292418 1.59053e-18)
(0.43324 -0.0324871 1.0849e-19)
(0.433439 -0.0361089 1.69348e-18)
(0.433572 -0.040181 -1.83863e-18)
(0.433622 -0.0447983 -1.93172e-18)
(0.433567 -0.050085 0)
(0.433376 -0.0562064 1.94829e-18)
(0.433001 -0.0633865 1.33349e-19)
(0.432379 -0.0719359 2.32552e-18)
(0.431409 -0.0822948 -1.43675e-19)
(0.429945 -0.0951357 2.34287e-18)
(0.42778 -0.111323 -2.41276e-18)
(0.424314 -0.133154 0)
(0.419878 -0.160272 2.55832e-18)
(0.409882 -0.208916 -2.29189e-18)
(0.401351 -0.252621 2.22845e-18)
(0.367941 -0.416039 3.85401e-20)
(0.426371 -0.00708015 0)
(0.426873 -0.00805236 1.2809e-18)
(0.427311 -0.00920258 0)
(0.427753 -0.0104598 0)
(0.428199 -0.0118141 0)
(0.428634 -0.0132838 0)
(0.429049 -0.0148833 1.4297e-18)
(0.429439 -0.0166192 4.58939e-20)
(0.429803 -0.0185006 -4.71839e-20)
(0.430137 -0.0205436 0)
(0.430435 -0.0227694 0)
(0.430691 -0.0252035 1.02232e-19)
(0.4309 -0.0278763 -1.45366e-22)
(0.431056 -0.0308252 -1.83653e-18)
(0.431148 -0.0340966 0)
(0.431165 -0.0377486 -1.84214e-18)
(0.431089 -0.0418552 0)
(0.430897 -0.0465113 2.09854e-18)
(0.430556 -0.0518411 -2.58318e-19)
(0.430023 -0.0580091 -1.99234e-18)
(0.429234 -0.0652381 1.13119e-18)
(0.428099 -0.0738357 0)
(0.426479 -0.0842398 0)
(0.42418 -0.0970986 0)
(0.420869 -0.113331 1.34476e-18)
(0.415922 -0.134869 -1.39684e-18)
(0.409011 -0.16242 0)
(0.395943 -0.208613 -1.40947e-18)
(0.380671 -0.254611 -1.45002e-18)
(0.338041 -0.406509 6.42412e-19)
(0.425667 -0.00842364 6.31368e-19)
(0.426068 -0.0094197 6.65579e-19)
(0.426403 -0.0105817 6.91274e-19)
(0.42677 -0.0118548 6.43128e-19)
(0.427144 -0.0132275 7.6748e-19)
(0.427495 -0.0147098 6.74248e-19)
(0.427813 -0.0163146 7.37272e-19)
(0.428101 -0.0180532 -7.56632e-19)
(0.428357 -0.0199387 4.8296e-20)
(0.428575 -0.0219889 6.99826e-19)
(0.428751 -0.0242252 8.22735e-19)
(0.428877 -0.0266722 7.95237e-19)
(0.428947 -0.0293601 1.08675e-19)
(0.428949 -0.0323259 -9.0392e-19)
(0.42887 -0.035616 1.16055e-19)
(0.428692 -0.0392886 -2.40362e-19)
(0.428393 -0.0434174 -8.81338e-19)
(0.427943 -0.0480972 -1.04586e-18)
(0.427298 -0.0534509 0)
(0.426402 -0.0596415 -1.40761e-19)
(0.425174 -0.0668887 2.77549e-20)
(0.423497 -0.075495 1.5325e-19)
(0.421194 -0.0858905 1.14627e-18)
(0.418019 -0.0987013 2.53041e-19)
(0.413519 -0.114853 -3.117e-20)
(0.407035 -0.136032 1.54013e-18)
(0.397596 -0.163594 -9.65127e-20)
(0.381513 -0.20731 1.47438e-18)
(0.359419 -0.254678 1.60245e-18)
(0.308458 -0.393974 -7.61944e-19)
(0.424808 -0.00969394 -6.49509e-19)
(0.425117 -0.0107106 -6.53539e-19)
(0.425356 -0.0118804 -6.90115e-19)
(0.425636 -0.0131584 2.69837e-20)
(0.425926 -0.0145368 -1.4074e-18)
(0.426183 -0.0160248 -7.29744e-19)
(0.426402 -0.0176354 -1.59786e-18)
(0.426586 -0.0193805 8.89693e-20)
(0.426735 -0.0212735 -4.964e-20)
(0.42684 -0.0233311 -1.63436e-18)
(0.426894 -0.0255741 9.99984e-21)
(0.426888 -0.0280274 -8.08845e-19)
(0.426811 -0.0307215 8.47281e-19)
(0.42665 -0.0336937 -1.34042e-20)
(0.426389 -0.0369904 1.20261e-19)
(0.426005 -0.0406696 -1.24597e-19)
(0.425469 -0.0448041 1.02801e-18)
(0.424745 -0.0494872 1.06987e-18)
(0.423779 -0.0548403 1.41199e-19)
(0.4225 -0.0610229 8.97761e-19)
(0.42081 -0.0682503 -9.88994e-19)
(0.418565 -0.076817 -8.08617e-20)
(0.415549 -0.0871408 4.26517e-20)