/*--------------------------------*- C++ -*----------------------------------*\
  =========                 |
  \\      /  F ield         | OpenFOAM: The Open Source CFD Toolbox
   \\    /   O peration     | Website:  https://openfoam.org
    \\  /    A nd           | Version:  11
     \\/     M anipulation  |
\*---------------------------------------------------------------------------*/
FoamFile
{
    format      ascii;
    class       volScalarField;
    location    "4.4";
    object      p;
}
// * * * * * * * * * * * * * * * * * * * * * * * * * * * * * * * * * * * * * //

dimensions      [0 2 -2 0 0 0 0];

internalField   nonuniform List<scalar> 
12600
(
1.03101
1.03087
1.0308
1.03077
1.03074
1.03069
1.03063
1.03057
1.03049
1.0304
1.03029
1.03016
1.03
1.02981
1.02957
1.02929
1.02894
1.02852
1.028
1.02735
1.02657
1.02561
1.02442
1.02293
1.02108
1.01876
1.01585
1.01216
1.00752
1.00156
1.03094
1.03086
1.0308
1.03077
1.03074
1.03069
1.03063
1.03057
1.03049
1.0304
1.0303
1.03017
1.03001
1.02982
1.02959
1.02931
1.02897
1.02855
1.02804
1.0274
1.02663
1.02568
1.0245
1.02304
1.02121
1.01892
1.01603
1.01239
1.00775
1.00185
1.0309
1.03087
1.03082
1.03078
1.03074
1.0307
1.03064
1.03058
1.0305
1.03041
1.03031
1.03018
1.03003
1.02984
1.02962
1.02934
1.02901
1.0286
1.0281
1.02748
1.02673
1.0258
1.02465
1.02322
1.02143
1.01919
1.01636
1.01279
1.0082
1.00241
1.03088
1.03086
1.03082
1.03078
1.03074
1.0307
1.03065
1.03059
1.03051
1.03043
1.03033
1.0302
1.03005
1.02987
1.02966
1.02939
1.02907
1.02868
1.02819
1.0276
1.02687
1.02597
1.02486
1.02348
1.02175
1.01958
1.01684
1.01338
1.0089
1.00326
1.03087
1.03085
1.03082
1.03079
1.03075
1.03071
1.03066
1.0306
1.03053
1.03045
1.03035
1.03023
1.03009
1.02992
1.02971
1.02946
1.02915
1.02877
1.02831
1.02775
1.02705
1.0262
1.02514
1.02382
1.02217
1.0201
1.01748
1.01415
1.00982
1.00438
1.03086
1.03085
1.03083
1.03079
1.03076
1.03072
1.03067
1.03062
1.03055
1.03047
1.03038
1.03027
1.03013
1.02997
1.02977
1.02953
1.02924
1.02889
1.02846
1.02792
1.02727
1.02647
1.02547
1.02423
1.02268
1.02073
1.01825
1.0151
1.01098
1.00579
1.03086
1.03085
1.03083
1.0308
1.03077
1.03073
1.03069
1.03063
1.03057
1.0305
1.03041
1.03031
1.03018
1.03003
1.02985
1.02963
1.02936
1.02903
1.02863
1.02813
1.02753
1.02678
1.02586
1.02471
1.02328
1.02146
1.01916
1.01622
1.01235
1.00746
1.03086
1.03085
1.03084
1.03081
1.03078
1.03074
1.0307
1.03066
1.0306
1.03053
1.03045
1.03035
1.03024
1.0301
1.02993
1.02973
1.02948
1.02918
1.02882
1.02837
1.02782
1.02714
1.0263
1.02526
1.02395
1.0223
1.02019
1.0175
1.01392
1.00939
1.03087
1.03086
1.03084
1.03082
1.03079
1.03076
1.03072
1.03068
1.03063
1.03056
1.03049
1.0304
1.0303
1.03017
1.03002
1.02984
1.02962
1.02935
1.02903
1.02863
1.02814
1.02754
1.02679
1.02586
1.02469
1.02322
1.02133
1.01892
1.01568
1.01156
1.03087
1.03087
1.03085
1.03083
1.03081
1.03078
1.03074
1.0307
1.03066
1.0306
1.03054
1.03046
1.03037
1.03026
1.03012
1.02997
1.02977
1.02954
1.02926
1.02891
1.02849
1.02796
1.02732
1.02651
1.0255
1.02422
1.02257
1.02046
1.01761
1.01396
1.03088
1.03087
1.03086
1.03084
1.03082
1.0308
1.03077
1.03073
1.03069
1.03064
1.03058
1.03052
1.03044
1.03034
1.03023
1.0301
1.02994
1.02974
1.0295
1.02921
1.02885
1.02842
1.02787
1.0272
1.02635
1.02528
1.0239
1.02212
1.01968
1.01655
1.03089
1.03088
1.03087
1.03086
1.03084
1.03082
1.03079
1.03076
1.03072
1.03068
1.03063
1.03058
1.03051
1.03044
1.03035
1.03024
1.0301
1.02995
1.02976
1.02952
1.02924
1.02889
1.02846
1.02792
1.02725
1.02639
1.02528
1.02385
1.02187
1.0193
1.0309
1.03089
1.03089
1.03087
1.03086
1.03084
1.03081
1.03079
1.03076
1.03073
1.03069
1.03064
1.03059
1.03053
1.03046
1.03038
1.03028
1.03016
1.03002
1.02985
1.02964
1.02938
1.02906
1.02867
1.02817
1.02754
1.02671
1.02564
1.02413
1.02217
1.03091
1.03091
1.0309
1.03089
1.03087
1.03086
1.03084
1.03082
1.0308
1.03077
1.03074
1.03071
1.03067
1.03063
1.03058
1.03053
1.03046
1.03038
1.03029
1.03018
1.03004
1.02988
1.02968
1.02943
1.02911
1.0287
1.02817
1.02746
1.02644
1.02509
1.03092
1.03092
1.03091
1.0309
1.03089
1.03088
1.03087
1.03085
1.03083
1.03082
1.0308
1.03078
1.03076
1.03073
1.03071
1.03068
1.03064
1.03061
1.03056
1.03051
1.03046
1.03038
1.0303
1.03019
1.03005
1.02987
1.02962
1.02928
1.02875
1.02803
1.03094
1.03093
1.03093
1.03092
1.03091
1.0309
1.03089
1.03088
1.03087
1.03086
1.03085
1.03085
1.03084
1.03083
1.03083
1.03083
1.03083
1.03083
1.03084
1.03085
1.03087
1.03089
1.03091
1.03095
1.03098
1.03102
1.03105
1.03106
1.03101
1.0309
1.03095
1.03095
1.03094
1.03094
1.03093
1.03092
1.03092
1.03091
1.03091
1.03091
1.03091
1.03091
1.03092
1.03093
1.03095
1.03098
1.03101
1.03105
1.03111
1.03118
1.03127
1.03138
1.03152
1.03169
1.03189
1.03214
1.03244
1.03279
1.03319
1.03366
1.03097
1.03096
1.03096
1.03096
1.03095
1.03095
1.03094
1.03094
1.03095
1.03095
1.03096
1.03098
1.031
1.03103
1.03107
1.03112
1.03119
1.03127
1.03138
1.03151
1.03167
1.03187
1.03211
1.03241
1.03277
1.03322
1.03376
1.03443
1.03524
1.03623
1.03098
1.03098
1.03098
1.03097
1.03097
1.03097
1.03097
1.03097
1.03098
1.031
1.03102
1.03104
1.03108
1.03113
1.03119
1.03126
1.03136
1.03148
1.03163
1.03182
1.03205
1.03233
1.03268
1.0331
1.03361
1.03424
1.03501
1.03595
1.03714
1.03858
1.031
1.031
1.03099
1.03099
1.03099
1.03099
1.031
1.031
1.03102
1.03104
1.03107
1.0311
1.03115
1.03122
1.0313
1.0314
1.03153
1.03168
1.03188
1.03212
1.03241
1.03277
1.03321
1.03375
1.0344
1.0352
1.03617
1.03735
1.03884
1.04066
1.03101
1.03101
1.03101
1.03101
1.03101
1.03101
1.03102
1.03103
1.03105
1.03108
1.03112
1.03116
1.03123
1.0313
1.0314
1.03153
1.03168
1.03187
1.03211
1.0324
1.03276
1.03319
1.03372
1.03436
1.03514
1.03608
1.03722
1.03861
1.04034
1.04244
1.03103
1.03103
1.03103
1.03102
1.03102
1.03103
1.03104
1.03106
1.03108
1.03112
1.03116
1.03122
1.03129
1.03139
1.0315
1.03165
1.03183
1.03205
1.03233
1.03266
1.03307
1.03357
1.03418
1.03492
1.03581
1.03688
1.03817
1.03972
1.04163
1.04393
1.03105
1.03105
1.03104
1.03104
1.03104
1.03105
1.03106
1.03108
1.03111
1.03115
1.0312
1.03127
1.03135
1.03146
1.03159
1.03176
1.03196
1.03222
1.03253
1.0329
1.03337
1.03393
1.03461
1.03542
1.03641
1.03759
1.039
1.04068
1.04272
1.04512
1.03107
1.03106
1.03106
1.03105
1.03105
1.03106
1.03108
1.0311
1.03114
1.03118
1.03124
1.03132
1.03141
1.03153
1.03168
1.03186
1.03209
1.03236
1.0327
1.03312
1.03363
1.03424
1.03498
1.03588
1.03694
1.03821
1.03972
1.04149
1.0436
1.04604
1.03109
1.03108
1.03107
1.03106
1.03107
1.03108
1.0311
1.03112
1.03116
1.03121
1.03127
1.03136
1.03146
1.03159
1.03175
1.03195
1.03219
1.03249
1.03286
1.03331
1.03386
1.03452
1.03531
1.03627
1.0374
1.03875
1.04033
1.04217
1.04431
1.04673
1.03111
1.0311
1.03108
1.03107
1.03108
1.03109
1.03111
1.03114
1.03118
1.03123
1.0313
1.03139
1.0315
1.03164
1.03181
1.03202
1.03228
1.0326
1.033
1.03347
1.03405
1.03475
1.03559
1.0366
1.03779
1.0392
1.04083
1.04271
1.04486
1.04722
1.03113
1.03112
1.03109
1.03108
1.03109
1.0311
1.03112
1.03115
1.0312
1.03125
1.03133
1.03142
1.03153
1.03168
1.03186
1.03208
1.03236
1.03269
1.03311
1.0336
1.03421
1.03494
1.03582
1.03687
1.03811
1.03956
1.04123
1.04314
1.04528
1.04757
1.03116
1.03113
1.0311
1.03109
1.0311
1.03111
1.03113
1.03117
1.03121
1.03127
1.03134
1.03144
1.03156
1.03171
1.0319
1.03213
1.03242
1.03277
1.03319
1.03371
1.03433
1.03509
1.036
1.03708
1.03836
1.03984
1.04154
1.04346
1.0456
1.04783
1.0312
1.03114
1.0311
1.03109
1.0311
1.03112
1.03114
1.03117
1.03122
1.03128
1.03136
1.03146
1.03158
1.03174
1.03193
1.03217
1.03246
1.03281
1.03325
1.03378
1.03442
1.03519
1.03612
1.03723
1.03854
1.04004
1.04176
1.04368
1.04581
1.048
1.03127
1.03115
1.0311
1.0311
1.03111
1.03112
1.03114
1.03118
1.03122
1.03129
1.03136
1.03147
1.03159
1.03175
1.03194
1.03219
1.03248
1.03284
1.03328
1.03382
1.03447
1.03526
1.0362
1.03732
1.03864
1.04016
1.04189
1.04382
1.0459
1.04796
0.995861
0.993598
0.991766
0.990242
0.98862
0.986797
0.984834
0.982781
0.980642
0.978403
0.976051
0.97357
0.970938
0.968121
0.965077
0.961755
0.95809
0.954001
0.949387
0.944115
0.938017
0.930867
0.922372
0.912113
0.899606
0.883845
0.86463
0.836348
0.8134
0.741227
0.997068
0.995176
0.993515
0.99201
0.990402
0.988645
0.986808
0.984927
0.982984
0.980957
0.978829
0.976582
0.974194
0.971632
0.96886
0.965831
0.962488
0.958761
0.954557
0.949761
0.944223
0.937745
0.930069
0.920836
0.909611
0.895552
0.878413
0.854069
0.831798
0.771308
0.99739
0.995838
0.994449
0.993056
0.991576
0.990017
0.988409
0.986755
0.985033
0.983226
0.981325
0.979314
0.977173
0.974877
0.972392
0.969677
0.966684
0.963349
0.959591
0.955311
0.950377
0.944619
0.937813
0.929656
0.919765
0.907461
0.892443
0.871626
0.851169
0.800976
0.998266
0.997058
0.995955
0.994711
0.993362
0.991973
0.990553
0.989086
0.987558
0.985958
0.984278
0.982503
0.980616
0.978591
0.9764
0.97401
0.971375
0.968443
0.965144
0.961393
0.957077
0.952052
0.946129
0.939053
0.930494
0.919915
0.906969
0.889382
0.871232
0.830075
0.999486
0.998521
0.997628
0.996519
0.995306
0.994089
0.992863
0.991597
0.990276
0.988895
0.987447
0.985918
0.984292
0.982548
0.980665
0.978612
0.976352
0.973841
0.971021
0.96782
0.964143
0.959872
0.954848
0.948861
0.941633
0.932743
0.921829
0.90726
0.891634
0.858512
1.00103
1.00028
0.999595
0.998645
0.997589
0.996551
0.995519
0.994451
0.993335
0.99217
0.990953
0.989671
0.98831
0.986855
0.985286
0.98358
0.981706
0.979627
0.977297
0.974656
0.971629
0.968116
0.96399
0.95908
0.953156
0.945892
0.936939
0.925166
0.912088
0.886027
1.00288
1.00234
1.00185
1.00106
1.00016
0.999301
0.998459
0.997589
0.99668
0.995736
0.994754
0.993725
0.992637
0.991477
0.990231
0.988879
0.987399
0.985761
0.983927
0.981852
0.979475
0.976718
0.973478
0.969621
0.964959
0.959243
0.952155
0.942938
0.932337
0.912387
1.00505
1.00471
1.00441
1.00378
1.00304
1.00235
1.0017
1.00103
1.00033
0.999611
0.998867
0.998093
0.997279
0.996418
0.995498
0.994504
0.993421
0.992224
0.990888
0.989375
0.98764
0.985623
0.983244
0.980398
0.976937
0.972672
0.967327
0.960407
0.952141
0.937384
1.00752
1.00736
1.00724
1.00677
1.0062
1.00569
1.00523
1.00476
1.00427
1.00377
1.00326
1.00275
1.00221
1.00165
1.00105
1.00042
0.999728
0.998969
0.998122
0.99716
0.996049
0.994746
0.993188
0.991298
0.988958
0.986031
0.982279
0.977388
0.971268
0.960829
1.01028
1.0103
1.01035
1.01004
1.00962
1.00929
1.00902
1.00875
1.00846
1.00819
1.00792
1.00765
1.00739
1.00712
1.00685
1.00657
1.00626
1.00593
1.00556
1.00513
1.00461
1.00398
1.00319
1.00219
1.00088
0.999159
0.996828
0.993693
0.989491
0.98254
1.01331
1.01348
1.01369
1.01353
1.01328
1.01313
1.01303
1.01295
1.01288
1.01282
1.01278
1.01276
1.01277
1.01279
1.01283
1.01288
1.01295
1.01303
1.0131
1.01317
1.01321
1.01321
1.01313
1.01293
1.01254
1.01189
1.0108
1.00915
1.00661
1.00236
1.01655
1.01688
1.01722
1.01722
1.01713
1.01714
1.01722
1.01733
1.01745
1.0176
1.01779
1.01801
1.01827
1.01856
1.0189
1.01927
1.01969
1.02015
1.02064
1.02117
1.02172
1.02228
1.02284
1.02335
1.02377
1.02405
1.02401
1.02363
1.02249
1.02023
1.01997
1.02042
1.02089
1.02103
1.0211
1.02127
1.02152
1.0218
1.02211
1.02246
1.02285
1.0233
1.0238
1.02435
1.02496
1.02563
1.02637
1.02717
1.02805
1.02899
1.03
1.03106
1.03217
1.0333
1.03441
1.03546
1.03631
1.03697
1.03696
1.03623
1.02349
1.02405
1.02463
1.0249
1.02512
1.02544
1.02584
1.02629
1.02677
1.0273
1.02789
1.02854
1.02926
1.03004
1.0309
1.03184
1.03286
1.03397
1.03518
1.03648
1.03788
1.03938
1.04095
1.0426
1.04428
1.04595
1.04751
1.04897
1.04981
1.05033
1.02704
1.02769
1.02835
1.02875
1.0291
1.02956
1.0301
1.0307
1.03133
1.03202
1.03279
1.03362
1.03453
1.03551
1.03659
1.03776
1.03903
1.04041
1.0419
1.04351
1.04523
1.04708
1.04903
1.05109
1.05322
1.05538
1.05747
1.05951
1.06098
1.06239
1.03052
1.03125
1.03197
1.03248
1.03295
1.03353
1.0342
1.03492
1.03569
1.03652
1.03743
1.03842
1.03949
1.04065
1.04191
1.04327
1.04474
1.04634
1.04806
1.04991
1.05189
1.05401
1.05626
1.05863
1.06109
1.0636
1.06608
1.0685
1.07041
1.07237
1.03386
1.03463
1.03541
1.036
1.03659
1.03727
1.03803
1.03886
1.03974
1.04069
1.04172
1.04283
1.04403
1.04533
1.04673
1.04824
1.04987
1.05163
1.05353
1.05556
1.05774
1.06005
1.06251
1.06509
1.06777
1.07051
1.07322
1.07585
1.07804
1.08026
1.03697
1.03777
1.03858
1.03924
1.03991
1.04067
1.04152
1.04242
1.04339
1.04442
1.04554
1.04675
1.04804
1.04944
1.05095
1.05257
1.05431
1.05619
1.0582
1.06035
1.06265
1.0651
1.06768
1.07038
1.07317
1.07602
1.07882
1.0815
1.08378
1.0859
1.03976
1.04058
1.0414
1.04212
1.04285
1.04367
1.04457
1.04553
1.04655
1.04765
1.04882
1.05009
1.05145
1.05291
1.05448
1.05616
1.05797
1.05991
1.06199
1.0642
1.06656
1.06906
1.07169
1.07444
1.07726
1.0801
1.08289
1.08549
1.08769
1.08938
1.0422
1.04302
1.04383
1.04458
1.04536
1.04621
1.04714
1.04813
1.04918
1.0503
1.05151
1.0528
1.05419
1.05567
1.05726
1.05897
1.0608
1.06275
1.06484
1.06707
1.06943
1.07192
1.07453
1.07724
1.08001
1.08278
1.08546
1.0879
1.08993
1.09119
1.04423
1.04504
1.04583
1.04659
1.04739
1.04826
1.04919
1.05018
1.05124
1.05236
1.05357
1.05485
1.05623
1.0577
1.05928
1.06097
1.06277
1.0647
1.06675
1.06893
1.07124
1.07366
1.07619
1.0788
1.08145
1.08407
1.08656
1.08876
1.09051
1.09135
1.04586
1.04664
1.0474
1.04816
1.04895
1.04981
1.05072
1.05169
1.05273
1.05382
1.05499
1.05625
1.05758
1.05901
1.06053
1.06216
1.0639
1.06575
1.06772
1.06981
1.07201
1.07432
1.07671
1.07916
1.08162
1.08401
1.08622
1.08809
1.08941
1.08969
1.04709
1.04783
1.04856
1.04929
1.05006
1.05089
1.05176
1.05269
1.05367
1.05472
1.05583
1.05701
1.05827
1.05962
1.06106
1.06259
1.06423
1.06596
1.06781
1.06976
1.07181
1.07394
1.07614
1.07837
1.08057
1.08267
1.08453
1.08596
1.08679
1.08633
1.04797
1.04867
1.04935
1.05004
1.05077
1.05154
1.05236
1.05322
1.05413
1.0551
1.05612
1.05722
1.05838
1.05962
1.06093
1.06234
1.06383
1.06542
1.0671
1.06887
1.07071
1.07263
1.07458
1.07653
1.07842
1.08014
1.08158
1.08251
1.08279
1.08124
1.04856
1.04921
1.04983
1.05047
1.05113
1.05184
1.05258
1.05336
1.05418
1.05504
1.05596
1.05694
1.05798
1.05908
1.06025
1.0615
1.06282
1.06422
1.0657
1.06725
1.06886
1.0705
1.07216
1.07377
1.07528
1.07658
1.07752
1.07784
1.07752
1.07455
1.04892
1.04952
1.05008
1.05064
1.05124
1.05186
1.05251
1.05318
1.05389
1.05463
1.05542
1.05625
1.05713
1.05807
1.05906
1.06011
1.06122
1.0624
1.06363
1.06492
1.06625
1.06758
1.0689
1.07015
1.07124
1.07204
1.07242
1.07202
1.07106
1.06657
1.04917
1.0497
1.05018
1.05065
1.05116
1.05169
1.05224
1.05281
1.0534
1.05402
1.05467
1.05535
1.05606
1.05682
1.05761
1.05845
1.05933
1.06025
1.06121
1.06219
1.06318
1.06415
1.06507
1.06586
1.06645
1.06668
1.06642
1.0652
1.0635
1.05741
1.04943
1.04987
1.05021
1.05058
1.051
1.05142
1.05184
1.05227
1.05271
1.05317
1.05365
1.05416
1.05469
1.05524
1.05582
1.05643
1.05706
1.0577
1.05836
1.05902
1.05965
1.06022
1.06069
1.06099
1.06102
1.06061
1.05963
1.05747
1.05495
1.04691
1.04993
1.05013
1.05021
1.05045
1.05079
1.05114
1.05148
1.0518
1.0521
1.0524
1.05271
1.05302
1.05334
1.05367
1.054
1.05433
1.05467
1.05499
1.05531
1.0556
1.05583
1.05596
1.05594
1.05569
1.05509
1.05396
1.05217
1.04892
1.04558
1.03508
1.05066
1.05053
1.05037
1.05047
1.05067
1.05086
1.05104
1.0512
1.05136
1.05152
1.05166
1.05179
1.05191
1.05201
1.05208
1.05213
1.05215
1.05214
1.05207
1.05194
1.05172
1.05136
1.05081
1.04995
1.04868
1.04675
1.0441
1.03947
1.03566
1.02189
1.00787
0.992707
0.975683
0.95729
0.937841
0.917144
0.895091
0.871861
0.847957
0.823964
0.800615
0.778729
0.758639
0.742293
0.731497
0.726135
0.72415
0.724952
0.727831
0.729798
0.731044
0.734881
0.738703
0.739282
0.738417
0.737952
0.737578
0.73598
0.73611
0.73841
1.02563
1.01238
0.996963
0.980299
0.962388
0.94285
0.921642
0.898719
0.874237
0.848582
0.822234
0.796293
0.771637
0.749829
0.734789
0.727168
0.724441
0.725441
0.728733
0.730484
0.731771
0.736041
0.74003
0.739235
0.736619
0.73578
0.734972
0.734077
0.734922
0.737011
1.02953
1.01717
1.00316
0.987751
0.970422
0.95107
0.929815
0.906877
0.882392
0.856626
0.83007
0.803505
0.778087
0.755124
0.73878
0.730028
0.72648
0.726929
0.729862
0.731077
0.732535
0.73748
0.741483
0.738328
0.733784
0.733077
0.732736
0.732162
0.732216
0.728903
1.03609
1.0257
1.01301
0.998596
0.982371
0.963895
0.943037
0.919992
0.894849
0.867973
0.840083
0.812132
0.785321
0.761216
0.743626
0.733722
0.72938
0.72923
0.731367
0.732131
0.734066
0.739662
0.742478
0.73656
0.731133
0.73157
0.732427
0.732135
0.728215
0.712812
1.03974
1.03036
1.01897
1.00613
0.991193
0.973837
0.953901
0.931416
0.906425
0.87921
0.850444
0.82119
0.792876
0.767334
0.748181
0.737034
0.732004
0.731365
0.732948
0.733773
0.73624
0.741958
0.742297
0.734492
0.729775
0.732397
0.7344
0.734079
0.721453
0.689973
1.04264
1.03453
1.02453
1.01272
0.998794
0.982336
0.963129
0.941093
0.916252
0.888841
0.859455
0.829165
0.799564
0.772703
0.752139
0.739891
0.734247
0.73319
0.734395
0.735525
0.738336
0.743277
0.741169
0.732734
0.730052
0.735636
0.738918
0.733805
0.70834
0.66348
1.04472
1.03765
1.02877
1.01809
1.00525
0.989819
0.971484
0.950027
0.925403
0.897816
0.867843
0.836578
0.805747
0.777613
0.755751
0.742484
0.736253
0.734801
0.735739
0.737054
0.739671
0.743095
0.739707
0.731826
0.731722
0.739357
0.741163
0.728996
0.690747
0.643052
1.04626
1.04013
1.03229
1.02265
1.01081
0.996378
0.978956
0.958207
0.933968
0.906365
0.875928
0.843765
0.811723
0.782299
0.759149
0.744875
0.738047
0.73623
0.736903
0.738205
0.740251
0.742378
0.738254
0.731863
0.734303
0.742139
0.740219
0.719588
0.673291
0.633354
1.04742
1.04211
1.03519
1.02649
1.0156
1.00212
0.985607
0.965608
0.941852
0.914368
0.883609
0.850662
0.817471
0.786762
0.762335
0.747071
0.739648
0.737483
0.737874
0.739032
0.740585
0.741673
0.737086
0.733034
0.737308
0.743287
0.735806
0.70781
0.663003
0.635057
1.0483
1.04371
1.03761
1.02976
1.01976
1.00719
0.991562
0.972334
0.94912
0.921842
0.890865
0.857235
0.822965
0.791
0.765316
0.749092
0.741087
0.73858
0.738706
0.739679
0.740895
0.741145
0.736748
0.734914
0.739346
0.742103
0.728753
0.697892
0.661659
0.648326
1.04897
1.04503
1.03965
1.03257
1.02338
1.01168
0.996916
0.978473
0.955852
0.928858
0.89775
0.863521
0.828232
0.795036
0.768115
0.750959
0.742387
0.739543
0.739431
0.74022
0.741133
0.740838
0.737437
0.736717
0.740502
0.739156
0.721466
0.692529
0.668708
0.671751
1.0495
1.04612
1.04139
1.035
1.02656
1.01567
1.00174
0.984085
0.962096
0.935454
0.904298
0.869548
0.833295
0.798892
0.77075
0.752682
0.743551
0.740384
0.740045
0.740701
0.741346
0.740856
0.738628
0.738156
0.740537
0.735483
0.716311
0.693292
0.684018
0.701905
1.04992
1.04702
1.04288
1.03711
1.02937
1.01924
1.00611
0.989226
0.967892
0.941657
0.910529
0.87533
0.838166
0.802576
0.773226
0.754262
0.74459
0.741101
0.740568
0.741133
0.741648
0.741126
0.739718
0.739183
0.739774
0.732487
0.714831
0.700185
0.704676
0.735063
1.05024
1.04778
1.04416
1.03897
1.03187
1.02245
1.01008
0.993949
0.973282
0.947499
0.916461
0.880881
0.842856
0.806099
0.775549
0.755707
0.745511
0.741696
0.741029
0.741527
0.742028
0.741486
0.740607
0.739963
0.739459
0.731411
0.717723
0.712642
0.729279
0.77002
1.05048
1.04842
1.04526
1.0406
1.0341
1.02534
1.01369
0.998298
0.978304
0.953006
0.922117
0.886217
0.847376
0.809471
0.777731
0.757024
0.74632
0.742184
0.741444
0.741908
0.742407
0.741943
0.741369
0.740948
0.740195
0.733029
0.725121
0.729921
0.756489
0.806768
1.05067
1.04895
1.04622
1.04204
1.03609
1.02796
1.017
1.00232
0.982993
0.958207
0.927515
0.891353
0.851737
0.812702
0.779779
0.758219
0.747023
0.742583
0.741823
0.742279
0.742791
0.742533
0.742222
0.74242
0.742051
0.737502
0.736685
0.750167
0.784787
0.839464
1.05079
1.04939
1.04704
1.04331
1.03789
1.03035
1.02003
1.00604
0.987378
0.963125
0.932674
0.8963
0.855951
0.8158
0.781699
0.759297
0.747628
0.742912
0.742169
0.742642
0.743181
0.74326
0.743364
0.744462
0.745304
0.744947
0.751361
0.770689
0.812502
0.864655
1.05087
1.04975
1.04774
1.04442
1.0395
1.03252
1.02282
1.00949
0.991488
0.967781
0.937609
0.901071
0.860026
0.818772
0.783497
0.760263
0.748142
0.743187
0.74248
0.743002
0.74362
0.744146
0.744892
0.747117
0.750065
0.755031
0.767085
0.790638
0.834791
0.883035
1.05092
1.05003
1.04834
1.0454
1.04094
1.03451
1.0254
1.01271
0.995349
0.972197
0.942335
0.905678
0.863971
0.821625
0.785179
0.761124
0.748571
0.743421
0.742759
0.743371
0.744151
0.745202
0.74687
0.750519
0.756368
0.766721
0.781769
0.809996
0.850982
0.89481
1.05093
1.05025
1.04884
1.04625
1.04223
1.03632
1.02779
1.01571
0.998983
0.976392
0.946869
0.910131
0.867793
0.824365
0.786748
0.761882
0.748921
0.743617
0.743014
0.743758
0.744788
0.746469
0.749293
0.754782
0.764212
0.778884
0.795501
0.82509
0.862777
0.90503
1.05092
1.05043
1.04926
1.04699
1.04338
1.03796
1.02999
1.01852
1.00241
0.980383
0.951222
0.914441
0.871502
0.826998
0.788211
0.762544
0.749198
0.743777
0.743253
0.744166
0.745546
0.747986
0.752193
0.759929
0.773244
0.790424
0.808085
0.835836
0.871479
0.915274
1.0509
1.05056
1.0496
1.04763
1.0444
1.03946
1.03204
1.02115
1.00565
0.984187
0.955407
0.918617
0.875103
0.829529
0.789572
0.763112
0.749408
0.743909
0.743481
0.744597
0.746449
0.749784
0.75558
0.765946
0.782737
0.800376
0.818648
0.844455
0.881419
0.927575
1.05086
1.05065
1.04988
1.04817
1.04529
1.04082
1.03393
1.02362
1.00872
0.987818
0.959439
0.922669
0.878605
0.831963
0.790834
0.763592
0.74956
0.744002
0.743702
0.745064
0.747503
0.751928
0.759452
0.77269
0.792103
0.8095
0.826724
0.853114
0.893868
0.939424
1.05083
1.05073
1.05011
1.04863
1.04608
1.04204
1.03568
1.02594
1.01162
0.991285
0.963322
0.926602
0.882012
0.834306
0.792003
0.763991
0.749675
0.744114
0.743935
0.745597
0.748717
0.754337
0.763823
0.77983
0.800483
0.818023
0.833635
0.863769
0.90968
0.949725
1.05079
1.05078
1.05029
1.04902
1.04677
1.04314
1.03729
1.02812
1.01439
0.994618
0.96708
0.930432
0.885332
0.836558
0.793078
0.764292
0.749649
0.744114
0.744153
0.746182
0.750093
0.757034
0.768664
0.787008
0.808274
0.82431
0.841039
0.877726
0.926317
0.958909
1.05075
1.05082
1.05044
1.04933
1.04735
1.04412
1.03877
1.03014
1.017
0.997793
0.970703
0.934162
0.88858
0.838739
0.794093
0.764642
0.749712
0.744183
0.744459
0.746902
0.751617
0.760063
0.7739
0.794296
0.815674
0.829406
0.850244
0.894387
0.941585
0.965461
1.0507
1.05086
1.05059
1.04959
1.04782
1.04502
1.04016
1.03208
1.01951
1.00086
0.974203
0.937762
0.891704
0.84078
0.794882
0.764546
0.749438
0.744141
0.744678
0.747629
0.753288
0.763386
0.779257
0.801516
0.822365
0.835293
0.861527
0.911932
0.955405
0.969567
1.05064
1.05086
1.05074
1.04986
1.04822
1.04569
1.04136
1.03385
1.02188
1.00388
0.977732
0.941449
0.894986
0.843098
0.796156
0.764921
0.749411
0.744224
0.744994
0.748437
0.755088
0.766747
0.783856
0.806689
0.826841
0.842184
0.875337
0.928685
0.967189
0.971946
1.0506
1.05083
1.05085
1.05012
1.04867
1.04644
1.0425
1.0354
1.02384
1.00627
0.980495
0.944221
0.897228
0.844251
0.796302
0.764532
0.74909
0.7442
0.74534
0.749361
0.757118
0.770243
0.787993
0.808863
0.827174
0.845655
0.887081
0.943929
0.975739
0.973082
1.0506
1.05078
1.05083
1.05028
1.04905
1.04716
1.04386
1.03755
1.02685
1.01015
0.985177
0.949338
0.901902
0.847649
0.797816
0.764604
0.748758
0.744075
0.745615
0.750439
0.759751
0.774864
0.794851
0.817546
0.838795
0.862457
0.906469
0.958886
0.981224
0.969339
0.702573
0.686259
0.705706
0.761237
0.800572
0.803782
0.777193
0.754889
0.742174
0.734562
0.732331
0.734418
0.739546
0.746571
0.754731
0.763487
0.772434
0.781276
0.789854
0.79803
0.805726
0.812874
0.819538
0.825663
0.831457
0.836901
0.842818
0.849139
0.856705
0.850548
0.681926
0.662427
0.694094
0.768936
0.823372
0.826114
0.789634
0.756487
0.737561
0.725681
0.720939
0.721722
0.726446
0.733518
0.742026
0.751343
0.760962
0.770506
0.779753
0.788566
0.796871
0.804597
0.811751
0.818287
0.824274
0.829575
0.834389
0.837923
0.842439
0.843301
0.67243
0.652391
0.676574
0.754755
0.823801
0.83559
0.799446
0.75601
0.73008
0.716276
0.707012
0.705204
0.709358
0.716629
0.725589
0.735588
0.746083
0.756616
0.76689
0.77673
0.786037
0.794743
0.80282
0.810236
0.817009
0.823058
0.828552
0.833106
0.837871
0.842551
0.673586
0.656137
0.66753
0.728468
0.789254
0.812191
0.796203
0.753161
0.715967
0.696865
0.687963
0.684476
0.68808
0.696481
0.707087
0.718757
0.730875
0.742999
0.754816
0.766114
0.776777
0.786751
0.796022
0.804584
0.812475
0.819691
0.826356
0.832359
0.837759
0.842687
0.680404
0.667984
0.663408
0.695791
0.739227
0.761178
0.756519
0.731111
0.695796
0.668779
0.657326
0.656004
0.66016
0.669573
0.682371
0.696819
0.711391
0.725651
0.739454
0.752593
0.76492
0.776393
0.787017
0.796807
0.805803
0.814026
0.821527
0.828334
0.834374
0.839853
0.690574
0.6856
0.659579
0.659123
0.681936
0.697643
0.696116
0.681744
0.658769
0.633963
0.617226
0.614216
0.621524
0.633372
0.648341
0.666513
0.684883
0.702217
0.718618
0.73412
0.748603
0.762008
0.774346
0.785663
0.796012
0.805448
0.814027
0.82184
0.828878
0.835381
0.685116
0.694637
0.645368
0.619751
0.624919
0.631284
0.62835
0.617737
0.602598
0.585725
0.570565
0.563369
0.569672
0.585227
0.603364
0.624159
0.647993
0.670742
0.691319
0.710179
0.727598
0.743595
0.758201
0.771513
0.783631
0.794654
0.804667
0.813784
0.822007
0.829604
0.641211
0.666538
0.612273
0.576548
0.567901
0.562919
0.55441
0.543577
0.531958
0.520978
0.511731
0.505915
0.508384
0.523206
0.546259
0.570867
0.598242
0.627637
0.654864
0.678927
0.700558
0.720125
0.73777
0.753675
0.76803
0.78101
0.792749
0.803404
0.812999
0.821851
0.562524
0.608026
0.563242
0.527593
0.508955
0.492763
0.476539
0.461779
0.449689
0.44113
0.436854
0.43649
0.440641
0.452917
0.475301
0.505401
0.537091
0.570703
0.605765
0.637188
0.664951
0.689554
0.71141
0.730827
0.748113
0.763575
0.77745
0.789971
0.801211
0.811562
0.473995
0.531348
0.503077
0.473058
0.44836
0.422976
0.398575
0.377531
0.361381
0.351421
0.348463
0.352262
0.361308
0.37547
0.396905
0.426504
0.463009
0.503669
0.543915
0.58278
0.618372
0.649717
0.677313
0.701531
0.722785
0.741531
0.758151
0.773002
0.786237
0.798351
0.391915
0.453512
0.44059
0.416821
0.389155
0.357169
0.325375
0.297172
0.274897
0.260341
0.254711
0.25857
0.270639
0.288734
0.312314
0.342466
0.380112
0.423436
0.469782
0.516091
0.559534
0.598961
0.633899
0.664404
0.690922
0.71401
0.734198
0.752
0.767688
0.781895
0.329359
0.387965
0.384807
0.36562
0.336639
0.300174
0.262395
0.227515
0.19876
0.178311
0.167475
0.167136
0.177636
0.19704
0.222988
0.254709
0.29278
0.337418
0.387111
0.438844
0.489801
0.537592
0.580741
0.618763
0.651807
0.680376
0.705083
0.726586
0.745302
0.762018
0.293671
0.344846
0.345634
0.327615
0.297215
0.257441
0.21494
0.174471
0.139935
0.113865
0.097435
0.0912724
0.0960815
0.112138
0.137297
0.169361
0.20754
0.252061
0.302596
0.357478
0.413884
0.468797
0.519885
0.5658
0.606104
0.641012
0.671062
0.696978
0.7193
0.738951
0.290995
0.328693
0.329125
0.3093
0.276682
0.233979
0.187513
0.142347
0.102822
0.0717211
0.0502301
0.0385366
0.036994
0.0466332
0.0671591
0.0964745
0.132821
0.175736
0.225252
0.280584
0.339583
0.399249
0.456637
0.50957
0.556866
0.598223
0.633919
0.664603
0.690878
0.713719
0.32121
0.340733
0.337288
0.313811
0.278067
0.232463
0.182629
0.133573
0.0897068
0.053989
0.0278474
0.0114242
0.00462614
0.00782412
0.0219079
0.04596
0.0781895
0.11764
0.164224
0.217647
0.276459
0.338
0.399136
0.457093
0.509986
0.556866
0.597636
0.632749
0.662776
0.688628
0.377532
0.380325
0.370168
0.341853
0.302584
0.253928
0.200768
0.147963
0.100156
0.0605228
0.0303611
0.00967232
-0.00152648
-0.00298089
0.00496368
0.0231065
0.0500625
0.08485
0.127279
0.177248
0.233774
0.294596
0.35661
0.416724
0.473036
0.523489
0.567854
0.606274
0.639167
0.667268
0.45217
0.441115
0.423773
0.390831
0.348416
0.297456
0.241841
0.185934
0.134252
0.0902638
0.0557714
0.0311967
0.0164601
0.0113106
0.0155332
0.0287008
0.0507029
0.0808856
0.119084
0.165233
0.218541
0.277037
0.33789
0.398112
0.455018
0.506318
0.551644
0.591269
0.625323
0.654241
0.53572
0.514421
0.490912
0.454658
0.410476
0.358923
0.302824
0.245716
0.191629
0.144131
0.10555
0.0768351
0.0581929
0.0497099
0.0510559
0.0611783
0.0799298
0.106884
0.141902
0.184871
0.234943
0.290222
0.34811
0.405693
0.459826
0.509449
0.553871
0.592496
0.625677
0.653689
0.618122
0.590958
0.562923
0.525085
0.480951
0.431031
0.377249
0.322181
0.268973
0.220765
0.180099
0.148504
0.12668
0.114965
0.113284
0.120719
0.13692
0.161745
0.195001
0.236028
0.283463
0.335214
0.388724
0.441186
0.49052
0.53607
0.576886
0.612202
0.642504
0.667929
0.69011
0.66187
0.631227
0.593374
0.550871
0.504483
0.455623
0.406107
0.358138
0.314037
0.275869
0.24513
0.222903
0.209974
0.20669
0.212663
0.227494
0.250684
0.281684
0.319513
0.362621
0.408957
0.456252
0.502238
0.545344
0.584587
0.619207
0.649198
0.674911
0.696465
0.744719
0.719034
0.688571
0.652232
0.612417
0.57055
0.527994
0.48618
0.446665
0.410915
0.380266
0.35604
0.338852
0.329031
0.327355
0.334039
0.348364
0.369958
0.397939
0.431056
0.467751
0.50626
0.544816
0.581863
0.616272
0.647256
0.674496
0.698018
0.718276
0.735614
0.779014
0.759214
0.730944
0.697155
0.6605
0.623276
0.587169
0.553553
0.523489
0.497407
0.475989
0.461642
0.455304
0.454271
0.457148
0.466044
0.480901
0.500844
0.525055
0.552329
0.581412
0.611039
0.640043
0.667456
0.692597
0.715097
0.734784
0.751562
0.766014
0.779919
0.794143
0.780803
0.756273
0.725766
0.692479
0.65961
0.629466
0.603642
0.583088
0.567982
0.558058
0.553946
0.555901
0.561761
0.571465
0.585358
0.60205
0.621
0.641634
0.663241
0.685088
0.706489
0.726855
0.74572
0.762797
0.778052
0.791475
0.802678
0.812375
0.82279
0.790881
0.783372
0.763664
0.736977
0.707201
0.678454
0.653797
0.634986
0.622722
0.617155
0.61794
0.624313
0.635152
0.649104
0.665202
0.682689
0.700727
0.718735
0.736264
0.753037
0.768837
0.783511
0.796974
0.809165
0.820049
0.829785
0.838597
0.845812
0.851615
0.859482
0.774992
0.771356
0.755237
0.731609
0.704659
0.679632
0.660361
0.648628
0.644671
0.648264
0.658395
0.673972
0.693171
0.714306
0.735898
0.756712
0.775894
0.792997
0.807922
0.820765
0.831779
0.841262
0.849517
0.856798
0.863233
0.868975
0.874445
0.879143
0.882131
0.889543
0.754525
0.751971
0.737136
0.71425
0.687462
0.663996
0.648471
0.643281
0.647997
0.661392
0.681462
0.705699
0.732605
0.760318
0.7869
0.810837
0.831164
0.847562
0.860313
0.869906
0.877086
0.882541
0.886884
0.890594
0.893979
0.897145
0.900421
0.904084
0.905556
0.91053
0.739437
0.73653
0.71883
0.692369
0.66328
0.63802
0.624239
0.624098
0.636064
0.657926
0.686643
0.719245