/*--------------------------------*- C++ -*----------------------------------*\
  =========                 |
  \\      /  F ield         | OpenFOAM: The Open Source CFD Toolbox
   \\    /   O peration     | Website:  https://openfoam.org
    \\  /    A nd           | Version:  11
     \\/     M anipulation  |
\*---------------------------------------------------------------------------*/
FoamFile
{
    format      ascii;
    class       volVectorField;
    location    "4.4";
    object      U;
}
// * * * * * * * * * * * * * * * * * * * * * * * * * * * * * * * * * * * * * //

dimensions      [0 1 -1 0 0 0 0];

internalField   nonuniform List<vector> 
12600
(
(0.412278 5.83506e-05 0)
(0.412168 0.000118999 0)
(0.412002 0.00012092 0)
(0.411824 0.000111427 0)
(0.411684 9.87043e-05 0)
(0.411597 8.39751e-05 0)
(0.411569 6.08229e-05 0)
(0.411608 2.83349e-05 0)
(0.411724 -7.42784e-06 0)
(0.411926 -3.6547e-05 0)
(0.412222 -6.79276e-05 0)
(0.412622 -0.000105636 0)
(0.413139 -0.000148993 0)
(0.413787 -0.000198381 0)
(0.414581 -0.000255207 0)
(0.41554 -0.000321348 0)
(0.416688 -0.000398941 0)
(0.418054 -0.000490224 0)
(0.419672 -0.000597486 0)
(0.421583 -0.00072319 0)
(0.423837 -0.000870138 0)
(0.426491 -0.00104157 0)
(0.429614 -0.00124084 0)
(0.43328 -0.00147088 0)
(0.437574 -0.00173715 0)
(0.442594 -0.00203865 0)
(0.448444 -0.00239213 0)
(0.4552 -0.00271717 0)
(0.462984 -0.00333412 0)
(0.47304 -0.00277678 0)
(0.412478 0.0001129 0)
(0.412563 0.000158967 0)
(0.412665 0.000137091 0)
(0.412757 0.000100986 0)
(0.412864 5.77805e-05 0)
(0.413013 2.82096e-06 0)
(0.413216 -6.60322e-05 0)
(0.413483 -0.000145262 0)
(0.413821 -0.000234755 0)
(0.414246 -0.000336805 0)
(0.414772 -0.000451255 0)
(0.4154 -0.000577524 0)
(0.416142 -0.000716933 0)
(0.417011 -0.000871912 0)
(0.418021 -0.00104538 0)
(0.419186 -0.00124099 0)
(0.420523 -0.00146345 0)
(0.422052 -0.00171879 0)
(0.423801 -0.0020144 0)
(0.425804 -0.00235889 0)
(0.428103 -0.00276188 0)
(0.430752 -0.00323378 0)
(0.433813 -0.00378509 0)
(0.437358 -0.00442635 0)
(0.44147 -0.00516932 0)
(0.446245 -0.00601963 0)
(0.45178 -0.00699921 0)
(0.458201 -0.00800965 0)
(0.465585 -0.00945452 0)
(0.474183 -0.00934271 0)
(0.412472 3.76152e-05 0)
(0.412518 6.2202e-05 0)
(0.412591 3.64195e-05 0)
(0.412677 -1.81094e-05 0)
(0.412786 -8.86015e-05 0)
(0.412938 -0.000176316 0)
(0.413143 -0.0002849 0)
(0.41341 -0.000414934 0)
(0.413747 -0.000565389 0)
(0.414163 -0.000734167 0)
(0.414669 -0.000919778 0)
(0.415276 -0.00112377 0)
(0.415993 -0.00135007 0)
(0.416831 -0.00160194 0)
(0.417803 -0.00188246 0)
(0.418924 -0.00219616 0)
(0.42021 -0.00254992 0)
(0.421685 -0.00295351 0)
(0.423377 -0.00341935 0)
(0.425319 -0.00396198 0)
(0.427552 -0.00459753 0)
(0.430127 -0.00534342 0)
(0.433104 -0.00621805 0)
(0.436554 -0.00724049 0)
(0.440558 -0.00843084 0)
(0.445222 -0.00980214 0)
(0.450625 -0.0113855 0)
(0.456989 -0.0130882 0)
(0.464131 -0.0153042 0)
(0.473306 -0.0161957 0)
(0.412467 2.16966e-05 0)
(0.412497 3.45448e-05 0)
(0.412554 4.21855e-06 0)
(0.412633 -6.26289e-05 0)
(0.412738 -0.000157822 0)
(0.412883 -0.000279804 0)
(0.413079 -0.000429988 0)
(0.413335 -0.000607949 0)
(0.41366 -0.000812136 0)
(0.414061 -0.00104159 0)
(0.414549 -0.00129638 0)
(0.415134 -0.00157774 0)
(0.415825 -0.00188826 0)
(0.416631 -0.00223171 0)
(0.417565 -0.0026136 0)
(0.418639 -0.00304169 0)
(0.419872 -0.0035264 0)
(0.421284 -0.00408092 0)
(0.422903 -0.00472131 0)
(0.424762 -0.00546647 0)
(0.4269 -0.00633803 0)
(0.429365 -0.00736028 0)
(0.432217 -0.00855993 0)
(0.435527 -0.00996537 0)
(0.439375 -0.0116071 0)
(0.443872 -0.0135079 0)
(0.449097 -0.0157128 0)
(0.455307 -0.0181331 0)
(0.46227 -0.0211811 0)
(0.471475 -0.023071 0)
(0.412465 9.03875e-06 0)
(0.412485 7.7488e-07 0)
(0.412531 -4.72512e-05 0)
(0.4126 -0.000134658 0)
(0.412699 -0.000258475 0)
(0.412835 -0.000416786 0)
(0.41302 -0.000609162 0)
(0.413264 -0.000835105 0)
(0.413572 -0.00109367 0)
(0.413954 -0.00138419 0)
(0.414418 -0.00170679 0)
(0.414972 -0.00206283 0)
(0.415627 -0.00245526 0)
(0.416391 -0.00288861 0)
(0.417274 -0.0033695 0)
(0.41829 -0.00390726 0)
(0.419456 -0.00451465 0)
(0.42079 -0.00520821 0)
(0.422317 -0.00600834 0)
(0.424068 -0.00693923 0)
(0.426081 -0.00802878 0)
(0.428402 -0.00930858 0)
(0.431088 -0.0108138 0)
(0.43421 -0.0125826 0)
(0.437848 -0.0146565 0)
(0.442116 -0.0170712 0)
(0.447093 -0.0198843 0)
(0.453067 -0.0230297 0)
(0.459763 -0.0269011 0)
(0.4689 -0.0298728 0)
(0.412464 -3.51796e-07 0)
(0.412479 -2.25415e-05 0)
(0.412516 -8.45754e-05 0)
(0.412578 -0.000191386 0)
(0.412669 -0.000340574 0)
(0.412797 -0.000530098 0)
(0.41297 -0.000759426 0)
(0.413198 -0.0010283 0)
(0.413487 -0.00133601 0)
(0.413844 -0.00168189 0)
(0.414278 -0.00206605 0)
(0.414797 -0.00248984 0)
(0.415409 -0.0029563 0)
(0.416121 -0.00347064 0)
(0.416944 -0.00404087 0)
(0.417889 -0.00467853 0)
(0.418971 -0.00539913 0)
(0.420207 -0.00622245 0)
(0.421621 -0.0071727 0)
(0.42324 -0.00827865 0)
(0.425099 -0.00957387 0)
(0.427243 -0.0110969 0)
(0.429724 -0.0128916 0)
(0.432611 -0.0150066 0)
(0.435982 -0.017496 0)
(0.439954 -0.0204113 0)
(0.444604 -0.0238254 0)
(0.450249 -0.0277026 0)
(0.456574 -0.0324166 0)
(0.465534 -0.0365298 0)
(0.412463 -7.07626e-06 0)
(0.412475 -4.08337e-05 0)
(0.412506 -0.000119164 0)
(0.41256 -0.000245074 0)
(0.412644 -0.000418632 0)
(0.412761 -0.00063878 0)
(0.412921 -0.000904645 0)
(0.41313 -0.00121556 0)
(0.413396 -0.00157073 0)
(0.413725 -0.00196954 0)
(0.414124 -0.00241213 0)
(0.414601 -0.0029 0)
(0.415162 -0.00343646 0)
(0.415814 -0.00402732 0)
(0.416566 -0.00468159 0)
(0.417429 -0.00541229 0)
(0.418414 -0.00623697 0)
(0.419538 -0.00717823 0)
(0.42082 -0.00826392 0)
(0.422286 -0.00952744 0)
(0.423966 -0.011008 0)
(0.4259 -0.0127514 0)
(0.428137 -0.0148099 0)
(0.430743 -0.0172434 0)
(0.43379 -0.0201192 0)
(0.437396 -0.0235067 0)
(0.441634 -0.0274975 0)
(0.446849 -0.0320934 0)
(0.452685 -0.0376503 0)
(0.461325 -0.0429609 0)
(0.412462 -1.18035e-05 0)
(0.412472 -5.69393e-05 0)
(0.412498 -0.00014929 0)
(0.412546 -0.000293061 0)
(0.412621 -0.000489389 0)
(0.412727 -0.000737415 0)
(0.412871 -0.00103606 0)
(0.41306 -0.0013845 0)
(0.413301 -0.00178198 0)
(0.413598 -0.00222791 0)
(0.413958 -0.00272243 0)
(0.414388 -0.00326699 0)
(0.414892 -0.00386504 0)
(0.415477 -0.00452282 0)
(0.41615 -0.00525028 0)
(0.41692 -0.00606187 0)
(0.417797 -0.00697721 0)
(0.418794 -0.00802148 0)
(0.419928 -0.00922583 0)
(0.421219 -0.0106277 0)
(0.422695 -0.0122715 0)
(0.424391 -0.0142094 0)
(0.426349 -0.0165022 0)
(0.428628 -0.0192207 0)
(0.431295 -0.0224468 0)
(0.434464 -0.0262691 0)
(0.4382 -0.0308015 0)
(0.442868 -0.0360906 0)
(0.448078 -0.0424793 0)
(0.456206 -0.0490374 0)
(0.412462 -1.57691e-05 0)
(0.41247 -7.0247e-05 0)
(0.412492 -0.000175382 0)
(0.412534 -0.000335603 0)
(0.412599 -0.00055247 0)
(0.412693 -0.000825478 0)
(0.412821 -0.00115359 0)
(0.412988 -0.00153585 0)
(0.413201 -0.00197138 0)
(0.413463 -0.00245954 0)
(0.413781 -0.00300036 0)
(0.414158 -0.00359526 0)
(0.4146 -0.00424781 0)
(0.415111 -0.00496462 0)
(0.415698 -0.00575633 0)
(0.416366 -0.00663845 0)
(0.417124 -0.00763209 0)
(0.417982 -0.00876452 0)
(0.418953 -0.0100696 0)
(0.420054 -0.0115882 0)
(0.421306 -0.0133694 0)
(0.422737 -0.0154712 0)
(0.424383 -0.0179624 0)
(0.426294 -0.0209242 0)
(0.428527 -0.0244529 0)
(0.431188 -0.0286576 0)
(0.434331 -0.0336766 0)
(0.438327 -0.0396083 0)
(0.442756 -0.0467869 0)
(0.45013 -0.0546095 0)
(0.412461 -1.89837e-05 0)
(0.412468 -8.14301e-05 0)
(0.412487 -0.000197766 0)
(0.412522 -0.000372511 0)
(0.412579 -0.000607507 0)
(0.41266 -0.000902466 0)
(0.41277 -0.00125634 0)
(0.412914 -0.00166801 0)
(0.413096 -0.00213645 0)
(0.413321 -0.00266089 0)
(0.413593 -0.00324125 0)
(0.413915 -0.00387884 0)
(0.41429 -0.00457722 0)
(0.414723 -0.00534318 0)
(0.415216 -0.0061878 0)
(0.415776 -0.00712737 0)
(0.416407 -0.00818418 0)
(0.417116 -0.00938712 0)
(0.417913 -0.0107722 0)
(0.418808 -0.0123832 0)
(0.419819 -0.0142726 0)
(0.420964 -0.0165035 0)
(0.422271 -0.0191513 0)
(0.423778 -0.0223067 0)
(0.425529 -0.0260796 0)
(0.427616 -0.0305992 0)
(0.430075 -0.0360294 0)
(0.433265 -0.0425241 0)
(0.436751 -0.0504142 0)
(0.443075 -0.0594648 0)
(0.412461 -2.16167e-05 0)
(0.412467 -9.07363e-05 0)
(0.412482 -0.000216597 0)
(0.412512 -0.000403781 0)
(0.412559 -0.000654258 0)
(0.412626 -0.000967827 0)
(0.412718 -0.0013434 0)
(0.412838 -0.00177973 0)
(0.412989 -0.00227563 0)
(0.413174 -0.00283016 0)
(0.413397 -0.00344306 0)
(0.41366 -0.00411548 0)
(0.413966 -0.00485088 0)
(0.414315 -0.00565608 0)
(0.414712 -0.00654238 0)
(0.415157 -0.00752653 0)
(0.415655 -0.00863152 0)
(0.416208 -0.00988724 0)
(0.416821 -0.0113311 0)
(0.417502 -0.0130087 0)
(0.418258 -0.0149751 0)
(0.419102 -0.0172969 0)
(0.420048 -0.0200547 0)
(0.421122 -0.0233469 0)
(0.422351 -0.0272945 0)
(0.423805 -0.032045 0)
(0.425499 -0.0377867 0)
(0.427755 -0.0447289 0)
(0.430132 -0.0532027 0)
(0.435073 -0.0633645 0)
(0.412461 -2.37588e-05 0)
(0.412465 -9.83384e-05 0)
(0.412478 -0.000232025 0)
(0.412502 -0.000429421 0)
(0.412539 -0.000692533 0)
(0.412593 -0.00102117 0)
(0.412666 -0.00141418 0)
(0.41276 -0.00187019 0)
(0.412879 -0.00238782 0)
(0.413024 -0.00296593 0)
(0.413196 -0.00360404 0)
(0.413398 -0.00430307 0)
(0.413631 -0.00506625 0)
(0.413895 -0.00590029 0)
(0.414191 -0.00681643 0)
(0.414518 -0.00783149 0)
(0.414878 -0.0089687 0)
(0.415271 -0.0102583 0)
(0.415697 -0.0117384 0)
(0.416156 -0.0134553 0)
(0.416651 -0.0154654 0)
(0.417183 -0.0178371 0)
(0.417755 -0.0206539 0)
(0.418377 -0.0240191 0)
(0.419056 -0.028062 0)
(0.419832 -0.0329437 0)
(0.420695 -0.038873 0)
(0.421901 -0.0461085 0)
(0.423021 -0.054983 0)
(0.426234 -0.0660365 0)
(0.412461 -2.54684e-05 0)
(0.412464 -0.000104372 0)
(0.412474 -0.000244182 0)
(0.412492 -0.000449481 0)
(0.41252 -0.000722251 0)
(0.412561 -0.00106226 0)
(0.412614 -0.00146828 0)
(0.412683 -0.00193879 0)
(0.412768 -0.00247221 0)
(0.412871 -0.00306719 0)
(0.412992 -0.00372298 0)
(0.413132 -0.00444018 0)
(0.413291 -0.00522175 0)
(0.413467 -0.00607407 0)
(0.41366 -0.00700809 0)
(0.413869 -0.00804036 0)
(0.41409 -0.00919385 0)
(0.41432 -0.0104986 0)
(0.414556 -0.0119922 0)
(0.414793 -0.0137209 0)
(0.415024 -0.0157407 0)
(0.415242 -0.0181198 0)
(0.415437 -0.0209423 0)
(0.415599 -0.0243125 0)
(0.415714 -0.0283635 0)
(0.415788 -0.0332637 0)
(0.415778 -0.0392345 0)
(0.415848 -0.0465719 0)
(0.415597 -0.0556064 0)
(0.416763 -0.0672144 0)
(0.412461 -2.67917e-05 0)
(0.412463 -0.000108954 0)
(0.41247 -0.000253201 0)
(0.412483 -0.000464055 0)
(0.412502 -0.000743434 0)
(0.412529 -0.00109103 0)
(0.412563 -0.00150551 0)
(0.412606 -0.00198521 0)
(0.412657 -0.00252838 0)
(0.412718 -0.0031334 0)
(0.412787 -0.00379923 0)
(0.412865 -0.00452614 0)
(0.412949 -0.00531667 0)
(0.413037 -0.00617673 0)
(0.413128 -0.00711676 0)
(0.413217 -0.00815267 0)
(0.4133 -0.00930667 0)
(0.413369 -0.0106078 0)
(0.413418 -0.0120927 0)
(0.413435 -0.0138059 0)
(0.413407 -0.0158015 0)
(0.413316 -0.0181455 0)
(0.413138 -0.0209193 0)
(0.412847 -0.0242247 0)
(0.412404 -0.0281921 0)
(0.411775 -0.0329896 0)
(0.410883 -0.0388399 0)
(0.409778 -0.0460572 0)
(0.408095 -0.0549607 0)
(0.406981 -0.06667 0)
(0.41246 -2.77705e-05 0)
(0.412462 -0.000112199 0)
(0.412467 -0.000259227 0)
(0.412474 -0.00047328 0)
(0.412485 -0.000756182 0)
(0.412497 -0.00110753 0)
(0.412513 -0.00152588 0)
(0.41253 -0.00200944 0)
(0.412548 -0.00255626 0)
(0.412567 -0.00316448 0)
(0.412584 -0.00383276 0)
(0.412599 -0.00456096 0)
(0.412609 -0.00535114 0)
(0.412611 -0.00620862 0)
(0.412601 -0.00714307 0)
(0.412573 -0.00816948 0)
(0.41252 -0.00930882 0)
(0.412433 -0.0105886 0)
(0.412299 -0.0120433 0)
(0.412104 -0.0137148 0)
(0.411827 -0.0156539 0)
(0.411439 -0.0179219 0)
(0.410906 -0.0205946 0)
(0.410182 -0.0237665 0)
(0.409205 -0.0275594 0)
(0.407901 -0.0321312 0)
(0.406157 -0.0376922 0)
(0.403897 -0.0445507 0)
(0.4008 -0.0529991 0)
(0.397317 -0.0642668 0)
(0.41246 -2.84446e-05 0)
(0.412461 -0.000114216 0)
(0.412464 -0.000262442 0)
(0.412466 -0.000477377 0)
(0.412468 -0.000760719 0)
(0.412468 -0.00111197 0)
(0.412464 -0.00152961 0)
(0.412456 -0.0020117 0)
(0.412441 -0.00255612 0)
(0.412419 -0.00316078 0)
(0.412385 -0.00382402 0)
(0.412339 -0.00454528 0)
(0.412277 -0.00532609 0)
(0.412194 -0.00617104 0)
(0.412085 -0.00708888 0)
(0.411943 -0.00809335 0)
(0.41176 -0.0092038 0)
(0.411523 -0.0104456 0)
(0.411217 -0.0118503 0)
(0.410821 -0.0134562 0)
(0.41031 -0.015309 0)
(0.409646 -0.0174635 0)
(0.408785 -0.0199866 0)
(0.407662 -0.0229616 0)
(0.406196 -0.0264948 0)
(0.404276 -0.0307242 0)
(0.401753 -0.0358333 0)
(0.39843 -0.0420968 0)
(0.394023 -0.0497612 0)
(0.388275 -0.0600059 0)
(0.41246 -2.8866e-05 0)
(0.412461 -0.000115146 0)
(0.412461 -0.000263024 0)
(0.412459 -0.000476581 0)
(0.412453 -0.000757347 0)
(0.41244 -0.00110472 0)
(0.412418 -0.00151711 0)
(0.412385 -0.00199248 0)
(0.412339 -0.00252857 0)
(0.412276 -0.00312306 0)
(0.412193 -0.003774 0)
(0.412088 -0.0044804 0)
(0.411955 -0.00524321 0)
(0.411791 -0.00606623 0)
(0.411587 -0.00695712 0)
(0.411337 -0.00792816 0)
(0.41103 -0.00899674 0)
(0.410652 -0.0101856 0)
(0.410185 -0.0115228 0)
(0.409604 -0.0130419 0)
(0.408879 -0.0147824 0)
(0.407967 -0.0167907 0)
(0.406813 -0.0191226 0)
(0.40534 -0.021846 0)
(0.403449 -0.025046 0)
(0.400999 -0.0288319 0)
(0.397812 -0.033346 0)
(0.393586 -0.0388043 0)
(0.388073 -0.0453862 0)
(0.380379 -0.0540609 0)
(0.41246 -2.90831e-05 0)
(0.41246 -0.000115122 0)
(0.412459 -0.000261212 0)
(0.412452 -0.000471218 0)
(0.412439 -0.000746455 0)
(0.412414 -0.00108625 0)
(0.412375 -0.00148898 0)
(0.412318 -0.00195254 0)
(0.412241 -0.00247454 0)
(0.412139 -0.0030525 0)
(0.412009 -0.00368416 0)
(0.411847 -0.00436817 0)
(0.411648 -0.00510487 0)
(0.411405 -0.00589723 0)
(0.411113 -0.00675171 0)
(0.410761 -0.00767898 0)
(0.410339 -0.00869421 0)
(0.40983 -0.00981714 0)
(0.409216 -0.0110719 0)
(0.408469 -0.0124866 0)
(0.407555 -0.0140936 0)
(0.406427 -0.0159298 0)
(0.405023 -0.0180376 0)
(0.403259 -0.0204667 0)
(0.401023 -0.0232769 0)
(0.398152 -0.0265414 0)
(0.394452 -0.0303512 0)
(0.389546 -0.0348421 0)
(0.383212 -0.0401108 0)
(0.374092 -0.0467817 0)
(0.41246 -2.91318e-05 0)
(0.41246 -0.000114311 0)
(0.412457 -0.000257326 0)
(0.412447 -0.000461689 0)
(0.412426 -0.000728535 0)
(0.41239 -0.00105717 0)
(0.412335 -0.00144597 0)
(0.412256 -0.0018928 0)
(0.41215 -0.00239521 0)
(0.412011 -0.00295055 0)
(0.411837 -0.00355638 0)
(0.411621 -0.00421095 0)
(0.411358 -0.00491404 0)
(0.411043 -0.00566777 0)
(0.410667 -0.00647739 0)
(0.410221 -0.00735185 0)
(0.409693 -0.00830396 0)
(0.409067 -0.00935027 0)
(0.408321 -0.0105106 0)
(0.407429 -0.0118074 0)
(0.406353 -0.0132653 0)
(0.405045 -0.0149106 0)
(0.40344 -0.0167718 0)
(0.40145 -0.0188786 0)
(0.398959 -0.0212629 0)
(0.395794 -0.0239583 0)
(0.391754 -0.0269984 0)
(0.386432 -0.0304265 0)
(0.379626 -0.034249 0)
(0.369737 -0.0386629 0)
(0.41246 -2.90818e-05 0)
(0.412459 -0.000112932 0)
(0.412456 -0.000251675 0)
(0.412443 -0.000448415 0)
(0.412415 -0.000704153 0)
(0.412369 -0.0010182 0)
(0.412299 -0.001389 0)
(0.412199 -0.00181444 0)
(0.412066 -0.00229202 0)
(0.411893 -0.00281903 0)
(0.411676 -0.00339287 0)
(0.41141 -0.00401151 0)
(0.411089 -0.00467418 0)
(0.410706 -0.00538219 0)
(0.410254 -0.00613958 0)
(0.409722 -0.00695357 0)
(0.409099 -0.00783459 0)
(0.408368 -0.00879594 0)
(0.407509 -0.00985306 0)
(0.406493 -0.0110226 0)
(0.405283 -0.0123215 0)
(0.403833 -0.0137656 0)
(0.402078 -0.0153687 0)
(0.399931 -0.0171412 0)
(0.397277 -0.0190865 0)
(0.393951 -0.0211983 0)
(0.389756 -0.023453 0)
(0.384294 -0.0257995 0)
(0.37739 -0.0281577 0)
(0.367442 -0.0302793 0)
(0.41246 -2.9022e-05 0)
(0.412459 -0.000111216 0)
(0.412455 -0.000244638 0)
(0.41244 -0.000431928 0)
(0.412407 -0.000673975 0)
(0.412352 -0.000970179 0)
(0.412268 -0.00131912 0)
(0.412149 -0.00171877 0)
(0.41199 -0.00216663 0)
(0.411785 -0.00266 0)
(0.41153 -0.00319618 0)
(0.411217 -0.00377294 0)
(0.410842 -0.00438907 0)
(0.410398 -0.00504514 0)
(0.409877 -0.00574404 0)
(0.409268 -0.00649133 0)
(0.408561 -0.00729513 0)
(0.407739 -0.00816558 0)
(0.406783 -0.00911394 0)
(0.405665 -0.0101513 0)
(0.404351 -0.0112871 0)
(0.402796 -0.0125274 0)
(0.40094 -0.0138727 0)
(0.398702 -0.0153144 0)
(0.395979 -0.0168305 0)
(0.392618 -0.0183775 0)
(0.388445 -0.0198806 0)
(0.383109 -0.0212033 0)
(0.376464 -0.0221931 0)
(0.367114 -0.022206 0)
(0.41246 -2.90434e-05 0)
(0.41246 -0.000109482 0)
(0.412455 -0.000236709 0)
(0.412438 -0.000412824 0)
(0.412402 -0.000638723 0)
(0.412338 -0.000914012 0)
(0.412241 -0.0012375 0)
(0.412105 -0.00160726 0)
(0.411924 -0.00202089 0)
(0.41169 -0.00247576 0)
(0.411399 -0.00296917 0)
(0.411045 -0.00349876 0)
(0.410621 -0.00406297 0)
(0.410121 -0.00466173 0)
(0.409538 -0.00529691 0)
(0.408862 -0.00597254 0)
(0.408082 -0.0066946 0)
(0.407183 -0.00747035 0)
(0.406146 -0.00830722 0)
(0.404948 -0.00921132 0)
(0.403557 -0.0101855 0)
(0.401932 -0.011227 0)
(0.40002 -0.0123245 0)
(0.397753 -0.0134539 0)
(0.395042 -0.0145712 0)
(0.39176 -0.0156025 0)
(0.387765 -0.0164319 0)
(0.38278 -0.0168554 0)
(0.376696 -0.0166694 0)
(0.368472 -0.0149345 0)
(0.41246 -2.92728e-05 0)
(0.41246 -0.000108132 0)
(0.412457 -0.000228518 0)
(0.412439 -0.000391814 0)
(0.412399 -0.000599202 0)
(0.412329 -0.000850704 0)
(0.412222 -0.00114537 0)
(0.41207 -0.00148143 0)
(0.411868 -0.00185665 0)
(0.411608 -0.00226857 0)
(0.411286 -0.00271466 0)
(0.410894 -0.0031925 0)
(0.410427 -0.00370032 0)
(0.409878 -0.00423752 0)
(0.409241 -0.00480509 0)
(0.408506 -0.00540569 0)
(0.407664 -0.00604341 0)
(0.4067 -0.00672298 0)
(0.4056 -0.00744856 0)
(0.40434 -0.00822199 0)
(0.402896 -0.00904062 0)
(0.401232 -0.00989464 0)
(0.399305 -0.0107635 0)
(0.397061 -0.0116109 0)
(0.394429 -0.0123768 0)
(0.391318 -0.0129653 0)
(0.387622 -0.0132326 0)
(0.383159 -0.0129308 0)
(0.377857 -0.0118293 0)
(0.371105 -0.00882161 0)
(0.41246 -2.99441e-05 0)
(0.412462 -0.000107705 0)
(0.412459 -0.000220781 0)
(0.412443 -0.000369701 0)
(0.412401 -0.0005563 0)
(0.412326 -0.000781454 0)
(0.412209 -0.00104433 0)
(0.412044 -0.00134322 0)
(0.411824 -0.00167613 0)
(0.411541 -0.0020409 0)
(0.411191 -0.00243522 0)
(0.410766 -0.00285678 0)
(0.410261 -0.00330376 0)
(0.40967 -0.00377522 0)
(0.408985 -0.00427146 0)
(0.408201 -0.00479407 0)
(0.407307 -0.00534556 0)
(0.406291 -0.00592861 0)
(0.405141 -0.0065448 0)
(0.403838 -0.0071927 0)
(0.40236 -0.00786554 0)
(0.400683 -0.00854834 0)
(0.398773 -0.00921426 0)
(0.39659 -0.0098191 0)
(0.394089 -0.0102931 0)
(0.391212 -0.0105282 0)
(0.387899 -0.0103672 0)
(0.38406 -0.0095428 0)
(0.379668 -0.00782062 0)
(0.374543 -0.00406098 0)
(0.412461 -3.14635e-05 0)
(0.412464 -0.000109195 0)
(0.412466 -0.000214304 0)
(0.412451 -0.000347079 0)
(0.412409 -0.000510628 0)
(0.412329 -0.000707014 0)
(0.412204 -0.000935647 0)
(0.412028 -0.00119486 0)
(0.411793 -0.00148293 0)
(0.411491 -0.00179805 0)
(0.411117 -0.00213814 0)
(0.410664 -0.00250106 0)
(0.410126 -0.00288498 0)
(0.409499 -0.00328875 0)
(0.408776 -0.00371216 0)
(0.40795 -0.00415591 0)
(0.407013 -0.00462129 0)
(0.405956 -0.00510944 0)
(0.404768 -0.00562017 0)
(0.403435 -0.00614992 0)
(0.401942 -0.0066892 0)
(0.40027 -0.00721993 0)
(0.398398 -0.00771205 0)
(0.396304 -0.00811815 0)
(0.393964 -0.00836551 0)
(0.391356 -0.00834348 0)
(0.388464 -0.0078953 0)
(0.385289 -0.00675842 0)
(0.381841 -0.00471242 0)
(0.378323 -0.000700565 0)
(0.412462 -3.45482e-05 0)
(0.412469 -0.000114344 0)
(0.412477 -0.000210682 0)
(0.412467 -0.000325233 0)
(0.412424 -0.000463193 0)
(0.412341 -0.000627379 0)
(0.41221 -0.000817463 0)
(0.412025 -0.00103215 0)
(0.411777 -0.0012703 0)
(0.411459 -0.00153061 0)
(0.411064 -0.00181148 0)
(0.410587 -0.00211108 0)
(0.410022 -0.00242779 0)
(0.409365 -0.00276045 0)
(0.40861 -0.00310848 0)
(0.40775 -0.00347194 0)
(0.40678 -0.00385117 0)
(0.405691 -0.00424623 0)
(0.404476 -0.00465592 0)
(0.403124 -0.00507584 0)
(0.401627 -0.00549546 0)
(0.399973 -0.00589552 0)
(0.398153 -0.00624557 0)
(0.39616 -0.00649925 0)
(0.393992 -0.00658706 0)
(0.391661 -0.00640464 0)
(0.38919 -0.00580782 0)
(0.386656 -0.00455837 0)
(0.384109 -0.00246538 0)
(0.382039 0.00136263 0)
(0.412464 -4.0225e-05 0)
(0.412478 -0.000124395 0)
(0.412496 -0.000211694 0)
(0.412493 -0.000308608 0)
(0.412452 -0.000422567 0)
(0.412368 -0.000556355 0)
(0.412233 -0.000709559 0)
(0.412041 -0.000881198 0)
(0.411784 -0.00107049 0)
(0.411452 -0.00127654 0)
(0.411042 -0.00149812 0)
(0.410546 -0.00173391 0)
(0.409959 -0.00198262 0)
(0.409278 -0.00224324 0)
(0.408497 -0.00251514 0)
(0.407612 -0.00279804 0)
(0.406617 -0.00309185 0)
(0.405505 -0.00339624 0)
(0.404271 -0.00370986 0)
(0.402909 -0.00402805 0)
(0.401416 -0.00434015 0)
(0.399789 -0.00462789 0)
(0.398028 -0.00486385 0)
(0.396139 -0.00500704 0)
(0.394141 -0.00499657 0)
(0.392073 -0.00474125 0)
(0.389992 -0.00411896 0)
(0.388031 -0.00292876 0)
(0.38628 -0.00102792 0)
(0.385407 0.00225993 0)
(0.412468 -5.37359e-05 0)
(0.412496 -0.000136264 0)
(0.412528 -0.000201484 0)
(0.412532 -0.000270697 0)
(0.412493 -0.000352579 0)
(0.412408 -0.000448081 0)
(0.412271 -0.000556712 0)
(0.412075 -0.000678348 0)
(0.411811 -0.00081285 0)
(0.411471 -0.000959737 0)
(0.41105 -0.00111827 0)
(0.410542 -0.0012876 0)
(0.409943 -0.00146686 0)
(0.409248 -0.00165513 0)
(0.408453 -0.00185155 0)
(0.407554 -0.00205527 0)
(0.406547 -0.00226525 0)
(0.405426 -0.00248106 0)
(0.404189 -0.00270347 0)
(0.402833 -0.00293093 0)
(0.401361 -0.00315346 0)
(0.399773 -0.00335239 0)
(0.398077 -0.00350389 0)
(0.396292 -0.00357633 0)
(0.39445 -0.00352315 0)
(0.392612 -0.00327174 0)
(0.390864 -0.00272847 0)
(0.38936 -0.00173179 0)
(0.38825 -0.000198154 0)
(0.388205 0.00231488 0)
(0.412473 -0.000102398 0)
(0.41257 -0.00021111 0)
(0.412606 -0.000261297 0)
(0.412585 -0.000305273 0)
(0.412525 -0.000358291 0)
(0.412423 -0.00041918 0)
(0.412272 -0.000486688 0)
(0.412063 -0.000561048 0)
(0.411787 -0.000642397 0)
(0.411438 -0.000730548 0)
(0.411008 -0.000825301 0)
(0.41049 -0.000926483 0)
(0.409879 -0.00103383 0)
(0.409169 -0.00114697 0)
(0.408355 -0.00126549 0)
(0.407435 -0.00138904 0)
(0.406407 -0.0015172 0)
(0.40527 -0.00164948 0)
(0.404023 -0.00178517 0)
(0.402657 -0.00192203 0)
(0.401164 -0.00205394 0)
(0.399551 -0.00216995 0)
(0.397839 -0.00225416 0)
(0.396059 -0.00228395 0)
(0.394258 -0.00222637 0)
(0.392506 -0.00203208 0)
(0.390921 -0.00163687 0)
(0.389652 -0.000925179 0)
(0.388993 0.000157032 0)
(0.389037 0.00198485 0)
(0.412276 -7.02451e-05 0)
(0.412144 -0.000143507 0)
(0.411905 -0.000166146 0)
(0.411585 -0.000184481 0)
(0.411215 -0.000207927 0)
(0.410796 -0.000234041 0)
(0.410321 -0.000261745 0)
(0.409779 -0.000291197 0)
(0.409165 -0.000322374 0)
(0.408472 -0.000354923 0)
(0.407696 -0.000388471 0)
(0.406832 -0.000422867 0)
(0.405875 -0.000458317 0)
(0.40482 -0.000495409 0)
(0.403661 -0.000534957 0)
(0.402394 -0.000577768 0)
(0.401013 -0.000624465 0)
(0.399511 -0.000674643 0)
(0.397887 -0.000725644 0)
(0.396138 -0.000773766 0)
(0.394271 -0.000817065 0)
(0.392296 -0.000854323 0)
(0.390233 -0.000880895 0)
(0.388122 -0.000887063 0)
(0.386028 -0.000859101 0)
(0.384058 -0.000777243 0)
(0.382369 -0.000621381 0)
(0.381201 -0.000331903 0)
(0.380862 9.48171e-05 0)
(0.381398 0.000818368 0)
(0.476361 -0.00576155 -6.43508e-20)
(0.480088 -0.00868277 -6.42953e-20)
(0.483367 -0.0122793 -9.18662e-19)
(0.485953 -0.0162664 -2.64171e-19)
(0.488193 -0.0205425 2.68098e-19)
(0.490235 -0.0250629 0)
(0.492104 -0.0298292 0)
(0.493836 -0.0348697 2.76075e-19)
(0.49549 -0.0402181 -2.80801e-19)
(0.497115 -0.0459041 -5.64729e-19)
(0.498731 -0.0519578 5.74859e-19)
(0.500342 -0.0584165 0)
(0.501946 -0.0653273 -5.83244e-19)
(0.503538 -0.0727506 5.94448e-19)
(0.505122 -0.0807613 0)
(0.506703 -0.0894522 1.20213e-18)
(0.508285 -0.0989366 6.02692e-19)
(0.509874 -0.109354 6.00503e-19)
(0.51147 -0.120878 6.059e-19)
(0.51307 -0.133726 5.97298e-19)
(0.514665 -0.148176 -5.99472e-19)
(0.51624 -0.164587 1.80592e-18)
(0.517754 -0.183428 0)
(0.519165 -0.205313 -1.1238e-18)
(0.520309 -0.231093 5.16273e-19)
(0.521062 -0.261891 -1.03082e-18)
(0.521033 -0.298812 -1.30802e-18)
(0.518375 -0.347687 0)
(0.517926 -0.392102 0)
(0.494302 -0.506909 4.55514e-20)
(0.480099 -0.0132982 -1.05352e-18)
(0.482467 -0.0166148 0)
(0.484413 -0.0205459 0)
(0.485958 -0.0247291 -1.08838e-18)
(0.487353 -0.029092 1.1019e-18)
(0.488719 -0.033664 1.11554e-18)
(0.490061 -0.0384919 -2.81081e-19)
(0.491383 -0.04361 2.85994e-19)
(0.4927 -0.0490409 8.70958e-19)
(0.494011 -0.054807 1.46761e-18)
(0.495303 -0.06094 -5.90663e-19)
(0.496556 -0.0674833 1.20916e-18)
(0.497759 -0.0744919 6.09654e-19)
(0.498907 -0.0820323 6.2393e-19)
(0.499999 -0.0901832 6.24751e-19)
(0.501033 -0.0990391 1.26556e-18)
(0.501999 -0.108714 0)
(0.502885 -0.119346 -6.35074e-19)
(0.503668 -0.13111 -6.51428e-19)
(0.504316 -0.144221 0)
(0.504784 -0.158952 6.37824e-19)
(0.505008 -0.175651 6.55007e-19)
(0.504886 -0.194767 -1.29846e-18)
(0.504286 -0.216877 0)
(0.502924 -0.24277 5.77749e-19)
(0.500569 -0.273408 5.91179e-19)
(0.496397 -0.310091 -1.09761e-18)
(0.489215 -0.356173 3.84844e-19)
(0.481817 -0.402464 -3.99902e-19)
(0.451569 -0.505732 3.56786e-20)
(0.478468 -0.0204351 1.07302e-18)
(0.479987 -0.0236617 0)
(0.481304 -0.0274847 -1.37162e-19)
(0.482555 -0.0316072 2.3685e-18)
(0.483804 -0.0359648 -8.45028e-19)
(0.485057 -0.0405715 -1.71255e-18)
(0.486282 -0.0454486 1.45335e-18)
(0.487456 -0.050611 -2.92992e-19)
(0.488569 -0.0560778 -8.891e-19)
(0.489613 -0.0618802 -2.91245e-19)
(0.490579 -0.0680609 3.0705e-19)
(0.49146 -0.0746705 -1.85678e-18)
(0.492255 -0.0817661 1.25997e-18)
(0.492959 -0.0894129 -1.91259e-18)
(0.493563 -0.0976877 0)
(0.494049 -0.106683 -1.30441e-18)
(0.494393 -0.116511 0)
(0.494562 -0.12731 0)
(0.494513 -0.13925 1.346e-18)
(0.494188 -0.152542 0)
(0.493506 -0.167449 0)
(0.49236 -0.184302 -1.36123e-18)
(0.490586 -0.203524 1.35392e-18)
(0.487976 -0.225646 0)
(0.484141 -0.251387 0)
(0.478739 -0.28158 -1.24902e-18)
(0.470657 -0.317502 4.39809e-19)
(0.459189 -0.361076 -3.44377e-19)
(0.444509 -0.408268 -2.63456e-19)
(0.408921 -0.499901 0)
(0.476474 -0.0277879 -3.42451e-20)
(0.477671 -0.0311026 -3.46368e-20)
(0.478699 -0.0349789 1.06184e-18)
(0.479757 -0.0391427 -2.28877e-18)
(0.480805 -0.0435318 1.45307e-19)
(0.481785 -0.0481569 2.93854e-19)
(0.482677 -0.0530435 -2.8933e-19)
(0.483481 -0.0582174 0)
(0.4842 -0.0637089 1.54559e-18)
(0.484833 -0.069555 -2.81687e-18)
(0.485374 -0.0757979 1.27889e-18)
(0.485813 -0.0824838 6.44102e-19)
(0.486139 -0.0896655 -1.97996e-18)
(0.486333 -0.0974056 0)
(0.48637 -0.10578 0)
(0.48622 -0.114881 1.39056e-18)
(0.485842 -0.12482 1.41404e-18)
(0.485188 -0.135731 7.06284e-19)
(0.484195 -0.147778 -8.6045e-21)
(0.482778 -0.161162 -7.35118e-19)
(0.480823 -0.176128 0)
(0.478179 -0.192985 0)
(0.47463 -0.212117 -7.99432e-19)
(0.469897 -0.233998 -2.31884e-18)
(0.463507 -0.25926 0)
(0.455025 -0.288597 -8.33282e-19)
(0.443124 -0.323153 1.32017e-18)
(0.427503 -0.364046 -2.53394e-18)
(0.405804 -0.409984 3.40704e-19)
(0.366551 -0.489829 0)
(0.473647 -0.0350245 0)
(0.474501 -0.0383682 1.14618e-18)
(0.475167 -0.0422334 -1.01167e-18)
(0.475908 -0.0463823 1.02661e-18)
(0.476642 -0.0507688 1.4932e-19)
(0.477282 -0.0554068 -1.52107e-19)
(0.477819 -0.0603215 -1.22978e-18)
(0.478266 -0.0655375 0)
(0.478621 -0.0710812 1.47126e-20)
(0.478871 -0.0769848 1.29246e-18)
(0.478999 -0.0832867 -1.64493e-18)
(0.478987 -0.0900317 1.695e-18)
(0.478812 -0.0972729 1.70405e-18)
(0.478447 -0.105074 -3.50099e-19)
(0.477859 -0.113511 2.1489e-18)
(0.477008 -0.122672 -1.42067e-18)
(0.475842 -0.132665 -1.48311e-18)
(0.474297 -0.143617 -7.5671e-19)
(0.472289 -0.15568 0)
(0.469707 -0.16904 0)
(0.466408 -0.183923 0)
(0.462201 -0.200604 8.06287e-19)
(0.456825 -0.219423 2.47957e-18)
(0.449943 -0.240789 8.05155e-19)
(0.44102 -0.265237 1.69764e-18)
(0.42954 -0.293322 -1.01394e-18)
(0.414054 -0.326027 1.81072e-18)
(0.394495 -0.363896 -2.23405e-19)
(0.366523 -0.407188 1.42023e-18)
(0.324971 -0.475649 2.11172e-18)
(0.469985 -0.042131 -1.16074e-18)
(0.470512 -0.0455147 -1.17112e-18)
(0.470828 -0.0493968 -1.20251e-18)
(0.471257 -0.0535643 0)
(0.471682 -0.057976 0)
(0.471991 -0.0626423 -1.26593e-18)
(0.472173 -0.0675849 0)
(0.472242 -0.0728266 9.88013e-19)
(0.472193 -0.0783937 -2.32744e-18)
(0.472004 -0.0843191 1.36608e-18)
(0.471653 -0.0906421 1.04911e-18)
(0.471116 -0.0974079 -2.82185e-18)
(0.470368 -0.104669 9.81389e-22)
(0.469374 -0.112486 -1.11908e-18)
(0.468094 -0.120931 3.35386e-20)
(0.466475 -0.130088 -1.52047e-18)
(0.464453 -0.140054 -4.21053e-20)
(0.461945 -0.150947 1.63683e-18)
(0.45885 -0.162906 -8.56829e-19)
(0.455034 -0.176099 -8.48471e-19)
(0.450327 -0.190725 1.77399e-18)
(0.444508 -0.207022 0)
(0.437276 -0.225279 -1.78495e-18)
(0.42825 -0.245834 0)
(0.416852 -0.269118 -2.00281e-18)
(0.402505 -0.29555 1.90714e-18)
(0.383708 -0.325925 1.99415e-19)
(0.36051 -0.360357 1.96395e-18)
(0.327226 -0.399847 -2.46762e-18)
(0.284222 -0.457499 9.92095e-19)
(0.465411 -0.0490248 1.14911e-18)
(0.465598 -0.052445 -3.79471e-20)
(0.465547 -0.0563368 1.46267e-18)
(0.465634 -0.0605082 4.76436e-19)
(0.465718 -0.0649221 0)
(0.465657 -0.0695889 1.29884e-18)
(0.46544 -0.0745301 1.00465e-18)
(0.465085 -0.079769 -1.69049e-18)
(0.464584 -0.0853322 6.77491e-19)
(0.463912 -0.0912516 -6.909e-19)
(0.463039 -0.0975644 -1.43737e-18)
(0.461937 -0.104313 1.46947e-18)
(0.460575 -0.111546 -3.88915e-19)
(0.458908 -0.11932 1.14988e-18)
(0.456888 -0.127701 -3.6935e-19)
(0.45445 -0.136766 -4.09733e-19)
(0.451518 -0.146603 2.51486e-18)
(0.447997 -0.157319 -2.586e-18)
(0.443767 -0.169035 1.75325e-18)
(0.438679 -0.181896 4.79998e-19)
(0.432538 -0.196072 -1.38505e-18)
(0.425098 -0.211759 1.0085e-18)
(0.416032 -0.229191 0)
(0.404928 -0.248632 -5.27625e-19)
(0.391185 -0.270406 2.68333e-18)
(0.37418 -0.294806 0)
(0.352433 -0.322412 -4.16045e-18)
(0.326022 -0.353029 6.384e-19)
(0.288518 -0.38788 0)
(0.245068 -0.435481 -2.55837e-18)
(0.459832 -0.0555732 -6.19815e-19)
(0.459662 -0.0590208 -7.8607e-20)
(0.459225 -0.0629076 -4.86126e-19)
(0.458948 -0.0670642 -7.32013e-19)
(0.458664 -0.0714591 1.66814e-19)
(0.458207 -0.076103 -1.7035e-19)
(0.457563 -0.0810166 -6.90664e-19)
(0.456753 -0.0862218 -7.18684e-19)
(0.455769 -0.0917437 7.21722e-19)
(0.454578 -0.0976117 -3.65723e-19)
(0.453146 -0.10386 -3.8199e-19)
(0.451439 -0.110528 0)