/*--------------------------------*- C++ -*----------------------------------*\
  =========                 |
  \\      /  F ield         | OpenFOAM: The Open Source CFD Toolbox
   \\    /   O peration     | Website:  https://openfoam.org
    \\  /    A nd           | Version:  11
     \\/     M anipulation  |
\*---------------------------------------------------------------------------*/
FoamFile
{
    format      ascii;
    class       volScalarField;
    location    "8.2";
    object      p;
}
// * * * * * * * * * * * * * * * * * * * * * * * * * * * * * * * * * * * * * //

dimensions      [0 2 -2 0 0 0 0];

internalField   nonuniform List<scalar> 
12600
(
0.665757
0.665622
0.665552
0.665523
0.665491
0.665447
0.665394
0.665333
0.665262
0.665177
0.665077
0.664956
0.664811
0.664635
0.664424
0.664166
0.663852
0.663467
0.662994
0.662414
0.661696
0.660808
0.659718
0.65837
0.65669
0.654592
0.651963
0.648651
0.644491
0.639169
0.665685
0.665614
0.665556
0.665524
0.665491
0.665448
0.665396
0.665335
0.665264
0.665181
0.665082
0.664963
0.66482
0.664647
0.664437
0.664183
0.663872
0.663494
0.663029
0.662459
0.661749
0.66087
0.659795
0.658467
0.656811
0.65474
0.652141
0.648871
0.644734
0.639493
0.665653
0.665618
0.665567
0.665528
0.665494
0.665453
0.665402
0.665343
0.665274
0.665192
0.665095
0.664978
0.664838
0.664668
0.664463
0.664214
0.663911
0.663541
0.663086
0.662528
0.661836
0.660983
0.659936
0.65864
0.657024
0.655002
0.652463
0.649267
0.645192
0.640068
0.665632
0.665609
0.665567
0.665529
0.665496
0.665456
0.665408
0.665351
0.665284
0.665205
0.66511
0.664997
0.664861
0.664698
0.664499
0.664259
0.663966
0.663608
0.66317
0.662631
0.661967
0.661148
0.66014
0.65889
0.657333
0.655386
0.652936
0.64985
0.645891
0.640919
0.665619
0.665603
0.665571
0.665536
0.665503
0.665465
0.665418
0.665363
0.665299
0.665223
0.665132
0.665024
0.664894
0.664737
0.664548
0.664318
0.664039
0.663698
0.66328
0.662768
0.662137
0.66136
0.660401
0.659214
0.657735
0.655885
0.653553
0.650613
0.646819
0.642055
0.665611
0.6656
0.665574
0.665542
0.665509
0.665473
0.665429
0.665377
0.665316
0.665244
0.665158
0.665055
0.664932
0.664784
0.664606
0.664389
0.664126
0.663806
0.663413
0.662933
0.662342
0.661615
0.660718
0.659607
0.658224
0.656493
0.654308
0.651549
0.647969
0.643468
0.665608
0.665599
0.665577
0.665549
0.665518
0.665484
0.665443
0.665394
0.665336
0.665269
0.665188
0.665093
0.664978
0.66484
0.664674
0.664473
0.664229
0.663933
0.66357
0.663126
0.662582
0.661912
0.661087
0.660065
0.658794
0.657203
0.655192
0.652648
0.64933
0.645147
0.665607
0.6656
0.665582
0.665557
0.665528
0.665496
0.665458
0.665413
0.665359
0.665297
0.665223
0.665135
0.665029
0.664903
0.664751
0.664568
0.664346
0.664076
0.663747
0.663345
0.662852
0.662248
0.661503
0.660582
0.659437
0.658005
0.656194
0.653899
0.650888
0.64708
0.66561
0.665603
0.665588
0.665566
0.66554
0.66551
0.665475
0.665434
0.665385
0.665328
0.665261
0.665181
0.665086
0.664973
0.664837
0.664673
0.664475
0.664234
0.663942
0.663586
0.66315
0.662617
0.661961
0.661152
0.660146
0.65889
0.657301
0.655286
0.652625
0.649249
0.665614
0.665609
0.665596
0.665576
0.665553
0.665525
0.665494
0.665457
0.665413
0.665362
0.665302
0.665232
0.665148
0.665048
0.664929
0.664786
0.664614
0.664406
0.664153
0.663846
0.663472
0.663015
0.662455
0.661765
0.660911
0.659846
0.658498
0.65679
0.654521
0.651632
0.66562
0.665616
0.665604
0.665587
0.665566
0.665542
0.665514
0.665481
0.665443
0.665398
0.665346
0.665286
0.665214
0.665129
0.665028
0.664907
0.664762
0.664588
0.664378
0.664123
0.663814
0.663438
0.662978
0.662416
0.661721
0.660858
0.659769
0.65839
0.656547
0.654195
0.665628
0.665624
0.665615
0.6656
0.665581
0.66556
0.665535
0.665507
0.665474
0.665436
0.665393
0.665342
0.665283
0.665214
0.665132
0.665034
0.664918
0.66478
0.664613
0.664413
0.664171
0.663879
0.663525
0.663093
0.662565
0.661912
0.661093
0.66006
0.658673
0.656898
0.665638
0.665634
0.665626
0.665613
0.665597
0.665579
0.665558
0.665534
0.665507
0.665476
0.665441
0.665401
0.665355
0.665302
0.665239
0.665166
0.66508
0.664978
0.664857
0.664712
0.66454
0.664334
0.664087
0.66379
0.663431
0.662994
0.662451
0.661775
0.660862
0.659695
0.665648
0.665645
0.665638
0.665627
0.665614
0.665598
0.665581
0.665562
0.665541
0.665517
0.665491
0.665462
0.665429
0.665392
0.66535
0.665301
0.665245
0.665181
0.665106
0.665018
0.664916
0.664797
0.664658
0.664496
0.664307
0.664086
0.663822
0.663503
0.663073
0.662529
0.66566
0.665657
0.665651
0.665642
0.665631
0.665618
0.665605
0.66559
0.665575
0.665559
0.665541
0.665523
0.665504
0.665483
0.665462
0.665438
0.665413
0.665386
0.665357
0.665326
0.665294
0.665262
0.66523
0.665203
0.665182
0.665173
0.665182
0.665216
0.665262
0.665339
0.665672
0.66567
0.665665
0.665657
0.665648
0.665639
0.665629
0.665619
0.665609
0.6656
0.665592
0.665585
0.665579
0.665575
0.665574
0.665575
0.66558
0.665591
0.665608
0.665633
0.66567
0.665723
0.665797
0.6659
0.666043
0.66624
0.666511
0.666884
0.667387
0.66806
0.665685
0.665683
0.665679
0.665673
0.665666
0.665659
0.665653
0.665648
0.665644
0.665642
0.665643
0.665646
0.665654
0.665666
0.665685
0.665711
0.665746
0.665793
0.665855
0.665936
0.666041
0.666177
0.666352
0.666581
0.666879
0.667271
0.667789
0.668477
0.669404
0.670631
0.665699
0.665697
0.665694
0.665689
0.665683
0.665679
0.665677
0.665676
0.665678
0.665683
0.665692
0.665707
0.665727
0.665756
0.665794
0.665844
0.665909
0.665992
0.666097
0.666231
0.666401
0.666616
0.666889
0.667237
0.667681
0.668253
0.668997
0.669971
0.671275
0.672992
0.665713
0.665712
0.665708
0.665704
0.665701
0.665699
0.6657
0.665704
0.665711
0.665723
0.66574
0.665765
0.665799
0.665843
0.6659
0.665973
0.666066
0.666183
0.666331
0.666516
0.666748
0.667038
0.667402
0.66786
0.668439
0.669175
0.670121
0.671344
0.672969
0.675095
0.665728
0.665726
0.665723
0.66572
0.665718
0.665719
0.665723
0.66573
0.665743
0.665761
0.665787
0.665821
0.665867
0.665926
0.666001
0.666097
0.666216
0.666367
0.666554
0.666787
0.667077
0.667438
0.667886
0.668446
0.669146
0.670028
0.671148
0.67258
0.674463
0.676905
0.665743
0.665742
0.665738
0.665735
0.665734
0.665737
0.665744
0.665756
0.665773
0.665797
0.665831
0.665875
0.665932
0.666005
0.666097
0.666213
0.666359
0.66654
0.666764
0.667042
0.667386
0.667811
0.668337
0.668988
0.669796
0.670803
0.67207
0.673669
0.675743
0.678401
0.665759
0.665757
0.665753
0.66575
0.66575
0.665755
0.665764
0.665779
0.665801
0.665831
0.665872
0.665925
0.665992
0.666078
0.666187
0.666322
0.666491
0.666701
0.666959
0.667279
0.667672
0.668156
0.668751
0.669483
0.670384
0.671498
0.672882
0.674607
0.676807
0.679584
0.665775
0.665773
0.665768
0.665764
0.665765
0.665771
0.665783
0.665801
0.665827
0.665863
0.66591
0.665971
0.666048
0.666146
0.666269
0.666422
0.666613
0.666848
0.667138
0.667494
0.667932
0.668468
0.669124
0.669927
0.670908
0.672109
0.673584
0.675396
0.677663
0.68047
0.665792
0.665789
0.665782
0.665776
0.665778
0.665786
0.665801
0.665821
0.665851
0.665891
0.665944
0.666012
0.666099
0.666207
0.666343
0.666513
0.666722
0.666981
0.667298
0.667688
0.668165
0.668747
0.669456
0.670319
0.671366
0.672637
0.674178
0.676045
0.678329
0.68109
0.665811
0.665805
0.665795
0.665788
0.66579
0.6658
0.665816
0.665839
0.665872
0.665916
0.665974
0.666048
0.666143
0.666261
0.666409
0.666592
0.666818
0.667097
0.667438
0.667857
0.668367
0.668989
0.669743
0.670656
0.671757
0.673081
0.674669
0.676563
0.678828
0.681492
0.665831
0.665822
0.665806
0.665797
0.665801
0.665812
0.665829
0.665855
0.66589
0.665938
0.666
0.66608
0.666181
0.666307
0.666465
0.66666
0.6669
0.667196
0.667559
0.668001
0.66854
0.669194
0.669986
0.670939
0.672083
0.673447
0.675065
0.676967
0.679189
0.681727
0.665855
0.665839
0.665814
0.665804
0.665809
0.665821
0.665839
0.665866
0.665904
0.665955
0.666021
0.666105
0.666212
0.666345
0.66651
0.666715
0.666967
0.667277
0.667656
0.668118
0.66868
0.66936
0.670181
0.671166
0.672342
0.673735
0.675371
0.677269
0.679443
0.681852
0.665884
0.665857
0.665823
0.665812
0.665818
0.66583
0.665849
0.665877
0.665917
0.66597
0.666039
0.666126
0.666236
0.666375
0.666546
0.666758
0.66702
0.66734
0.667732
0.668209
0.668788
0.669488
0.670331
0.67134
0.672539
0.673951
0.675596
0.677483
0.679618
0.681931
0.665921
0.665859
0.66582
0.665815
0.665822
0.665834
0.665853
0.665882
0.665923
0.665978
0.666049
0.666139
0.666253
0.666394
0.66657
0.666787
0.667055
0.667383
0.667783
0.66827
0.668861
0.669575
0.670433
0.671457
0.672672
0.674096
0.675745
0.677618
0.679715
0.681976
0.665998
0.665869
0.665819
0.665817
0.665826
0.665838
0.665857
0.665887
0.665928
0.665984
0.666056
0.666147
0.666263
0.666406
0.666584
0.666804
0.667075
0.667407
0.667813
0.668306
0.668905
0.669627
0.670493
0.671528
0.672751
0.674182
0.675832
0.677696
0.679737
0.681845
0.634326
0.63229
0.630701
0.62941
0.628046
0.626525
0.624908
0.623241
0.621532
0.619772
0.617954
0.616071
0.614109
0.612045
0.609853
0.607497
0.604933
0.602105
0.598942
0.59535
0.591208
0.586352
0.580564
0.57354
0.56488
0.553908
0.540242
0.519893
0.503402
0.44913
0.635407
0.633728
0.632275
0.630999
0.629664
0.628224
0.626746
0.625261
0.623759
0.622221
0.620639
0.619002
0.617297
0.615505
0.6136
0.611554
0.609329
0.606878
0.604139
0.601033
0.597455
0.593265
0.588276
0.582231
0.574779
0.565371
0.553547
0.536777
0.520675
0.476596
0.635742
0.634425
0.633261
0.632117
0.630921
0.629682
0.628432
0.627173
0.625893
0.62458
0.623229
0.621835
0.620386
0.618867
0.617258
0.615535
0.613667
0.611614
0.609325
0.606733
0.603751
0.600261
0.596106
0.591073
0.584861
0.577036
0.567126
0.553427
0.538907
0.503637
0.636634
0.635657
0.634779
0.63379
0.632733
0.631669
0.63061
0.629546
0.628466
0.627367
0.626246
0.625097
0.62391
0.622671
0.621367
0.619976
0.618475
0.616831
0.615003
0.612936
0.610559
0.607778
0.604461
0.600437
0.595451
0.589167
0.58112
0.570173
0.557726
0.530113
0.637883
0.637146
0.636482
0.63564
0.634732
0.63385
0.632992
0.632135
0.63127
0.630397
0.629515
0.628618
0.6277
0.62675
0.625759
0.624712
0.623589
0.622367
0.621013
0.619485
0.617726
0.615663
0.61319
0.61017
0.606394
0.601605
0.595363
0.586953
0.576755
0.555813
0.639454
0.638935
0.638481
0.637808
0.637067
0.636372
0.635715
0.635063
0.63441
0.633761
0.633117
0.632475
0.631829
0.631174
0.630503
0.629806
0.629069
0.628276
0.627402
0.626418
0.62528
0.623931
0.622292
0.620254
0.617651
0.614287
0.609764
0.603674
0.595724
0.580506
0.641343
0.641029
0.640774
0.640269
0.639695
0.639184
0.638724
0.638277
0.637839
0.637418
0.637017
0.636633
0.636265
0.635909
0.635563
0.63522
0.634874
0.634513
0.634122
0.63368
0.633157
0.632513
0.631686
0.630596
0.629112
0.627088
0.624178
0.62018
0.614388
0.60401
0.643541
0.643421
0.643358
0.643021
0.642616
0.64229
0.642028
0.641788
0.641566
0.641373
0.641215
0.641091
0.641002
0.640946
0.640925
0.640938
0.640981
0.641049
0.641135
0.641226
0.641304
0.641339
0.641292
0.641101
0.640667
0.63988
0.638452
0.636303
0.632515
0.626145
0.646036
0.646101
0.646219
0.646049
0.645815
0.645672
0.645604
0.645569
0.645562
0.645596
0.64568
0.645815
0.646003
0.646246
0.646547
0.64691
0.647336
0.647825
0.648375
0.648981
0.649634
0.650317
0.651001
0.651646
0.652177
0.65251
0.652411
0.65186
0.649879
0.646728
0.648808
0.649045
0.649332
0.649327
0.649262
0.6493
0.649424
0.64959
0.649794
0.650053
0.650375
0.650764
0.651223
0.651758
0.652374
0.653077
0.653873
0.654766
0.655759
0.656853
0.658047
0.659331
0.66069
0.662095
0.663491
0.664813
0.665872
0.666665
0.666263
0.665591
0.651824
0.652219
0.652663
0.652817
0.652919
0.653133
0.653443
0.653804
0.654214
0.65469
0.655243
0.655877
0.656598
0.657412
0.65833
0.659357
0.660504
0.661776
0.663183
0.66473
0.66642
0.668251
0.670216
0.672295
0.674446
0.676617
0.678654
0.680544
0.681472
0.682604
0.655038
0.655576
0.656161
0.656468
0.656733
0.657116
0.657603
0.65815
0.658756
0.659439
0.66021
0.661077
0.662045
0.663123
0.664321
0.665651
0.667121
0.668743
0.670527
0.672482
0.674616
0.67693
0.679422
0.682079
0.684869
0.687745
0.690578
0.693337
0.695342
0.697697
0.658392
0.659056
0.659764
0.660215
0.660635
0.661177
0.661829
0.66255
0.663339
0.664215
0.665189
0.66627
0.667465
0.668785
0.67024
0.671842
0.673604
0.675538
0.677655
0.679967
0.682483
0.685209
0.688143
0.691277
0.694582
0.698014
0.701464
0.704879
0.707708
0.710813
0.661814
0.662586
0.663397
0.66398
0.664544
0.665233
0.666036
0.666915
0.66787
0.66892
0.670077
0.671351
0.672749
0.674282
0.675963
0.677804
0.679819
0.682019
0.684419
0.687031
0.689863
0.692923
0.696211
0.699714
0.703408
0.707245
0.711125
0.714972
0.718338
0.721807
0.665222
0.666081
0.666977
0.667677
0.668372
0.669191
0.670126
0.671144
0.672244
0.673446
0.674762
0.676202
0.677773
0.679489
0.68136
0.683401
0.685625
0.688044
0.690673
0.693522
0.696601
0.699915
0.703462
0.70723
0.711187
0.71528
0.719409
0.723458
0.727043
0.730499
0.668528
0.669454
0.670412
0.671212
0.672022
0.672953
0.673999
0.675132
0.676354
0.677682
0.67913
0.680705
0.682418
0.684279
0.686303
0.688501
0.690886
0.693472
0.696271
0.699294
0.702547
0.706035
0.709752
0.713681
0.717785
0.722001
0.726224
0.730298
0.73389
0.737046
0.671641
0.672613
0.673614
0.674495
0.675399
0.67642
0.677553
0.678778
0.680095
0.681521
0.683068
0.684746
0.686564
0.688534
0.690667
0.692977
0.695475
0.698174
0.701085
0.704216
0.707573
0.711156
0.714955
0.718948
0.723093
0.727314
0.731502
0.735473
0.738947
0.741714
0.674477
0.675476
0.676499
0.67744
0.678416
0.679504
0.6807
0.681988
0.683372
0.684865
0.68648
0.688225
0.690111
0.692148
0.694348
0.696723
0.699284
0.702041
0.705004
0.70818
0.711571
0.715173
0.718972
0.722939
0.727023
0.731142
0.735174
0.738911
0.7421
0.74427
0.676965
0.677972
0.678999
0.679978
0.681002
0.682132
0.683364
0.684688
0.686108
0.687636
0.689285
0.691062
0.692977
0.695041
0.697263
0.699656
0.702229
0.704991
0.707949
0.711107
0.714465
0.718013
0.721733
0.725586
0.729515
0.733423
0.737174
0.740528
0.743229
0.744658
0.679053
0.680051
0.681066
0.68206
0.683108
0.684253
0.685495
0.686826
0.688252
0.689783
0.691431
0.693204
0.69511
0.697159
0.699361
0.701725
0.704261
0.706975
0.709871
0.712952
0.716212
0.719637
0.723201
0.726858
0.730539
0.73413
0.737478
0.740311
0.742393
0.74294
0.680716
0.681688
0.682676
0.683664
0.68471
0.685846
0.68707
0.68838
0.689782
0.691285
0.692898
0.69463
0.696489
0.698484
0.700622
0.702913
0.705364
0.707979
0.71076
0.713706
0.716806
0.72004
0.723376
0.726758
0.730104
0.733283
0.736132
0.738333
0.739731
0.738897
0.681952
0.682886
0.683832
0.684793
0.685814
0.686916
0.688098
0.68936
0.690708
0.692152
0.693698
0.695356
0.697131
0.699032
0.701067
0.703241
0.70556
0.708028
0.710641
0.713395
0.716276
0.719257
0.722296
0.72533
0.728262
0.730943
0.733202
0.73464
0.735293
0.732613
0.682791
0.683673
0.684566
0.685482
0.686454
0.687498
0.688614
0.689804
0.691072
0.692426
0.693875
0.695425
0.697083
0.698854
0.700745
0.702762
0.704907
0.70718
0.709577
0.712087
0.714692
0.717359
0.720038
0.722651
0.725091
0.727181
0.728751
0.729282
0.729148
0.724454
0.683284
0.684105
0.684934
0.685787
0.686691
0.687657
0.688686
0.689779
0.690941
0.69218
0.693503
0.694915
0.696421
0.698028
0.699739
0.701558
0.703486
0.70552
0.707652
0.709869
0.712144
0.714437
0.716688
0.718807
0.720672
0.722076
0.722859
0.722331
0.721287
0.714343
0.683501
0.684252
0.685008
0.685784
0.686602
0.687473
0.688396
0.689373
0.69041
0.691511
0.692683
0.693929
0.695255
0.696666
0.698163
0.699748
0.701419
0.703171
0.704992
0.706863
0.70875
0.710606
0.712361
0.713909
0.715114
0.71573
0.71561
0.713841
0.711691
0.702073
0.683534
0.684208
0.684879
0.685562
0.686279
0.687039
0.687841
0.688685
0.689575
0.690516
0.691512
0.692567
0.693686
0.694869
0.696119
0.697434
0.69881
0.700237
0.7017
0.703174
0.70462
0.70598
0.707172
0.708072
0.708527
0.708242
0.707087
0.703874
0.700439
0.687677
0.68347
0.684066
0.684641
0.685221
0.685831
0.686471
0.68714
0.687837
0.688567
0.689333
0.690137
0.690982
0.69187
0.692802
0.693777
0.694789
0.695833
0.696895
0.697956
0.698983
0.699931
0.700729
0.701284
0.701449
0.701052
0.699738
0.697406
0.69254
0.687662
0.671249
0.683457
0.683923
0.684343
0.684802
0.685307
0.685829
0.686357
0.686897
0.687451
0.688022
0.688614
0.689227
0.689864
0.690521
0.691191
0.691867
0.692542
0.6932
0.693812
0.694343
0.694735
0.694909
0.694753
0.694099
0.692753
0.690287
0.686648
0.679897
0.673493
0.652811
0.683793
0.68401
0.684161
0.684471
0.684871
0.685274
0.685675
0.686077
0.686467
0.686845
0.687215
0.687579
0.687955
0.688332
0.688682
0.689
0.689279
0.689498
0.689623
0.689607
0.689384
0.688858
0.687902
0.686317
0.683888
0.680104
0.675002
0.665986
0.658122
0.632294
0.684151
0.683917
0.683839
0.684081
0.684399
0.684682
0.684926
0.685142
0.685333
0.685502
0.685647
0.685755
0.685829
0.685866
0.685852
0.685772
0.685609
0.685339
0.684923
0.684305
0.68341
0.682127
0.680305
0.677715
0.674123
0.668888
0.662349
0.650359
0.64183
0.609299
0.584891
0.557752
0.526544
0.492576
0.456252
0.416951
0.374363
0.329096
0.282111
0.23416
0.186916
0.140397
0.0960686
0.058202
0.0315094
0.0185089
0.0177166
0.0231937
0.0312864
0.0407593
0.0513353
0.0629741
0.0759516
0.0909113
0.108603
0.130947
0.158799
0.193121
0.235759
0.285051
0.62533
0.601816
0.573965
0.54385
0.511049
0.474963
0.434647
0.390496
0.3427
0.291601
0.238327
0.184062
0.130592
0.0825983
0.0478098
0.0309084
0.029219
0.0365333
0.0479135
0.0613886
0.0764585
0.0932158
0.111754
0.132533
0.156024
0.183817
0.217861
0.256844
0.297294
0.336832
0.63385
0.612735
0.587287
0.558597
0.5267
0.490763
0.450611
0.406909
0.359608
0.30915
0.255917
0.201583
0.147845
0.0989662
0.0632374
0.046319
0.0458416
0.0552794
0.0692934
0.0855777
0.103776
0.123832
0.145466
0.168557
0.193219
0.220103
0.251019
0.283528
0.313561
0.336951
0.650004
0.63111
0.607949
0.5821
0.552743
0.518391
0.479064
0.435039
0.386475
0.334049
0.278857
0.222695
0.16757
0.117676
0.0811453
0.0631288
0.0627077
0.0734056
0.0893546
0.108053
0.128934
0.151548
0.175027
0.198724
0.222554
0.247503
0.274631
0.301582
0.326075
0.346978
0.658209
0.641955
0.621552
0.598359
0.571613
0.539852
0.502594
0.45991
0.411924
0.359119
0.302659
0.244518
0.187307
0.135553
0.0972597
0.07792
0.0776631
0.0898225
0.107815
0.128856
0.152129
0.17675
0.201175
0.224327
0.245793
0.267871
0.290959
0.313591
0.335442
0.354934
0.66529
0.651286
0.633123
0.612036
0.587208
0.557322
0.521675
0.480153
0.432813
0.380006
0.32277
0.263154
0.204219
0.150873
0.111267
0.091238
0.0915941
0.105379
0.125353
0.148574
0.173974
0.200085
0.224563
0.245824
0.263838
0.282294
0.301754
0.321439
0.342406
0.360907
0.670301
0.658146
0.642287
0.623411
0.600689
0.572828
0.538955
0.498701
0.45199
0.39912
0.341118
0.280138
0.219602
0.16482
0.1242
0.103736
0.104795
0.12018
0.142074
0.167373
0.194627
0.221639
0.245275
0.262676
0.277593
0.291918
0.308102
0.326275
0.347627
0.365173
0.674089
0.663655
0.649733
0.632856
0.612146
0.586314
0.554366
0.515674
0.469919
0.417261
0.358682
0.296427
0.234261
0.17797
0.136326
0.115485
0.117338
0.13439
0.158176
0.185412
0.214158
0.241496
0.262931
0.275893
0.286851
0.297171
0.311065
0.329364
0.351527
0.368312
0.676905
0.667953
0.65577
0.640709
0.621873
0.597965
0.567907
0.530867
0.486283
0.434113
0.375219
0.311866
0.248125
0.190296
0.14765
0.126573
0.129372
0.148131
0.173717
0.202709
0.232624
0.259801
0.276758
0.286758
0.291975
0.298517
0.311952
0.33214
0.354882
0.370552
0.679023
0.671354
0.660726
0.647299
0.630192
0.608111
0.579893
0.544522
0.501207
0.449686
0.390664
0.32638
0.261159
0.201827
0.158264
0.137107
0.14097
0.161431
0.188711
0.219327
0.250181
0.276115
0.288683
0.293739
0.293038
0.297471
0.312762
0.336024
0.358923
0.372036
0.680628
0.674063
0.664769
0.652845
0.637332
0.616983
0.590558
0.556872
0.514909
0.46417
0.405167
0.340086
0.273466
0.212659
0.168247
0.147133
0.152153
0.174305
0.203186
0.235334
0.266881
0.289435
0.299568
0.296692
0.290971
0.296221
0.315218
0.34122
0.363787
0.374013
0.681852
0.67625
0.668152
0.65753
0.643473
0.624752
0.600059
0.568056
0.527512
0.477676
0.418835
0.353076
0.285123
0.222849
0.177633
0.156676
0.162949
0.186783
0.217198
0.250742
0.282351
0.301875
0.306703
0.296008
0.288121
0.297142
0.320162
0.347064
0.367764
0.376265
0.682788
0.678023
0.670972
0.661512
0.648779
0.631575
0.608535
0.57819
0.539107
0.490272
0.431721
0.365398
0.296172
0.232431
0.186451
0.165765
0.173385
0.198897
0.230837
0.26571
0.296061
0.313722
0.309923
0.292993
0.286707
0.301363
0.328007
0.353902
0.371174
0.376358
0.683506
0.679469
0.67334
0.664922
0.653388
0.637587
0.616116
0.587391
0.549787
0.502032
0.44388
0.377096
0.306652
0.241442
0.194737
0.174424
0.183483
0.210681
0.244152
0.280551
0.309101
0.322423
0.30984
0.290018
0.288568
0.30924
0.338137
0.359675
0.373368
0.37472
0.684054
0.680654
0.67534
0.66785
0.657411
0.642903
0.622914
0.595762
0.559643
0.513028
0.455371
0.388218
0.316606
0.249917
0.20253
0.182671
0.193267
0.222178
0.257082
0.294663
0.321611
0.327845
0.307647
0.288935
0.294263
0.32014
0.347469
0.362855
0.373464
0.371958
0.684467
0.681629
0.677038
0.670386
0.660934
0.647617
0.629024
0.603391
0.568752
0.523324
0.466248
0.398811
0.326075
0.257894
0.209866
0.190535
0.202765
0.233423
0.269621
0.306169
0.332826
0.330287
0.304995
0.29072
0.303334
0.3315
0.35432
0.364349
0.372183
0.368277
0.68477
0.682428
0.678483
0.672588
0.664035
0.651814
0.634529
0.610355
0.577181
0.532976
0.476556
0.408912
0.335093
0.265399
0.216748
0.198064
0.212009
0.244403
0.281969
0.317061
0.341133
0.330004
0.303426
0.29561
0.3141
0.340677
0.359293
0.364533
0.369813
0.363392
0.684983
0.683081
0.679713
0.674505
0.666775
0.655563
0.639502
0.616725
0.584992
0.542037
0.486338
0.418559
0.343691
0.272464
0.223183
0.205298
0.221034
0.255073
0.293603
0.328348
0.34591
0.328032
0.303641
0.303345
0.324589
0.347833
0.362039
0.363844
0.366403
0.357638
0.685122
0.683609
0.680758
0.676174
0.669203
0.658925
0.644006
0.622561
0.592242
0.550553
0.495633
0.427785
0.351895
0.279135
0.229158
0.212205
0.22986
0.265473
0.303313
0.338007
0.347657
0.325758
0.305578
0.311362
0.333228
0.35326
0.363093
0.362539
0.362369
0.351264
0.685199
0.684031
0.681645
0.677629
0.671357
0.661948
0.648096
0.62792
0.598979
0.558567
0.504476
0.436621
0.359731
0.285426
0.234693
0.218788
0.238509
0.275675
0.312302
0.345138
0.347205
0.323715
0.308591
0.319245
0.340419
0.356829
0.362997
0.360784
0.357709
0.344299
0.685223
0.684359
0.682391
0.678896
0.673273
0.664671
0.651819
0.632849
0.605251
0.566119
0.5129
0.445094
0.36723
0.291327
0.239819
0.225126
0.246979
0.285139
0.321388
0.349401
0.345519
0.322019
0.312533
0.326435
0.346364
0.359019
0.362135
0.358373
0.352624
0.336873
0.6852
0.684605
0.683013
0.679997
0.674979
0.667128
0.655213
0.637391
0.611097
0.573244
0.520937
0.453231
0.374405
0.296907
0.244557
0.23115
0.255202
0.292808
0.3295
0.351297
0.343261
0.320866
0.316916
0.332773
0.350881
0.360146
0.360638
0.355512
0.347159
0.329058
0.685139
0.684778
0.683524
0.680948
0.676493
0.669347
0.658314
0.641584
0.616553
0.579974
0.528612
0.461056
0.381286
0.302109
0.248908
0.236979
0.26311
0.299955
0.335689
0.351447
0.340502
0.320526
0.321456
0.338286
0.354205
0.360432
0.358759
0.352159
0.341254
0.321058
0.685049
0.684891
0.683937
0.681765
0.677834
0.671352
0.661152
0.645461
0.621653
0.586341
0.535954
0.468597
0.387889
0.30702
0.252917
0.242539
0.270678
0.307201
0.339618
0.350686
0.337609
0.320873
0.325867
0.343092
0.356593
0.36006
0.356546
0.348209
0.334828
0.313084
0.684936
0.684953
0.684263
0.682462
0.679019
0.673161
0.663751
0.649051
0.626424
0.592364
0.542973
0.475853
0.394222
0.311564
0.256559
0.247854
0.277732
0.313536
0.341827
0.349518
0.334946
0.321755
0.33007
0.347206
0.358231
0.359218
0.35396
0.343619
0.327702
0.305138
0.684803
0.684969
0.684514
0.683053
0.680063
0.674791
0.666132
0.652379
0.630908
0.598104
0.549743
0.48291
0.400352
0.315902
0.259952
0.252799
0.28373
0.318822
0.342992
0.34793
0.332674
0.323032
0.33402
0.350576
0.359085
0.357754
0.350793
0.338333
0.319831
0.297068
0.684649
0.684934
0.684694
0.683543
0.680977
0.67625
0.668305
0.655431
0.635038
0.603441
0.556114
0.489599
0.40614
0.319653
0.262629
0.257439
0.289173
0.32257
0.343723
0.346543
0.330973
0.3246
0.337726
0.353371
0.359528
0.356563
0.347971
0.33236
0.311468
0.288842
0.684491
0.684853
0.684811
0.683946
0.681752
0.67761
0.670388
0.65845
0.639195
0.608832
0.562582
0.496475
0.412284
0.324317
0.265869
0.261915
0.293799
0.324856
0.34439
0.345264
0.329703
0.32643
0.341117
0.355567
0.359168
0.353706
0.342422
0.324648
0.30339
0.280867
0.684373
0.684743
0.68487
0.684291
0.682391
0.678534
0.671812
0.660571
0.64223
0.612887
0.56744
0.501382
0.41602
0.325891
0.267036
0.264521
0.296942
0.326422
0.345117
0.343877
0.328186
0.327558
0.344251
0.357451
0.359305
0.352846
0.339846
0.319769
0.296053
0.273432
0.684311
0.68463
0.684869
0.684597
0.683266
0.680127
0.674299
0.664205
0.647327
0.619739
0.5761
0.511053
0.424867
0.332187
0.270937
0.266841
0.299234
0.32832
0.345556
0.342492
0.327934
0.330653
0.348009
0.35884
0.357949
0.3485
0.332213
0.30808
0.282151
0.266224
0.261788
0.233274
0.196887
0.181096
0.188221
0.22069
0.277038
0.341527
0.396226
0.439075
0.471193
0.495454
0.513953
0.528402
0.540042
0.549761
0.558238
0.56598
0.573326
0.580509
0.58772
0.594972
0.602425
0.609907
0.617876
0.625641
0.634569
0.642816
0.654192
0.658132
0.217639
0.180885
0.144164
0.133298
0.150347
0.189768
0.244272
0.312063
0.378576
0.430323
0.467856
0.494805
0.514541
0.529558
0.541347
0.550866
0.558894
0.566042
0.572735
0.579241
0.585773
0.592382
0.599209
0.606111
0.613365
0.620522
0.628281
0.635194
0.643793
0.649565
0.186071
0.144319
0.107334
0.0961233
0.115091
0.157491
0.211189
0.278731
0.352075
0.414651
0.46023
0.492261
0.514704
0.530915
0.543096
0.552533
0.560151
0.56667
0.572614
0.578325
0.584044
0.589907
0.596023
0.602359
0.609009
0.615817
0.623028
0.630179
0.638135
0.646336
0.18178
0.134042
0.093327
0.0776517
0.0914588
0.13164
0.185363
0.252957
0.330515
0.402621
0.457962
0.495914
0.521272
0.538444
0.550489
0.559263
0.565977
0.571481
0.576373
0.581057
0.585818
0.590828
0.596191
0.60194
0.608114
0.614673
0.621656
0.628935
0.636543
0.644366
0.207185
0.150964
0.101822
0.0784305
0.0851622
0.118846
0.170056
0.236783
0.315554
0.39386
0.45818
0.503494
0.532637
0.550891
0.562403
0.56988
0.575025
0.57891
0.58222
0.585412
0.588792
0.592553
0.596809
0.601599
0.606904
0.612768
0.619133
0.625904
0.633003
0.64033
0.266168
0.195592
0.134332
0.0984862
0.0944677
0.119206
0.165811
0.229899
0.307428
0.388547
0.459837
0.512929
0.547519
0.567913
0.57906
0.584823
0.587715
0.589236
0.590265
0.591336
0.592782
0.594806
0.597523
0.600994
0.605169
0.609985
0.615463
0.62152
0.628102
0.635084
0.348834
0.265124
0.189144
0.137803
0.119665
0.132546
0.171059
0.230739
0.306152
0.387915
0.463915
0.524502
0.565935
0.590123
0.601832
0.605914
0.605981
0.604294
0.602152
0.60028
0.599077
0.598748
0.599393
0.601041
0.603734
0.607311
0.611698
0.61685
0.622696
0.629051
0.432893
0.345837
0.256909
0.19055
0.157498
0.156727
0.184411
0.236582
0.307513
0.388344
0.467426
0.534725
0.584312
0.61501
0.629726
0.633371
0.630763
0.625355
0.619217
0.61346
0.608679
0.605167
0.603004
0.602199
0.602839
0.60478
0.607751
0.611712
0.616573
0.622166
0.494096
0.414385
0.320979
0.24443
0.198039
0.183163
0.199329
0.241976
0.304494
0.381511
0.461605
0.534223
0.592271
0.632896
0.655563
0.662833
0.659796
0.651339
0.641082
0.630937
0.621872
0.614406
0.608769
0.604976
0.602795
0.602194
0.60316
0.605597
0.609046
0.613539
0.508693
0.444149
0.358046
0.280855
0.226765
0.201785
0.205536
0.232076
0.282978
0.353258
0.431953
0.50982
0.577186
0.62881
0.663384
0.681528
0.684744
0.677358
0.66467
0.650497
0.636897
0.624955
0.615196
0.607719
0.602386
0.598843
0.597939
0.598733
0.600041
0.602529
0.471741
0.424784
0.353052
0.281446
0.224552
0.191485
0.184193
0.200059
0.23618
0.288492
0.358861
0.437769
0.514678
0.582162
0.63395
0.668378
0.686164
0.68914
0.681239
0.667153
0.650698
0.634569
0.620368
0.608763
0.599918
0.593688
0.589596
0.587275
0.58707
0.588309
0.407908
0.378427
0.318656
0.254681
0.200569
0.165432
0.150995
0.154443
0.171649
0.203436
0.252374
0.318554
0.398766
0.481118
0.553897
0.60982
0.646845
0.666262
0.671338
0.665869
0.653686
0.638221
0.622243
0.607564
0.595063
0.585061
0.577549
0.572449
0.570054
0.569987
0.351697
0.341596
0.286868
0.230136
0.181666
0.147974
0.131075
0.129257
0.138337
0.156823
0.186473
0.231102
0.295291
0.370693
0.447796
0.514373
0.563773
0.595554
0.611906
0.616709
0.614012
0.606682
0.596671
0.585835
0.575449
0.566161
0.558325
0.552198
0.54794
0.545336
0.337261
0.327515
0.278085
0.226745
0.182135
0.149965
0.132165
0.127636
0.132895
0.143845
0.159997
0.185736
0.227289
0.285226
0.351705
0.414209
0.464446
0.499614
0.520068
0.528978
0.530267
0.527534
0.523347
0.51893
0.514528
0.510897
0.507875
0.505353
0.503136
0.502217
0.365195
0.348436
0.298936
0.248794
0.205012
0.17142
0.150245
0.14125
0.142222
0.149042
0.159057
0.174213
0.200189
0.240774
0.290414
0.338671
0.380633
0.411443
0.429365
0.437418
0.439488
0.43813
0.43511
0.432021
0.429983
0.429091
0.429357
0.430629
0.433245
0.436963
0.414504
0.395259
0.347205
0.296723
0.251349
0.213526
0.185854
0.169398
0.164196
0.16647
0.172594
0.182921
0.201384
0.230925
0.268107
0.303699
0.333052
0.353275
0.366204
0.372752
0.375238
0.3758
0.375586
0.374874
0.373558
0.371749
0.369964
0.368977
0.368353
0.368501
0.448786
0.438148
0.406725
0.365502
0.321968
0.280782
0.246973
0.224663
0.212012
0.206346
0.206285
0.212437
0.225944
0.247032
0.271626
0.295599
0.313844
0.325664
0.333268
0.337249
0.339307
0.340456
0.341069
0.341552
0.342115
0.341426
0.339371
0.33661
0.333467
0.329438
0.451922
0.453525
0.450962
0.435852
0.406527
0.368713
0.330945
0.301092
0.2785
0.26299
0.256275
0.258237
0.265294
0.275868
0.289808
0.304118
0.312702
0.317713
0.319949
0.320341
0.319809
0.318685
0.317127
0.31502
0.31216
0.3083
0.303533
0.297988
0.292043
0.28576
0.442377
0.449026
0.466284
0.478508
0.471196
0.446146
0.409421
0.3689
0.336967
0.318477
0.310042
0.304955
0.304493
0.310336
0.317026
0.320838
0.321704
0.320231
0.317251
0.313475
0.309083
0.304176
0.298532
0.291894
0.284191
0.2753
0.265196
0.253913
0.24199
0.228913
0.436196
0.44171
0.463374
0.48822
0.494037
0.475729
0.442295
0.408253
0.381101
0.363829
0.352502
0.344298
0.341712
0.341126
0.339885
0.33709
0.33254
0.326644
0.31997
0.312756
0.304852
0.296123
0.286249