/*--------------------------------*- C++ -*----------------------------------*\
  =========                 |
  \\      /  F ield         | OpenFOAM: The Open Source CFD Toolbox
   \\    /   O peration     | Website:  https://openfoam.org
    \\  /    A nd           | Version:  11
     \\/     M anipulation  |
\*---------------------------------------------------------------------------*/
FoamFile
{
    format      ascii;
    class       volScalarField;
    location    "8.2";
    object      p;
}
// * * * * * * * * * * * * * * * * * * * * * * * * * * * * * * * * * * * * * //

dimensions      [0 2 -2 0 0 0 0];

internalField   nonuniform List<scalar> 
12600
(
0.095871
0.0957345
0.09567
0.0956504
0.0956324
0.0956081
0.0955806
0.0955516
0.0955205
0.0954861
0.0954473
0.0954031
0.0953522
0.0952931
0.0952239
0.0951424
0.0950457
0.0949306
0.0947931
0.094629
0.0944306
0.0941906
0.0939004
0.0935485
0.0931208
0.0925999
0.0919647
0.0911853
0.0902292
0.0889881
0.0957957
0.0957257
0.0956724
0.0956495
0.0956307
0.095607
0.0955802
0.0955515
0.0955206
0.0954865
0.0954481
0.0954043
0.0953539
0.0952953
0.0952267
0.0951462
0.0950505
0.0949366
0.0948003
0.0946382
0.0944422
0.0942053
0.0939183
0.0935702
0.0931474
0.0926326
0.0920081
0.0912403
0.0903469
0.0893304
0.0957604
0.095727
0.0956808
0.0956518
0.0956314
0.0956087
0.0955825
0.0955541
0.0955236
0.0954899
0.095452
0.0954088
0.0953592
0.0953016
0.0952342
0.0951555
0.0950621
0.0949508
0.0948183
0.094658
0.0944658
0.094234
0.0939532
0.0936127
0.0931992
0.0926963
0.0920861
0.0913445
0.0904716
0.0894313
0.0957358
0.095715
0.0956785
0.0956497
0.0956291
0.0956076
0.0955825
0.0955549
0.0955251
0.0954923
0.0954554
0.0954133
0.095365
0.0953088
0.0952429
0.0951668
0.0950763
0.0949686
0.0948398
0.0946847
0.0944987
0.0942742
0.0940026
0.0936732
0.0932732
0.092787
0.0921967
0.0914811
0.090621
0.0895838
0.0957181
0.0957045
0.0956771
0.0956511
0.0956304
0.0956096
0.0955854
0.0955587
0.0955297
0.0954979
0.0954621
0.0954213
0.0953746
0.0953206
0.095258
0.0951835
0.0950963
0.0949928
0.0948692
0.0947209
0.0945428
0.094328
0.0940682
0.0937532
0.0933707
0.0929057
0.0923404
0.0916538
0.0908185
0.0898078
0.0957054
0.0956958
0.0956747
0.0956514
0.0956307
0.0956103
0.0955873
0.0955617
0.0955337
0.0955029
0.0954684
0.0954292
0.0953844
0.0953329
0.095273
0.0952024
0.0951195
0.0950213
0.0949042
0.094764
0.0945955
0.0943926
0.0941472
0.0938498
0.0934886
0.0930494
0.0925144
0.0918629
0.091064
0.0900923
0.0956961
0.0956889
0.0956721
0.0956516
0.0956318
0.0956122
0.0955904
0.0955661
0.0955393
0.0955098
0.095477
0.0954398
0.0953972
0.0953484
0.0952918
0.0952255
0.0951476
0.0950556
0.0949461
0.0948152
0.0946581
0.094469
0.0942406
0.0939638
0.0936277
0.0932186
0.0927195
0.0921098
0.0913574
0.090438
0.0956893
0.0956836
0.0956699
0.0956519
0.0956334
0.0956146
0.0955939
0.0955708
0.0955453
0.0955173
0.0954861
0.095451
0.095411
0.0953653
0.0953125
0.095251
0.0951789
0.0950939
0.094993
0.0948726
0.0947285
0.0945551
0.094346
0.0940927
0.0937851
0.0934105
0.0929526
0.0923918
0.091696
0.0908417
0.0956846
0.0956799
0.0956685
0.0956526
0.0956354
0.0956174
0.0955979
0.0955761
0.0955521
0.0955257
0.0954965
0.0954637
0.0954267
0.0953844
0.0953359
0.0952796
0.0952139
0.0951367
0.0950454
0.0949367
0.0948069
0.0946511
0.0944633
0.0942361
0.0939603
0.0936244
0.093213
0.0927079
0.0920782
0.0913017
0.0956816
0.0956776
0.0956678
0.0956537
0.0956378
0.0956208
0.0956024
0.095582
0.0955595
0.0955349
0.0955077
0.0954775
0.0954436
0.0954051
0.0953612
0.0953106
0.0952518
0.095183
0.0951021
0.0950061
0.0948919
0.0947551
0.0945906
0.0943919
0.0941509
0.0938573
0.0934975
0.0930547
0.0925003
0.0918137
0.09568
0.0956765
0.0956679
0.0956553
0.0956406
0.0956247
0.0956074
0.0955884
0.0955675
0.0955447
0.0955198
0.0954923
0.0954616
0.0954272
0.0953883
0.0953437
0.0952923
0.0952326
0.0951628
0.0950805
0.0949829
0.0948665
0.0947269
0.0945588
0.0943553
0.0941075
0.0938037
0.0934292
0.0929588
0.0923737
0.0956796
0.0956765
0.0956688
0.0956574
0.0956439
0.095629
0.0956129
0.0955952
0.0955759
0.0955551
0.0955325
0.0955079
0.0954807
0.0954506
0.0954168
0.0953786
0.095335
0.0952849
0.0952267
0.0951587
0.0950787
0.0949838
0.0948706
0.0947348
0.094571
0.0943719
0.094128
0.0938273
0.0934484
0.0929755
0.0956803
0.0956775
0.0956705
0.0956601
0.0956476
0.0956337
0.0956187
0.0956024
0.0955848
0.095566
0.0955458
0.0955241
0.0955006
0.0954748
0.0954465
0.0954149
0.0953794
0.0953392
0.0952932
0.0952401
0.0951784
0.0951059
0.0950202
0.0949181
0.0947957
0.0946478
0.094467
0.0942445
0.0939636
0.0936122
0.0956819
0.0956794
0.0956729
0.0956633
0.0956517
0.0956388
0.0956249
0.0956099
0.095594
0.0955772
0.0955595
0.0955408
0.095521
0.0954998
0.095477
0.0954522
0.0954251
0.0953951
0.0953616
0.0953238
0.0952808
0.0952313
0.0951739
0.0951066
0.095027
0.0949318
0.0948166
0.0946755
0.0944976
0.0942751
0.0956845
0.0956821
0.0956761
0.0956671
0.0956562
0.0956441
0.0956313
0.0956177
0.0956035
0.0955887
0.0955735
0.0955579
0.0955418
0.0955252
0.095508
0.0954902
0.0954715
0.0954519
0.0954311
0.0954088
0.0953849
0.0953588
0.0953301
0.0952982
0.0952621
0.0952207
0.0951724
0.0951148
0.0950431
0.0949544
0.0956879
0.0956856
0.0956798
0.0956713
0.095661
0.0956498
0.095638
0.0956257
0.0956131
0.0956003
0.0955876
0.095575
0.0955627
0.0955507
0.0955392
0.0955283
0.0955181
0.0955089
0.0955009
0.0954943
0.0954895
0.0954869
0.0954871
0.0954906
0.0954983
0.0955111
0.0955301
0.0955568
0.0955923
0.0956393
0.0956921
0.0956898
0.0956842
0.0956759
0.0956661
0.0956556
0.0956447
0.0956337
0.0956227
0.0956119
0.0956016
0.0955921
0.0955835
0.0955761
0.0955702
0.0955662
0.0955645
0.0955656
0.0955703
0.0955792
0.0955935
0.0956142
0.095643
0.0956818
0.0957329
0.0957994
0.0958852
0.0959953
0.0961371
0.0963187
0.095697
0.0956948
0.0956891
0.0956809
0.0956714
0.0956615
0.0956516
0.0956417
0.0956322
0.0956233
0.0956155
0.0956089
0.095604
0.0956011
0.0956008
0.0956035
0.0956101
0.0956214
0.0956385
0.0956627
0.0956957
0.0957393
0.0957963
0.0958696
0.0959632
0.0960822
0.0962332
0.0964245
0.0966694
0.0969812
0.0957028
0.0957004
0.0956946
0.0956862
0.0956769
0.0956675
0.0956584
0.0956496
0.0956415
0.0956345
0.095629
0.0956253
0.095624
0.0956255
0.0956305
0.0956398
0.0956545
0.0956757
0.0957049
0.0957439
0.095795
0.0958609
0.095945
0.0960518
0.0961865
0.0963562
0.0965698
0.0968389
0.0971817
0.0976161
0.0957094
0.0957068
0.0957006
0.0956918
0.0956824
0.0956734
0.0956651
0.0956573
0.0956506
0.0956453
0.095642
0.0956411
0.0956432
0.0956489
0.095659
0.0956747
0.0956971
0.0957278
0.0957686
0.0958218
0.0958903
0.0959775
0.0960878
0.0962265
0.0964004
0.0966182
0.0968911
0.0972333
0.097667
0.098214
0.0957169
0.095714
0.095707
0.0956975
0.0956879
0.0956793
0.0956716
0.0956648
0.0956592
0.0956556
0.0956544
0.0956561
0.0956614
0.0956711
0.0956861
0.0957078
0.0957376
0.0957772
0.095829
0.0958957
0.0959806
0.096088
0.0962228
0.0963916
0.0966024
0.0968652
0.0971933
0.0976029
0.0981193
0.098767
0.0957255
0.095722
0.0957138
0.0957032
0.0956933
0.095685
0.0956779
0.0956718
0.0956674
0.0956653
0.095666
0.0956702
0.0956785
0.0956919
0.0957115
0.0957388
0.0957755
0.0958235
0.0958856
0.0959648
0.0960651
0.0961912
0.0963489
0.0965457
0.0967905
0.0970949
0.0974734
0.0979442
0.0985342
0.0992694
0.0957353
0.095731
0.0957209
0.0957088
0.0956985
0.0956905
0.0956839
0.0956784
0.0956749
0.0956742
0.0956767
0.0956831
0.0956941
0.0957109
0.0957348
0.0957672
0.0958102
0.0958659
0.0959374
0.0960282
0.0961425
0.0962858
0.0964645
0.0966867
0.0969625
0.0973044
0.0977283
0.0982535
0.0989078
0.0997173
0.0957466
0.0957409
0.0957282
0.0957141
0.0957034
0.0956957
0.0956894
0.0956844
0.0956818
0.0956824
0.0956865
0.0956949
0.0957085
0.0957284
0.0957561
0.0957932
0.0958418
0.0959045
0.0959845
0.0960857
0.0962127
0.0963713
0.0965688
0.0968137
0.0971171
0.0974923
0.0979561
0.0985289
0.0992383
0.10011
0.09576
0.0957521
0.0957353
0.0957189
0.095708
0.0957005
0.0956942
0.0956895
0.0956876
0.0956893
0.0956948
0.095705
0.0957207
0.0957433
0.0957743
0.0958155
0.0958691
0.095938
0.0960255
0.0961357
0.0962738
0.096446
0.0966599
0.0969247
0.097252
0.097656
0.0981541
0.0987674
0.0995237
0.100446
0.0957762
0.0957644
0.0957416
0.0957228
0.0957124
0.0957054
0.0956991
0.0956946
0.0956934
0.095696
0.0957027
0.0957144
0.095732
0.0957569
0.0957907
0.0958354
0.0958933
0.0959674
0.0960612
0.0961792
0.0963268
0.0965104
0.0967382
0.0970198
0.0973673
0.0977952
0.0983219
0.0989687
0.0997643
0.10073
0.0957968
0.0957779
0.0957461
0.095725
0.0957151
0.0957082
0.0957017
0.0956974
0.0956968
0.0957002
0.0957079
0.0957208
0.09574
0.0957669
0.0958031
0.0958506
0.0959121
0.0959905
0.0960896
0.0962139
0.0963692
0.0965623
0.0968013
0.0970965
0.0974602
0.0979074
0.0984565
0.0991298
0.0999588
0.100962
0.0958235
0.0957922
0.0957508
0.0957296
0.0957204
0.0957128
0.0957057
0.0957015
0.0957013
0.0957052
0.0957136
0.0957273
0.0957476
0.0957759
0.0958138
0.0958636
0.0959276
0.0960093
0.0961124
0.0962415
0.0964027
0.0966029
0.0968505
0.097156
0.0975319
0.0979931
0.0985584
0.0992497
0.100106
0.10115
0.0958602
0.0957925
0.0957445
0.0957291
0.0957217
0.0957134
0.0957062
0.0957023
0.0957026
0.0957069
0.0957159
0.0957304
0.0957515
0.0957808
0.09582
0.0958713
0.0959373
0.0960213
0.0961271
0.0962598
0.0964251
0.0966301
0.0968836
0.0971961
0.0975802
0.0980508
0.0986257
0.0993259
0.10019
0.101278
0.0959367
0.095802
0.0957426
0.0957308
0.0957246
0.0957156
0.095708
0.0957042
0.0957045
0.095709
0.0957182
0.0957329
0.0957545
0.0957842
0.095824
0.095876
0.095943
0.0960281
0.0961354
0.09627
0.0964374
0.0966449
0.0969014
0.0972175
0.0976058
0.0980812
0.0986603
0.0993631
0.100199
0.101173
0.0885627
0.0876314
0.087092
0.0868902
0.0866651
0.0863327
0.0859531
0.085572
0.0851973
0.0848252
0.0844536
0.084081
0.0837047
0.0833203
0.0829225
0.0825049
0.0820595
0.0815761
0.0810404
0.0804333
0.0797281
0.0788807
0.0778499
0.0764286
0.0748344
0.0713253
0.0696683
0.055303
0.0580451
-0.0186389
0.0890525
0.0881882
0.0875723
0.0872972
0.0870159
0.0866596
0.0862898
0.0859419
0.0856092
0.0852803
0.0849521
0.0846242
0.0842944
0.0839593
0.083615
0.0832569
0.082879
0.0824737
0.0820303
0.0815345
0.0809654
0.0802923
0.0794692
0.0783845
0.0770466
0.0745013
0.0727188
0.0617893
0.0630441
-0.00165907
0.0886907
0.0881491
0.0877412
0.0875083
0.0872614
0.0869552
0.0866416
0.0863452
0.0860575
0.0857703
0.0854838
0.0851993
0.084916
0.0846313
0.0843426
0.084047
0.0837405
0.0834181
0.0830728
0.0826952
0.0822712
0.0817801
0.0811866
0.0804249
0.0794388
0.077705
0.0761537
0.0681933
0.0685794
0.0154861
0.0887568
0.0884237
0.0881402
0.0878951
0.0876386
0.0873598
0.087085
0.0868259
0.0865759
0.0863297
0.0860876
0.0858509
0.0856188
0.0853899
0.0851628
0.0849364
0.084709
0.0844784
0.0842416
0.0839942
0.0837294
0.0834368
0.083095
0.0826702
0.0820977
0.0811122
0.080041
0.0747011
0.0747414
0.0324464
0.0889647
0.0887123
0.0884906
0.088263
0.0880304
0.0877985
0.0875745
0.0873608
0.0871543
0.0869535
0.0867594
0.0865734
0.0863957
0.0862264
0.0860658
0.0859143
0.0857727
0.0856418
0.0855225
0.085416
0.0853229
0.0852432
0.0851713
0.0850986
0.0849818
0.0847076
0.0843071
0.0812759
0.0814973
0.0490878
0.0892672
0.0890739
0.0889096
0.0887173
0.0885164
0.088324
0.0881423
0.0879695
0.0878053
0.0876503
0.0875058
0.0873733
0.0872539
0.0871488
0.0870599
0.0869895
0.0869407
0.0869175
0.086925
0.0869699
0.0870607
0.087208
0.0874224
0.0877188
0.0880856
0.0885105
0.0889052
0.0879337
0.0887349
0.0653883
0.0896492
0.0895034
0.0893858
0.0892286
0.0890609
0.0889079
0.0887698
0.088642
0.0885241
0.0884184
0.0883269
0.0882515
0.0881942
0.0881577
0.0881454
0.0881618
0.0882123
0.0883043
0.0884471
0.0886531
0.0889387
0.0893255
0.0898399
0.0905198
0.0913887
0.0925084
0.0937748
0.0946487
0.096349
0.081198
0.0901011
0.0899983
0.0899245
0.0898048
0.0896742
0.0895623
0.0894684
0.0893862
0.0893159
0.0892611
0.0892246
0.0892089
0.0892172
0.0892533
0.0893224
0.0894308
0.0895867
0.0898006
0.0900862
0.0904618
0.0909516
0.091588
0.0924131
0.0934872
0.0948689
0.0966793
0.0988548
0.101388
0.10424
0.0963323
0.0906207
0.0905585
0.090526
0.0904446
0.0903525
0.090282
0.0902327
0.0901974
0.0901767
0.0901751
0.0901962
0.0902433
0.0903205
0.090433
0.0905875
0.0907925
0.0910588
0.0914001
0.0918348
0.0923866
0.0930875
0.0939807
0.0951235
0.0965973
0.0984947
0.100987
0.104077
0.108103
0.112284
0.110617
0.0912037
0.0911805
0.0911878
0.0911454
0.0910931
0.0910651
0.0910611
0.091074
0.0911046
0.0911578
0.0912385
0.0913506
0.0914991
0.0916909
0.0919341
0.0922393
0.0926197
0.0930927
0.0936806
0.094413
0.0953294
0.0964831
0.0979458
0.0998188
0.102227
0.105382
0.109368
0.11473
0.120339
0.123892
0.0918466
0.0918607
0.0919061
0.0919029
0.0918913
0.0919063
0.0919483
0.0920102
0.092093
0.0922024
0.0923441
0.0925228
0.0927446
0.0930175
0.0933515
0.0937591
0.0942561
0.0948629
0.0956061
0.0965207
0.0976534
0.099067
0.100847
0.103112
0.106016
0.109806
0.114645
0.121193
0.128251
0.136016
0.0925427
0.0925926
0.0926741
0.0927102
0.09274
0.0927984
0.0928866
0.0929978
0.0931333
0.0932997
0.093503
0.093749
0.0940449
0.0943998
0.0948253
0.0953359
0.0959497
0.0966904
0.0975883
0.0986835
0.100029
0.101698
0.103785
0.106428
0.109805
0.114191
0.11982
0.127404
0.135853
0.146852
0.0932841
0.0933681
0.0934836
0.0935584
0.0936298
0.0937316
0.0938656
0.0940258
0.0942139
0.0944369
0.0947016
0.0950147
0.0953841
0.0958204
0.0963365
0.0969488
0.0976777
0.0985495
0.0995985
0.100869
0.102421
0.104333
0.106714
0.109713
0.113529
0.118461
0.124801
0.133266
0.142971
0.156235
0.0940604
0.0941764
0.0943235
0.0944362
0.0945488
0.0946934
0.0948722
0.0950804
0.0953201
0.0955986
0.0959234
0.0963019
0.096743
0.0972584
0.0978624
0.098573
0.0994128
0.100411
0.101604
0.103041
0.104787
0.106928
0.109581
0.112906
0.117121
0.122536
0.129495
0.138683
0.149438
0.164009
0.0948592
0.0950051
0.095181
0.0953302
0.0954832
0.0956691
0.0958911
0.0961454
0.0964347
0.0967666
0.0971489
0.0975899
0.0980994
0.09869
0.0993773
0.100181
0.101125
0.10224
0.103567
0.105159
0.107083
0.109432
0.11233
0.115945
0.120507
0.126338
0.133812
0.143564
0.155127
0.170191
0.0956666
0.0958401
0.0960419
0.0962254
0.0964171
0.0966425
0.0969051
0.0972028
0.0975388
0.0979206
0.0983567
0.098856
0.0994291
0.100089
0.100853
0.101742
0.102781
0.104003
0.105451
0.10718
0.109262
0.111794
0.114904
0.118767
0.123621
0.129789
0.137669
0.147828
0.159964
0.174998
0.0964675
0.0966661
0.096891
0.0971062
0.0973342
0.0975962
0.0978963
0.0982338
0.0986125
0.09904
0.099525
0.100077
0.100707
0.10143
0.102262
0.103226
0.104348
0.105664
0.107217
0.109064
0.111281
0.113965
0.11725
0.121313
0.126396
0.132821
0.140992
0.151404
0.163897
0.178444
0.0972469
0.097468
0.0977128
0.0979567
0.0982178
0.0985131
0.0988468
0.0992198
0.0996363
0.100104
0.100632
0.10123
0.10191
0.102686
0.103577
0.104604
0.105797
0.10719
0.10883
0.110773
0.113098
0.115903
0.119322
0.123534
0.128781
0.135376
0.143721
0.154231
0.166839
0.180423
0.0979903
0.0982312
0.0984932
0.0987622
0.0990526
0.0993772
0.0997401
0.100143
0.100592
0.101094
0.101658
0.102295
0.103015
0.103835
0.104773
0.105852
0.1071
0.108554
0.11026
0.112276
0.114679
0.11757
0.121081
0.12539
0.130732
0.137409
0.145808
0.156251
0.168671
0.181018
0.0986852
0.0989433
0.0992197
0.0995102
0.0998257
0.100175
0.100562
0.100991
0.101466
0.101995
0.102588
0.103254
0.104007
0.10486
0.105833
0.106949
0.108238
0.109734
0.111484
0.113548
0.116001
0.118942
0.122502
0.126853
0.132223
0.138894
0.147226
0.15743
0.169372
0.180325
0.099321
0.099594
0.0998822
0.10019
0.100526
0.100896
0.101302
0.10175
0.102245
0.102795
0.103409
0.104096
0.10487
0.105746
0.106742
0.107882
0.109194
0.110715
0.112489
0.114575
0.117048
0.120004
0.123571
0.127912
0.133245
0.139825
0.147976
0.157778
0.169086
0.17826
0.0998919
0.100177
0.100475
0.100797
0.101149
0.101533
0.101954
0.102415
0.102924
0.103488
0.104115
0.104815
0.105601
0.106489
0.107496
0.108645
0.109966
0.111492
0.113269
0.115354
0.117819
0.120758
0.124292
0.128575
0.13381
0.140221
0.148094
0.157342
0.167954
0.174697
0.100393
0.100689
0.100994
0.101326
0.101689
0.102084
0.102514
0.102984
0.103501
0.104072
0.104705
0.10541
0.106199
0.107088
0.108094
0.10924
0.110554
0.11207
0.113831
0.115892
0.118323
0.121214
0.124678
0.12886
0.133944
0.140114
0.147629
0.156189
0.166063
0.169932
0.100826
0.10113
0.101441
0.101779
0.102149
0.10255
0.102984
0.103457
0.103976
0.104547
0.105179
0.105882
0.106666
0.107547
0.108542
0.109672
0.110966
0.112455
0.114182
0.1162
0.118574
0.121389
0.124752
0.128792
0.133678
0.139547
0.146642
0.154403
0.163529
0.164376
0.101193
0.101503
0.101816
0.102158
0.102532
0.102936
0.103371
0.103843
0.10436
0.104926
0.105551
0.106244
0.107015
0.107879
0.108853
0.109957
0.111218
0.112667
0.114345
0.116301
0.118598
0.121313
0.124547
0.128413
0.133064
0.138583
0.145216
0.152075
0.160485
0.157784
0.101506
0.10182
0.102128
0.102465
0.102837
0.10324
0.103672
0.10414
0.104649
0.105208
0.105822
0.1065
0.107252
0.108093
0.109038
0.110107
0.111325
0.112722
0.114337
0.116216
0.118419
0.121016
0.124099
0.127766
0.132153
0.137284
0.14343
0.14928
0.157029
0.150098
0.101779
0.102095
0.102393
0.102725
0.103098
0.103499
0.103923
0.104381
0.104879
0.105425
0.106022
0.106679
0.107407
0.108218
0.109128
0.110155
0.111321
0.112657
0.114198
0.115989
0.118084
0.120548
0.123462
0.12691
0.131013
0.135726
0.141375
0.146097
0.153271
0.141614
0.102057
0.102313
0.102546
0.102868
0.103256
0.103661
0.104077
0.104522
0.105008
0.105541
0.106127
0.106765
0.107465
0.108243
0.109111
0.110088
0.111195
0.112461
0.11392
0.115613
0.11759
0.119909
0.122644
0.12586
0.12967
0.133941
0.139113
0.142583
0.149322
0.132608
0.102569
0.102685
0.102773
0.103053
0.103447
0.103862
0.104274
0.10471
0.105176
0.105682
0.106234
0.106842
0.107513
0.108255
0.109084
0.110016
0.11106
0.112251
0.113624
0.115214
0.117067
0.119236
0.121785
0.12476
0.128271
0.132077
0.136799
0.138883
0.145314
0.123306
0.102642
0.102522
0.102605
0.102965
0.103399
0.103847
0.104267
0.104701
0.105171
0.105672
0.106207
0.106787
0.107418
0.108111
0.108878
0.109735
0.110707
0.111817
0.113093
0.114571
0.116292
0.118303
0.120663
0.123393
0.126622
0.129943
0.134321
0.134866
0.141208
0.1139
0.105638
0.0973297
0.0881903
0.0788306
0.0698854
0.0617293
0.0546886
0.0491316
0.0454524
0.0440361
0.0449517
0.0476461
0.0506502
0.0523579
0.0519798
0.0499065
0.0482222
0.0467951
0.0452861
0.0441635
0.0433851
0.0425324
0.0413303
0.0398237
0.0382324
0.0365754
0.0347547
0.0326805
0.0301663
0.0271466
0.137015
0.131158
0.124686
0.118301
0.111872
0.105165
0.0983599
0.0918084
0.0856745
0.0803301
0.0762504
0.073491
0.071613
0.0693179
0.0654776
0.0592357
0.0514782
0.04623
0.0447568
0.0438449
0.0421794
0.04024
0.0388811
0.038142
0.0374961
0.0366561
0.0355426
0.0343096
0.0328989
0.0308906
0.131671
0.128149
0.12406
0.119397
0.114015
0.107947
0.101503
0.0949376
0.0885644
0.0829236
0.0783908
0.0747252
0.071323
0.0673045
0.0618286
0.0564294
0.051677
0.0477073
0.045598
0.0436481
0.0412331
0.040403
0.0413417
0.0423499
0.0435167
0.0449228
0.0462897
0.0471828
0.0474877
0.0466321
0.132562
0.130737
0.128314
0.125019
0.120953
0.116188
0.110809
0.10494
0.0988012
0.0927258
0.0870162
0.0817697
0.0768894
0.0721657
0.0674324
0.0630565
0.058662
0.0536117
0.0499322
0.0475073
0.0455278
0.0455536
0.0473327
0.0502971
0.054858
0.0589528
0.0616751
0.0634452
0.064111
0.0638922
0.128655
0.12781
0.126603
0.124686
0.121958
0.118496
0.114366
0.109586
0.104237
0.0985337
0.0927819
0.0872604
0.0820862
0.0772242
0.0725656
0.0680849
0.0637014
0.059695
0.0567976
0.0544029
0.0528238
0.0533587
0.0559484
0.0602902
0.065451
0.0697855
0.0728531
0.073912
0.073315
0.0715899
0.1258
0.12565
0.125234
0.124077
0.122096
0.119424
0.116053
0.111949
0.107162
0.101858
0.0962984
0.0907657
0.0854516
0.0804099
0.0755956
0.0710208
0.0668191
0.0633193
0.0608017
0.0592572
0.0590168
0.0602067
0.0625234
0.0658367
0.0694272
0.0718733
0.072494
0.0713569
0.0682156
0.0628226
0.122832
0.12307
0.123138
0.122541
0.121306
0.119402
0.116793
0.113411
0.109257
0.104441
0.0991699
0.0937085
0.0882999
0.0830981
0.0781683
0.073595
0.0695505
0.0662707
0.0639783
0.0628267
0.0629082
0.0640854
0.0659318
0.0677691
0.0686204
0.0679708
0.0654253
0.0608103
0.0534
0.044471
0.120308
0.120819
0.121235
0.121063
0.120284
0.118926
0.116916
0.114146
0.110573
0.106256
0.101349
0.0960848
0.0907255
0.0854901
0.0805278
0.0759757
0.0720183
0.0688738
0.0667425
0.0657123
0.0657025
0.0664187
0.0673181
0.0676748
0.0667861
0.0641604
0.0593724
0.0524035
0.0428718
0.0327899
0.118093
0.118762
0.119392
0.119507
0.119089
0.118164
0.11664
0.114382
0.111315
0.107457
0.102921
0.0979066
0.0926746
0.0874799
0.0825284
0.078
0.0740954
0.0710279
0.0689572
0.0678914
0.0676359
0.0677755
0.0677022
0.0667595
0.0644189
0.060353
0.0544633
0.0470287
0.0385009
0.0304389
0.116191
0.11696
0.117728
0.118047
0.117899
0.117303
0.116163
0.114329
0.111702
0.108263
0.104084
0.0993329
0.0942591
0.0891374
0.0842161
0.0797131
0.075844
0.0728085
0.0707185
0.0695104
0.0689035
0.068415
0.0674483
0.0654559
0.0620886
0.0572707
0.0512489
0.0445881
0.0380019
0.0325174
0.114554
0.115381
0.116233
0.116692
0.116743
0.116405
0.115573
0.114094
0.111846
0.108784
0.104942
0.100457
0.0955595
0.0905338
0.0856587
0.0811838
0.0773362
0.074298
0.0721355
0.0707226
0.0697197
0.0686259
0.0669077
0.0641636
0.060256
0.0553649
0.0499917
0.0448578
0.0408022
0.038356
0.113142
0.114002
0.114907
0.115463
0.115664
0.115523
0.114939
0.11375
0.111827
0.109097
0.105567
0.101339
0.0966249
0.0917088
0.0868902
0.0824431
0.0786027
0.075534
0.0732633
0.0716175
0.0702267
0.0686118
0.0663363
0.0631648
0.059167
0.0547219
0.0504656
0.0470879
0.0452137
0.0449946
0.111918
0.112795
0.113731
0.114356
0.114669
0.114682
0.114296
0.113349
0.111703
0.109266
0.106018
0.102033
0.0975009
0.0926994
0.0879409
0.0835177
0.0796711
0.0765511
0.0741521
0.0722698
0.0705305
0.0685058
0.0658758
0.0625691
0.0588237
0.0551315
0.0521206
0.0503014
0.050068
0.0510701
0.11085
0.111734
0.112689
0.113364
0.113762
0.113896
0.11367
0.112924
0.111514
0.109334
0.106341
0.102583
0.0982255
0.0935382
0.0888397
0.0844355
0.080572
0.077387
0.0748519
0.0727465
0.0707143
0.068397
0.0655959
0.0623822
0.0591092
0.056285
0.0544403
0.0538739
0.0547465
0.05634
0.109912
0.110796
0.111762
0.112475
0.112939
0.11317
0.113074
0.112496
0.111288
0.109334
0.10657
0.10302
0.0988282
0.0942516
0.0896105
0.0852201
0.0813311
0.0780734
0.0754033
0.0730986
0.070836
0.0683373
0.0655185
0.0625631
0.0598719
0.0579086
0.0570726
0.0574417
0.0590022
0.0608299
0.109082
0.109961
0.110934
0.111677
0.112195
0.112505
0.112517
0.11208
0.111046
0.109289
0.10673
0.103371
0.0993332
0.0948612
0.0902732
0.0858908
0.0819698
0.0786357
0.0758378
0.0733632
0.070933
0.0683519
0.0656359
0.0630417
0.0609654
0.059795
0.0597782
0.0608014
0.0627468
0.0645861
0.108336
0.109212
0.110189
0.110958
0.111521
0.111898
0.112
0.111684
0.1108
0.109217
0.106841
0.103655
0.0997602
0.0953852
0.0908443
0.0864639
0.0825056
0.0790948
0.0761802
0.0735673
0.0710284
0.0684484
0.0659241
0.063742
0.0622679
0.0617906
0.0624042
0.0638527
0.0659664
0.0676837
0.107663
0.108534
0.109514
0.110306
0.11091
0.111345
0.111526
0.111314
0.110561
0.109132
0.106919
0.10389
0.100125
0.0958385
0.091338
0.0869533
0.0829534
0.0794676
0.0764493
0.0737294
0.0711348
0.0686238
0.0663481
0.0645976
0.0636836
0.063785
0.0648571
0.0665534
0.0686832
0.07021
0.107049
0.107916
0.108899
0.10971
0.110353
0.110841
0.111092
0.110971
0.110335
0.109042
0.106977
0.104089
0.100442
0.0962338
0.0917659
0.0873702
0.0833252
0.0797677
0.0766595
0.0738621
0.0712576
0.0688676
0.0668738
0.0655499
0.0651351
0.0656999
0.0670848
0.0688962
0.0709362
0.0722474
0.106482
0.107347
0.108332
0.109163
0.109843
0.110381
0.110695
0.110658
0.110126
0.108957
0.107023
0.104262
0.10072
0.0965814
0.0921378
0.0877239
0.0836309
0.0800059
0.0768213
0.0739736
0.0713976
0.0691656
0.0674704
0.0665501
0.0665628
0.0674818
0.0690599
0.0708923
0.0727733
0.073872
0.105955
0.106819
0.107806
0.108655
0.109372
0.109959
0.110333
0.110372
0.109937
0.108879
0.107066
0.104419
0.100971
0.0968904
0.0924619
0.0880219
0.0838781
0.0801902
0.0769419
0.0740678
0.0715513
0.0695025
0.0681087
0.0675569
0.067924
0.0691004
0.070774
0.072559
0.0742428
0.075158
0.105461
0.106327
0.107312
0.10818
0.108934
0.109569
0.110001
0.110113
0.109768
0.108814
0.10711
0.104566
0.1012
0.097168
0.0927454
0.0882711
0.0840742
0.0803287
0.0770277
0.0741495
0.0717171
0.0698674
0.0687637
0.0685336
0.0691825
0.0705382
0.07224
0.0739304
0.0753949
0.0761739
0.105003
0.105864
0.106844
0.10773
0.108523
0.109206
0.109696
0.109879
0.10962
0.108764
0.107162
0.104711
0.101414
0.0974201
0.0929923
0.0884733
0.0842204
0.080423
0.0770784
0.0742109
0.0718778
0.0702418
0.0694131
0.0694535
0.0703085
0.0717697
0.0734594
0.075052
0.076309
0.0769993
0.104589
0.105427
0.106393
0.107299
0.108133
0.108865
0.109413
0.109667
0.109492
0.10873
0.107223
0.104857
0.101621
0.0976556
0.0932137
0.0886412
0.0843299
0.0804852
0.0771095
0.074281
0.0720573
0.0706267
0.0700402
0.0703012
0.0713066
0.0728087
0.0744299
0.0759184
0.0770335
0.0777339
0.104204
0.105021
0.105965
0.106883
0.107759
0.108541
0.109147
0.109474
0.109385
0.108714
0.107297
0.105006
0.101819
0.0978674
0.093396
0.0887559
0.0843857
0.0804966
0.0770739
0.0742502
0.072207
0.0709876
0.0706105
0.0710379
0.0721622
0.0737134
0.07527
0.0766192
0.0775839
0.0784027
0.103858
0.104653
0.105557
0.106483
0.107397
0.10823
0.108895
0.109296
0.109293
0.108716
0.107391
0.105175
0.10203
0.0980913
0.0935855
0.0888653
0.0844341
0.0805244
0.0770859
0.0743128
0.0723876
0.0713452
0.0711211
0.0716338
0.0727907
0.0743705
0.0759698
0.0773201
0.0782178
0.0791696
0.103549
0.104304
0.105167
0.1061
0.107047
0.107927
0.108653
0.109134
0.109221
0.108733
0.107493
0.105338
0.10221
0.0982567
0.0936912
0.088887
0.0843753
0.0804108
0.0769442
0.0742819
0.0725147
0.0716598
0.0715709
0.0721613
0.0733181
0.0747965
0.0762837
0.0775704
0.0786075
0.0800021
0.103276
0.103965
0.10479
0.105734
0.106708
0.107629
0.108408
0.108944
0.109144
0.108762
0.107624
0.105552
0.102483
0.0985105
0.0938655
0.0889664
0.0844398
0.0804426
0.0769388
0.0742926
0.0726579
0.0719571
0.0719289
0.0725831
0.0739276
0.0756309
0.0771475
0.0782612
0.0792945
0.0808246
0.103082
0.103639
0.104416
0.105383
0.106419
0.107411
0.10827
0.108894
0.109132
0.108828
0.107757
0.10571
0.102618
0.0985727
0.0938237
0.0887928
0.084265
0.0803156
0.0768106
0.0742671
0.0727882
0.0721371
0.0720808
0.0725534
0.073722
0.0754585
0.077096
0.0784373
0.0798549
0.0816308
0.102996
0.103356
0.103994
0.10487
0.105891
0.106926
0.107857
0.108599
0.109006
0.108884
0.107976
0.106079
0.103074
0.0989559
0.0940837
0.0889177
0.0841819
0.0799865
0.0765232
0.074103
0.0728298
0.0723449
0.0724385
0.0730677
0.0745383
0.0764087
0.0780433
0.079384
0.0807509
0.0821513
-0.101282
-0.0851271
-0.0466095
0.00436906
0.022453
0.0455658
0.0533261
0.061863
0.0658753
0.0688355
0.07041
0.0712497
0.0716118
0.071707
0.0716765
0.0716144
0.071574
0.0715748
0.0716429
0.0717658
0.0719473
0.0721538
0.0724255
0.0726667
0.0730262
0.0733292
0.0738686
0.0743196
0.0753297
0.0740077
-0.102439
-0.0918917
-0.0536672
-0.000781984
0.0213699
0.0438812
0.0533813
0.0617991
0.0665508
0.069634
0.0713852
0.0722901
0.0726562
0.072703
0.0725863
0.072413
0.0722486
0.0721265
0.0720738
0.0720873
0.0721746
0.0722989
0.0724882
0.0726742
0.0729248
0.073114
0.0733974
0.0734773
0.0738963
0.0733047
-0.103031
-0.0965359
-0.0633683
-0.00770553
0.0190114
0.0410068
0.0526032
0.0613375
0.0669315
0.0704008
0.0724237
0.0734646
0.0738648
0.0738703
0.0736587
0.073355
0.0730428
0.0727729
0.0725784
0.0724667
0.0724422
0.0724841
0.072594
0.0727347
0.0729147
0.0730733
0.0732661
0.0733583
0.0736234
0.0736837
-0.103211
-0.0982979
-0.0720901
-0.0135943
0.0172386
0.0393231
0.0524514
0.0616543
0.0677893
0.0715866
0.0737723
0.0748549
0.0752116
0.0751184
0.0747747
0.0743217
0.0738568
0.0734431
0.0731199
0.0729009
0.0727884
0.0727689
0.0728325
0.0729563
0.0731324
0.0733294
0.0735641
0.0737784
0.0740534
0.0742298
-0.103895
-0.0974362
-0.0793658
-0.0194697
0.0153276
0.0382062
0.0524757
0.0622143
0.0687754
0.0728986
0.0752618
0.0763973
0.0767139
0.0765171
0.0760314
0.0754155
0.0747796
0.0742004
0.0737268
0.0733794
0.073162
0.0730638
0.0730703
0.0731607
0.0733184
0.0735184
0.0737539
0.0739909
0.0742469
0.074443
-0.105586
-0.0979211
-0.0871195
-0.0269617
0.0122113
0.0366883
0.0521115
0.0625305
0.0695893
0.0741236
0.0767647
0.0780357
0.0783672
0.0780941
0.0774697
0.0766753
0.0758393
0.0750572
0.0743934
0.0738797
0.0735247
0.0733197
0.0732471
0.0732836
0.0734058
0.0735874
0.0738102
0.0740499
0.0743083
0.0745405
-0.107957
-0.102969
-0.0966589
-0.0364866
0.0076838
0.0344661
0.0512718
0.0625375
0.0701834
0.0751983
0.0782001
0.079685
0.0800873
0.0797694
0.0790219
0.0780501
0.0769995
0.0759869
0.0750978
0.0743819
0.0738589
0.0735239
0.0733574
0.0733333
0.0734226
0.0735948
0.0738242
0.0740855
0.074371
0.0746342
-0.110585
-0.111151
-0.106767
-0.0469191
0.00202091
0.0314988
0.0499674
0.0622287
0.0705279
0.0760571
0.0794584
0.0812132
0.081754
0.0814486
0.0806095
0.079469
0.0781963
0.0769343
0.0757946
0.0748484
0.0741303
0.0736416
0.0733633
0.073268
0.073323
0.0734911
0.0737375
0.0740304
0.0743565
0.0746599
-0.113123
-0.119898
-0.116238
-0.0575991
-0.00481727
0.0276607
0.048053
0.0614676
0.0704984
0.0765804
0.0804157
0.0824713
0.0831695
0.0829149
0.0820478
0.0808005
0.079335
0.0778013
0.0763528
0.0751217
0.0741792
0.0735272
0.0731349
0.0729675
0.0729944
0.0731701
0.0734479
0.0737876
0.0741716
0.0745362
-0.115426
-0.127872
-0.124569
-0.0688609
-0.0126757
0.0227227
0.0452367
0.0599786
0.06987
0.0766026
0.080953
0.0833601
0.0842352
0.0840243
0.0831099
0.081776
0.0802072
0.0785148
0.0767986
0.0752085
0.0739263
0.073036
0.0725079
0.0722507
0.0722577
0.0724695
0.0728172
0.0732431
0.0737203
0.0741791
-0.117602
-0.134576
-0.131379
-0.0794926
-0.0216681
0.0164309
0.0411506
0.0573722
0.0682582
0.0756954
0.0805453
0.0832706
0.0843338
0.0842112
0.0832685
0.0817916
0.080029
0.0781625
0.0762908
0.0745451
0.0730524
0.0719417
0.0713174
0.0709269
0.0709208
0.0712003
0.0716689
0.0722398
0.0728644
0.0734689
-0.119159
-0.139488
-0.136673
-0.0885734
-0.0319672
0.00856231
0.035398
0.0530747
0.0648186
0.0727633
0.077992
0.0810508
0.0824242
0.0826107