/*--------------------------------*- C++ -*----------------------------------*\
  =========                 |
  \\      /  F ield         | OpenFOAM: The Open Source CFD Toolbox
   \\    /   O peration     | Website:  https://openfoam.org
    \\  /    A nd           | Version:  11
     \\/     M anipulation  |
\*---------------------------------------------------------------------------*/
FoamFile
{
    format      ascii;
    class       volVectorField;
    location    "8.2";
    object      U;
}
// * * * * * * * * * * * * * * * * * * * * * * * * * * * * * * * * * * * * * //

dimensions      [0 1 -1 0 0 0 0];

internalField   nonuniform List<vector> 
12600
(
(0.412113 0.000106606 0)
(0.411843 0.000181112 0)
(0.411431 0.000191598 0)
(0.41096 0.000194824 0)
(0.410493 0.000199139 0)
(0.410034 0.00020207 0)
(0.409578 0.000203552 0)
(0.409123 0.00020431 0)
(0.408671 0.000204558 0)
(0.408224 0.000204239 0)
(0.407785 0.000203292 0)
(0.407355 0.000201651 0)
(0.406936 0.000199244 0)
(0.406532 0.000195974 0)
(0.406145 0.000191693 0)
(0.405779 0.000186176 0)
(0.405439 0.00017904 0)
(0.40513 0.000170026 0)
(0.40486 0.000159037 0)
(0.404638 0.000145356 0)
(0.404477 0.000128737 0)
(0.404389 0.000109735 0)
(0.404391 8.3117e-05 0)
(0.404505 4.96349e-05 0)
(0.404759 5.28622e-06 0)
(0.405185 -4.79454e-05 0)
(0.40583 -0.000114824 0)
(0.406754 -0.000199775 0)
(0.408138 -0.000338728 0)
(0.408903 -0.000874654 0)
(0.412492 0.000153717 0)
(0.412639 0.000280564 0)
(0.412776 0.000262208 0)
(0.412828 0.000254665 0)
(0.412872 0.000258032 0)
(0.412924 0.000258788 0)
(0.412978 0.000256747 0)
(0.413034 0.000253379 0)
(0.413093 0.00024883 0)
(0.413157 0.00024302 0)
(0.413227 0.000235887 0)
(0.413307 0.000227268 0)
(0.413398 0.000216914 0)
(0.413502 0.000204529 0)
(0.413621 0.000189639 0)
(0.413761 0.000171147 0)
(0.413924 0.000148599 0)
(0.414117 0.00012204 0)
(0.414345 8.84987e-05 0)
(0.414617 4.76349e-05 0)
(0.414944 -2.42954e-06 0)
(0.415338 -6.39967e-05 0)
(0.415813 -0.000139531 0)
(0.416387 -0.000232535 0)
(0.417085 -0.000347028 0)
(0.417924 -0.000490297 0)
(0.418974 -0.000667681 0)
(0.420122 -0.000921668 0)
(0.421832 -0.00119523 0)
(0.422288 -0.00213655 0)
(0.41248 8.35658e-05 0)
(0.412555 0.000149919 0)
(0.412648 0.000154897 0)
(0.412716 0.000157356 0)
(0.412768 0.000163954 0)
(0.41282 0.000167052 0)
(0.412875 0.000165851 0)
(0.412931 0.000162443 0)
(0.41299 0.00015695 0)
(0.413053 0.000149186 0)
(0.413123 0.000139167 0)
(0.413202 0.000126679 0)
(0.413292 0.000111353 0)
(0.413395 9.27374e-05 0)
(0.413513 7.04381e-05 0)
(0.413649 4.28793e-05 0)
(0.413806 9.47937e-06 0)
(0.413989 -3.33606e-05 0)
(0.414205 -8.70439e-05 0)
(0.414462 -0.000151519 0)
(0.414769 -0.000230736 0)
(0.415139 -0.000328112 0)
(0.415585 -0.000447984 0)
(0.416126 -0.000595459 0)
(0.416782 -0.000776377 0)
(0.417578 -0.00100113 0)
(0.418548 -0.00127531 0)
(0.4197 -0.00163757 0)
(0.421073 -0.00208274 0)
(0.422655 -0.00247351 0)
(0.412473 5.43023e-05 0)
(0.412523 0.000128803 0)
(0.412598 0.000155795 0)
(0.412663 0.000165663 0)
(0.412713 0.000173702 0)
(0.412763 0.00018043 0)
(0.412815 0.000179321 0)
(0.41287 0.000175345 0)
(0.412927 0.000168411 0)
(0.412989 0.000158132 0)
(0.413057 0.000144225 0)
(0.413134 0.000126508 0)
(0.413222 0.000104675 0)
(0.413322 7.82398e-05 0)
(0.413437 4.64293e-05 0)
(0.413568 8.99404e-06 0)
(0.413721 -3.64808e-05 0)
(0.413898 -9.31932e-05 0)
(0.414108 -0.000163145 0)
(0.414357 -0.000250382 0)
(0.414654 -0.00035791 0)
(0.415011 -0.000490135 0)
(0.415443 -0.000652615 0)
(0.415965 -0.000852352 0)
(0.416598 -0.00109784 0)
(0.417365 -0.00140081 0)
(0.418295 -0.00177279 0)
(0.419417 -0.0022321 0)
(0.420752 -0.00278973 0)
(0.422428 -0.0032297 0)
(0.412468 3.8215e-05 0)
(0.412503 9.75613e-05 0)
(0.412561 0.0001224 0)
(0.412619 0.000128254 0)
(0.412668 0.000131224 0)
(0.412715 0.00013284 0)
(0.412766 0.00013073 0)
(0.412819 0.000124149 0)
(0.412875 0.000113323 0)
(0.412935 9.86025e-05 0)
(0.413002 8.01997e-05 0)
(0.413077 5.71061e-05 0)
(0.413162 2.93822e-05 0)
(0.413258 -3.66856e-06 0)
(0.413369 -4.387e-05 0)
(0.413497 -9.15314e-05 0)
(0.413644 -0.000149817 0)
(0.413815 -0.000221192 0)
(0.414016 -0.000309451 0)
(0.414255 -0.000418783 0)
(0.41454 -0.000553475 0)
(0.414882 -0.000719233 0)
(0.415294 -0.000922995 0)
(0.415791 -0.00117324 0)
(0.416394 -0.00148028 0)
(0.417126 -0.00185712 0)
(0.418011 -0.00231858 0)
(0.419092 -0.00287649 0)
(0.420372 -0.00356348 0)
(0.422059 -0.00420285 0)
(0.412466 2.72435e-05 0)
(0.412491 7.29105e-05 0)
(0.412538 9.70099e-05 0)
(0.412589 0.000105825 0)
(0.412636 0.00011062 0)
(0.412682 0.00011406 0)
(0.412731 0.000113402 0)
(0.412783 0.000107494 0)
(0.412837 9.65669e-05 0)
(0.412895 8.0648e-05 0)
(0.41296 5.94652e-05 0)
(0.413033 3.28276e-05 0)
(0.413115 5.86876e-07 0)
(0.413207 -3.7698e-05 0)
(0.413313 -8.3696e-05 0)
(0.413435 -0.000139791 0)
(0.413575 -0.000208142 0)
(0.413738 -0.000292185 0)
(0.413929 -0.000396393 0)
(0.414155 -0.000525815 0)
(0.414424 -0.000685876 0)
(0.414747 -0.000883063 0)
(0.415135 -0.00112533 0)
(0.415604 -0.00142259 0)
(0.416171 -0.00178719 0)
(0.41686 -0.00223405 0)
(0.417692 -0.00278146 0)
(0.418717 -0.00344212 0)
(0.419932 -0.00426234 0)
(0.42157 -0.00508779 0)
(0.412464 1.95666e-05 0)
(0.412483 5.40659e-05 0)
(0.412522 7.51974e-05 0)
(0.412567 8.40687e-05 0)
(0.412612 8.76821e-05 0)
(0.412656 8.88589e-05 0)
(0.412702 8.5967e-05 0)
(0.412751 7.76378e-05 0)
(0.412804 6.36284e-05 0)
(0.41286 4.388e-05 0)
(0.412922 1.82454e-05 0)
(0.412992 -1.36382e-05 0)
(0.41307 -5.21002e-05 0)
(0.413158 -9.77037e-05 0)
(0.413259 -0.000151607 0)
(0.413374 -0.000216713 0)
(0.413506 -0.000296104 0)
(0.413659 -0.000393697 0)
(0.413838 -0.000514306 0)
(0.41405 -0.000663449 0)
(0.414301 -0.000847426 0)
(0.414601 -0.00107385 0)
(0.414962 -0.00135201 0)
(0.415397 -0.00169335 0)
(0.415923 -0.00211201 0)
(0.416561 -0.00262496 0)
(0.417333 -0.00325358 0)
(0.418287 -0.00401525 0)
(0.419423 -0.00496004 0)
(0.420975 -0.00597824 0)
(0.412463 1.38285e-05 0)
(0.412479 3.89666e-05 0)
(0.41251 5.57637e-05 0)
(0.412551 6.3383e-05 0)
(0.412592 6.58993e-05 0)
(0.412634 6.57598e-05 0)
(0.412678 6.19665e-05 0)
(0.412726 5.2853e-05 0)
(0.412776 3.76237e-05 0)
(0.41283 1.60126e-05 0)
(0.41289 -1.21416e-05 0)
(0.412956 -4.70721e-05 0)
(0.41303 -8.91916e-05 0)
(0.413114 -0.000139388 0)
(0.413208 -0.000199159 0)
(0.413316 -0.000271292 0)
(0.413439 -0.00035928 0)
(0.413581 -0.000467556 0)
(0.413746 -0.000601548 0)
(0.413941 -0.00076755 0)
(0.414172 -0.000972736 0)
(0.414447 -0.00122557 0)
(0.414777 -0.00153629 0)
(0.415173 -0.00191755 0)
(0.415652 -0.00238518 0)
(0.416233 -0.00295843 0)
(0.416936 -0.00366191 0)
(0.417808 -0.00451873 0)
(0.418847 -0.00558182 0)
(0.420284 -0.00678233 0)
(0.412463 9.28903e-06 0)
(0.412475 2.65118e-05 0)
(0.412502 3.86458e-05 0)
(0.412538 4.43378e-05 0)
(0.412577 4.56572e-05 0)
(0.412617 4.42133e-05 0)
(0.412659 3.9137e-05 0)
(0.412704 2.86275e-05 0)
(0.412752 1.15331e-05 0)
(0.412804 -1.26054e-05 0)
(0.41286 -4.40084e-05 0)
(0.412923 -8.2868e-05 0)
(0.412992 -0.00012961 0)
(0.41307 -0.000185177 0)
(0.413158 -0.000251249 0)
(0.413257 -0.000330724 0)
(0.41337 -0.000427536 0)
(0.4135 -0.000546606 0)
(0.41365 -0.000693809 0)
(0.413827 -0.00087593 0)
(0.414035 -0.00110078 0)
(0.414282 -0.00137761 0)
(0.414578 -0.00171767 0)
(0.414932 -0.00213486 0)
(0.415358 -0.00264667 0)
(0.415875 -0.00327462 0)
(0.416501 -0.00404629 0)
(0.417278 -0.00499097 0)
(0.418205 -0.0061625 0)
(0.419501 -0.00753596 0)
(0.412462 5.57267e-06 0)
(0.412473 1.59991e-05 0)
(0.412496 2.3516e-05 0)
(0.412528 2.68097e-05 0)
(0.412564 2.66423e-05 0)
(0.412602 2.37837e-05 0)
(0.412642 1.73146e-05 0)
(0.412685 5.41038e-06 0)
(0.41273 -1.33106e-05 0)
(0.41278 -3.94997e-05 0)
(0.412833 -7.34279e-05 0)
(0.412891 -0.000115302 0)
(0.412956 -0.000165552 0)
(0.413028 -0.000225178 0)
(0.413108 -0.000296072 0)
(0.413199 -0.000381314 0)
(0.413301 -0.000485139 0)
(0.413418 -0.000612844 0)
(0.413552 -0.000770739 0)
(0.413709 -0.000966131 0)
(0.413893 -0.00120745 0)
(0.41411 -0.00150463 0)
(0.414368 -0.00186974 0)
(0.414676 -0.00231773 0)
(0.415046 -0.00286751 0)
(0.415493 -0.00354267 0)
(0.416032 -0.0043736 0)
(0.416704 -0.00539548 0)
(0.417503 -0.00666311 0)
(0.418634 -0.00819233 0)
(0.412462 2.392e-06 0)
(0.412471 6.93674e-06 0)
(0.412492 1.00332e-05 0)
(0.412521 1.06497e-05 0)
(0.412554 8.788e-06 0)
(0.41259 4.48836e-06 0)
(0.412628 -3.34504e-06 0)
(0.412668 -1.65785e-05 0)
(0.412711 -3.67785e-05 0)
(0.412758 -6.47946e-05 0)
(0.412808 -0.000100978 0)
(0.412862 -0.000145556 0)
(0.412921 -0.000198983 0)
(0.412987 -0.000262328 0)
(0.413059 -0.000337622 0)
(0.41314 -0.000428093 0)
(0.413231 -0.000538216 0)
(0.413333 -0.000673612 0)
(0.413451 -0.000840952 0)
(0.413586 -0.00104794 0)
(0.413744 -0.00130348 0)
(0.413929 -0.00161803 0)
(0.414147 -0.00200436 0)
(0.414407 -0.00247832 0)
(0.414716 -0.00306004 0)
(0.415088 -0.00377492 0)
(0.415535 -0.00465579 0)
(0.41609 -0.00574314 0)
(0.416748 -0.00709223 0)
(0.417691 -0.00875818 0)
(0.412462 -4.37956e-07 0)
(0.41247 -1.0814e-06 0)
(0.412489 -2.06373e-06 0)
(0.412515 -4.22924e-06 0)
(0.412546 -7.95457e-06 0)
(0.412579 -1.37224e-05 0)
(0.412615 -2.28781e-05 0)
(0.412653 -3.73749e-05 0)
(0.412694 -5.89198e-05 0)
(0.412738 -8.85132e-05 0)
(0.412784 -0.000126587 0)
(0.412834 -0.000173385 0)
(0.412888 -0.000229381 0)
(0.412947 -0.000295689 0)
(0.413011 -0.000374438 0)
(0.413082 -0.000469001 0)
(0.41316 -0.000584047 0)
(0.413248 -0.00072544 0)
(0.413348 -0.000900133 0)
(0.413461 -0.00111616 0)
(0.413591 -0.00138277 0)
(0.413743 -0.00171087 0)
(0.413919 -0.00211375 0)
(0.414127 -0.00260793 0)
(0.414373 -0.00321448 0)
(0.414665 -0.00396025 0)
(0.415014 -0.00487999 0)
(0.415444 -0.0060186 0)
(0.41595 -0.00743163 0)
(0.416682 -0.00920901 0)
(0.412462 -2.89481e-06 0)
(0.412469 -8.24821e-06 0)
(0.412486 -1.31256e-05 0)
(0.41251 -1.80498e-05 0)
(0.412539 -2.36633e-05 0)
(0.412571 -3.08906e-05 0)
(0.412605 -4.13175e-05 0)
(0.412641 -5.69809e-05 0)
(0.412679 -7.96876e-05 0)
(0.412719 -0.000110564 0)
(0.412762 -0.000150125 0)
(0.412807 -0.000198641 0)
(0.412856 -0.000256603 0)
(0.412908 -0.000325167 0)
(0.412964 -0.000406543 0)
(0.413024 -0.000504214 0)
(0.41309 -0.000622989 0)
(0.413163 -0.000768909 0)
(0.413243 -0.000949132 0)
(0.413333 -0.00117191 0)
(0.413436 -0.00144674 0)
(0.413552 -0.00178482 0)
(0.413686 -0.00219976 0)
(0.41384 -0.00270854 0)
(0.41402 -0.00333285 0)
(0.41423 -0.00410051 0)
(0.414476 -0.00504759 0)
(0.414775 -0.00622226 0)
(0.415119 -0.00767982 0)
(0.415623 -0.00953952 0)
(0.412462 -5.14002e-06 0)
(0.412468 -1.47812e-05 0)
(0.412484 -2.33025e-05 0)
(0.412506 -3.09528e-05 0)
(0.412533 -3.84748e-05 0)
(0.412563 -4.71211e-05 0)
(0.412595 -5.87243e-05 0)
(0.41263 -7.54166e-05 0)
(0.412665 -9.90713e-05 0)
(0.412703 -0.000130912 0)
(0.412742 -0.000171535 0)
(0.412782 -0.000221254 0)
(0.412825 -0.000280573 0)
(0.41287 -0.000350672 0)
(0.412917 -0.000433805 0)
(0.412967 -0.000533525 0)
(0.41302 -0.00065473 0)
(0.413077 -0.000803568 0)
(0.413138 -0.000987312 0)
(0.413205 -0.00121434 0)
(0.413278 -0.00149428 0)
(0.413359 -0.00183846 0)
(0.413449 -0.00226064 0)
(0.413549 -0.00277801 0)
(0.413661 -0.00341252 0)
(0.413787 -0.00419244 0)
(0.413928 -0.00515443 0)
(0.414091 -0.00634853 0)
(0.414268 -0.0078292 0)
(0.414531 -0.00973745 0)
(0.412461 -7.22131e-06 0)
(0.412468 -2.08575e-05 0)
(0.412482 -3.28113e-05 0)
(0.412503 -4.30806e-05 0)
(0.412529 -5.24711e-05 0)
(0.412558 -6.24831e-05 0)
(0.412588 -7.51524e-05 0)
(0.41262 -9.27016e-05 0)
(0.412653 -0.000117064 0)
(0.412688 -0.000149544 0)
(0.412723 -0.000190811 0)
(0.412759 -0.000241208 0)
(0.412796 -0.00030125 0)
(0.412834 -0.000372126 0)
(0.412872 -0.000456117 0)
(0.412911 -0.000556809 0)
(0.412951 -0.000679133 0)
(0.412992 -0.000829274 0)
(0.413034 -0.00101454 0)
(0.413077 -0.00124333 0)
(0.413121 -0.00152529 0)
(0.413166 -0.00187174 0)
(0.413212 -0.0022964 0)
(0.413257 -0.00281638 0)
(0.413301 -0.00345352 0)
(0.413342 -0.004236 0)
(0.413377 -0.00520025 0)
(0.413403 -0.0063967 0)
(0.413411 -0.00787806 0)
(0.413426 -0.00979828 0)
(0.412461 -9.18811e-06 0)
(0.412467 -2.66062e-05 0)
(0.412481 -4.18316e-05 0)
(0.412502 -5.46155e-05 0)
(0.412526 -6.57898e-05 0)
(0.412553 -7.7061e-05 0)
(0.412582 -9.06512e-05 0)
(0.412612 -0.000108868 0)
(0.412643 -0.000133689 0)
(0.412675 -0.000166475 0)
(0.412706 -0.00020795 0)
(0.412738 -0.000258486 0)
(0.412769 -0.000318603 0)
(0.412799 -0.000389496 0)
(0.412829 -0.000473445 0)
(0.412857 -0.000574027 0)
(0.412884 -0.000696155 0)
(0.412909 -0.000845979 0)
(0.412932 -0.00103076 0)
(0.412951 -0.00125882 0)
(0.412966 -0.00153971 0)
(0.412975 -0.00188458 0)
(0.412976 -0.00230692 0)
(0.412967 -0.0028235 0)
(0.412944 -0.0034557 0)
(0.4129 -0.00423102 0)
(0.41283 -0.00518486 0)
(0.412722 -0.00636641 0)
(0.412561 -0.00782566 0)
(0.41233 -0.00971966 0)
(0.412461 -1.10921e-05 0)
(0.412467 -3.21694e-05 0)
(0.412481 -5.05406e-05 0)
(0.412501 -6.5702e-05 0)
(0.412524 -7.85219e-05 0)
(0.41255 -9.0921e-05 0)
(0.412577 -0.000105292 0)
(0.412606 -0.000123994 0)
(0.412635 -0.000149016 0)
(0.412663 -0.000181755 0)
(0.412691 -0.000222986 0)
(0.412718 -0.00027311 0)
(0.412743 -0.000332651 0)
(0.412767 -0.000402795 0)
(0.412788 -0.000485797 0)
(0.412805 -0.000585192 0)
(0.412819 -0.000705817 0)
(0.412829 -0.000853722 0)
(0.412832 -0.00103603 0)
(0.412828 -0.00126091 0)
(0.412814 -0.00153768 0)
(0.412788 -0.00187718 0)
(0.412746 -0.0022925 0)
(0.412683 -0.00279984 0)
(0.412594 -0.00341972 0)
(0.412468 -0.00417844 0)
(0.412296 -0.00510961 0)
(0.412056 -0.00625959 0)
(0.411734 -0.00767462 0)
(0.411266 -0.00950479 0)
(0.412461 -1.29889e-05 0)
(0.412467 -3.76961e-05 0)
(0.412481 -5.91297e-05 0)
(0.4125 -7.65183e-05 0)
(0.412524 -9.08105e-05 0)
(0.412549 -0.000104179 0)
(0.412575 -0.000119167 0)
(0.412602 -0.000138144 0)
(0.412628 -0.000163084 0)
(0.412654 -0.000195414 0)
(0.412679 -0.000235951 0)
(0.412701 -0.000285118 0)
(0.412721 -0.000343438 0)
(0.412737 -0.00041208 0)
(0.412749 -0.000493252 0)
(0.412757 -0.000590403 0)
(0.412758 -0.000708244 0)
(0.412752 -0.000852657 0)
(0.412737 -0.00103056 0)
(0.41271 -0.00124985 0)
(0.412668 -0.00151951 0)
(0.412607 -0.00184997 0)
(0.412523 -0.00225372 0)
(0.412408 -0.00274616 0)
(0.412255 -0.00334667 0)
(0.412051 -0.00407984 0)
(0.411781 -0.00497677 0)
(0.411418 -0.00607964 0)
(0.410943 -0.00742995 0)
(0.410256 -0.00916137 0)
(0.412461 -1.49434e-05 0)
(0.412468 -4.33608e-05 0)
(0.412482 -6.78133e-05 0)
(0.412502 -8.72453e-05 0)
(0.412525 -0.000102784 0)
(0.412549 -0.000116932 0)
(0.412574 -0.000132365 0)
(0.412599 -0.000151398 0)
(0.412624 -0.000175968 0)
(0.412648 -0.000207524 0)
(0.412669 -0.000246918 0)
(0.412687 -0.000294587 0)
(0.412701 -0.000351049 0)
(0.41271 -0.000417444 0)
(0.412714 -0.000495916 0)
(0.412711 -0.000589792 0)
(0.412701 -0.00070361 0)
(0.41268 -0.000843019 0)
(0.412646 -0.00101465 0)
(0.412597 -0.00122605 0)
(0.412528 -0.00148578 0)
(0.412435 -0.00180372 0)
(0.41231 -0.00219162 0)
(0.412146 -0.00266389 0)
(0.411932 -0.00323847 0)
(0.411653 -0.00393788 0)
(0.411292 -0.00479014 0)
(0.410815 -0.00583215 0)
(0.410201 -0.00709987 0)
(0.40932 -0.00870266 0)
(0.412462 -1.70384e-05 0)
(0.412468 -4.93778e-05 0)
(0.412483 -7.68351e-05 0)
(0.412504 -9.80727e-05 0)
(0.412527 -0.000114581 0)
(0.412551 -0.000129305 0)
(0.412575 -0.000144992 0)
(0.412599 -0.000163841 0)
(0.412623 -0.000187733 0)
(0.412644 -0.000218152 0)
(0.412661 -0.000255972 0)
(0.412675 -0.000301628 0)
(0.412684 -0.000355625 0)
(0.412687 -0.000419061 0)
(0.412683 -0.000493989 0)
(0.412671 -0.00058358 0)
(0.412648 -0.000692147 0)
(0.412613 -0.00082505 0)
(0.412562 -0.000988564 0)
(0.412492 -0.00118981 0)
(0.412397 -0.00143682 0)
(0.412272 -0.00173884 0)
(0.412109 -0.00210678 0)
(0.411899 -0.00255386 0)
(0.411628 -0.00309639 0)
(0.41128 -0.00375455 0)
(0.410835 -0.00455289 0)
(0.410255 -0.00552233 0)
(0.409517 -0.0066929 0)
(0.408473 -0.00814406 0)
(0.412462 -1.93859e-05 0)
(0.412469 -5.60275e-05 0)
(0.412486 -8.64857e-05 0)
(0.412508 -0.000109199 0)
(0.412532 -0.000126341 0)
(0.412556 -0.000141422 0)
(0.412579 -0.000157166 0)
(0.412602 -0.00017557 0)
(0.412624 -0.000198465 0)
(0.412643 -0.000227369 0)
(0.412658 -0.000263175 0)
(0.412668 -0.00030631 0)
(0.412672 -0.000357268 0)
(0.412668 -0.000417106 0)
(0.412657 -0.000487767 0)
(0.412635 -0.00057223 0)
(0.412602 -0.000674533 0)
(0.412553 -0.000799686 0)
(0.412486 -0.000953547 0)
(0.412396 -0.00114273 0)
(0.412277 -0.00137468 0)
(0.412123 -0.00165788 0)
(0.411924 -0.00200231 0)
(0.41167 -0.0024199 0)
(0.411347 -0.00292517 0)
(0.410936 -0.00353579 0)
(0.410416 -0.00427265 0)
(0.409745 -0.00516044 0)
(0.4089 -0.00622328 0)
(0.407728 -0.00750815 0)
(0.412462 -2.21477e-05 0)
(0.412471 -6.36939e-05 0)
(0.41249 -9.71121e-05 0)
(0.412515 -0.000120817 0)
(0.41254 -0.000138183 0)
(0.412564 -0.0001534 0)
(0.412586 -0.000169005 0)
(0.412609 -0.000186718 0)
(0.412629 -0.000208329 0)
(0.412646 -0.000235376 0)
(0.412658 -0.000268721 0)
(0.412664 -0.000308767 0)
(0.412663 -0.000355986 0)
(0.412654 -0.000411393 0)
(0.412636 -0.000476807 0)
(0.412606 -0.000554991 0)
(0.412562 -0.000649684 0)
(0.4125 -0.000765499 0)
(0.412418 -0.000907818 0)
(0.41231 -0.0010827 0)
(0.412169 -0.00129693 0)
(0.411987 -0.0015582 0)
(0.411756 -0.00187544 0)
(0.411462 -0.00225925 0)
(0.411092 -0.0027223 0)
(0.410624 -0.00327966 0)
(0.410037 -0.00394869 0)
(0.409288 -0.004748 0)
(0.408355 -0.00569649 0)
(0.407088 -0.00680919 0)
(0.412463 -2.55715e-05 0)
(0.412474 -7.29121e-05 0)
(0.412497 -0.000109122 0)
(0.412525 -0.000133135 0)
(0.412551 -0.000150258 0)
(0.412575 -0.000165336 0)
(0.412597 -0.000180501 0)
(0.412619 -0.000197214 0)
(0.412638 -0.000217315 0)
(0.412653 -0.000242359 0)
(0.412662 -0.00027314 0)
(0.412665 -0.00031001 0)
(0.41266 -0.00035342 0)
(0.412646 -0.000404311 0)
(0.412621 -0.000464339 0)
(0.412583 -0.000536008 0)
(0.41253 -0.000622688 0)
(0.412457 -0.000728552 0)
(0.412361 -0.000858453 0)
(0.412236 -0.00101782 0)
(0.412074 -0.00121273 0)
(0.411868 -0.00145002 0)
(0.411607 -0.00173755 0)
(0.411278 -0.00208451 0)
(0.410865 -0.00250171 0)
(0.410348 -0.00300165 0)
(0.409703 -0.00359831 0)
(0.40889 -0.00430484 0)
(0.407885 -0.00513629 0)
(0.406555 -0.0060791 0)
(0.412463 -3.00691e-05 0)
(0.412478 -8.44245e-05 0)
(0.412507 -0.000122891 0)
(0.412539 -0.000146347 0)
(0.412566 -0.000162942 0)
(0.41259 -0.000177701 0)
(0.412613 -0.000191944 0)
(0.412634 -0.000206932 0)
(0.412652 -0.000224629 0)
(0.412665 -0.000246619 0)
(0.412672 -0.000273631 0)
(0.412672 -0.000305991 0)
(0.412664 -0.000344151 0)
(0.412645 -0.00038899 0)
(0.412614 -0.000442016 0)
(0.412569 -0.000505481 0)
(0.412507 -0.000582377 0)
(0.412424 -0.000676402 0)
(0.412315 -0.000791835 0)
(0.412175 -0.000933415 0)
(0.411995 -0.00110644 0)
(0.411767 -0.00131692 0)
(0.41148 -0.00157159 0)
(0.411119 -0.00187821 0)
(0.41067 -0.00224579 0)
(0.41011 -0.00268441 0)
(0.409415 -0.00320511 0)
(0.408549 -0.00381632 0)
(0.407487 -0.00453133 0)
(0.40612 -0.00531448 0)
(0.412465 -3.63925e-05 0)
(0.412485 -9.93794e-05 0)
(0.412522 -0.000138558 0)
(0.412558 -0.000159954 0)
(0.412587 -0.000175961 0)
(0.412611 -0.000191088 0)
(0.412634 -0.000205351 0)
(0.412655 -0.00021979 0)
(0.412673 -0.00023643 0)
(0.412685 -0.000256726 0)
(0.41269 -0.000281257 0)
(0.412687 -0.00031032 0)
(0.412676 -0.000344355 0)
(0.412652 -0.000384151 0)
(0.412616 -0.000431019 0)
(0.412565 -0.000486893 0)
(0.412495 -0.00055435 0)
(0.412403 -0.00063658 0)
(0.412284 -0.000737271 0)
(0.412131 -0.000860473 0)
(0.411935 -0.00101072 0)
(0.411688 -0.00119313 0)
(0.411378 -0.00141335 0)
(0.410991 -0.00167774 0)
(0.41051 -0.00199348 0)
(0.409914 -0.00236813 0)
(0.409178 -0.00281025 0)
(0.40827 -0.00332431 0)
(0.407163 -0.00392494 0)
(0.405775 -0.00456258 0)
(0.412467 -4.5883e-05 0)
(0.412497 -0.000119882 0)
(0.412545 -0.000157442 0)
(0.412586 -0.000173833 0)
(0.412616 -0.000186056 0)
(0.41264 -0.00019784 0)
(0.412663 -0.000208547 0)
(0.412684 -0.000219284 0)
(0.412701 -0.000231967 0)
(0.412711 -0.00024784 0)
(0.412715 -0.000267314 0)
(0.41271 -0.000290653 0)
(0.412696 -0.000318265 0)
(0.412669 -0.000350866 0)
(0.412629 -0.000389597 0)
(0.412572 -0.000436072 0)
(0.412496 -0.000492404 0)
(0.412396 -0.000561223 0)
(0.412268 -0.000645514 0)
(0.412103 -0.000748481 0)
(0.411894 -0.000873958 0)
(0.411631 -0.00102618 0)
(0.411302 -0.00120954 0)
(0.410892 -0.00142919 0)
(0.410386 -0.00169096 0)
(0.409761 -0.00200008 0)
(0.408993 -0.00236275 0)
(0.40805 -0.00277872 0)
(0.406909 -0.00327001 0)
(0.405499 -0.00377543 0)
(0.412471 -6.03524e-05 0)
(0.412517 -0.000146695 0)
(0.412581 -0.000183727 0)
(0.412629 -0.000201645 0)
(0.412659 -0.000217127 0)
(0.412683 -0.000230444 0)
(0.412707 -0.000241143 0)
(0.412728 -0.000251323 0)
(0.412744 -0.000262926 0)
(0.412754 -0.000276741 0)
(0.412756 -0.000293106 0)
(0.41275 -0.000312332 0)
(0.412732 -0.000334843 0)
(0.412703 -0.000361258 0)
(0.412659 -0.000392508 0)
(0.412598 -0.000429881 0)
(0.412516 -0.000475006 0)
(0.41241 -0.000530029 0)
(0.412274 -0.000597486 0)
(0.412101 -0.000679639 0)
(0.411881 -0.000779411 0)
(0.411605 -0.000900441 0)
(0.411261 -0.00104603 0)
(0.410834 -0.00121957 0)
(0.410307 -0.00142513 0)
(0.409659 -0.00166601 0)
(0.408868 -0.00194669 0)
(0.407898 -0.00226063 0)
(0.406733 -0.00263999 0)
(0.405281 -0.00302784 0)
(0.412479 -8.79302e-05 0)
(0.412549 -0.00016296 0)
(0.41263 -0.000176373 0)
(0.412681 -0.000184488 0)
(0.412712 -0.000195448 0)
(0.412738 -0.000205066 0)
(0.412763 -0.000212698 0)
(0.412785 -0.000220098 0)
(0.412801 -0.000228253 0)
(0.41281 -0.000238371 0)
(0.412812 -0.000250278 0)
(0.412804 -0.000264322 0)
(0.412785 -0.000280867 0)
(0.412753 -0.00030045 0)
(0.412706 -0.000323822 0)
(0.412642 -0.000351954 0)
(0.412557 -0.000386049 0)
(0.412446 -0.000427399 0)
(0.412304 -0.000477508 0)
(0.412124 -0.00053852 0)
(0.411896 -0.000612494 0)
(0.411609 -0.000701377 0)
(0.411254 -0.000807901 0)
(0.410813 -0.000935155 0)
(0.410272 -0.0010859 0)
(0.409608 -0.00126114 0)
(0.408804 -0.00146249 0)
(0.407811 -0.00167396 0)
(0.406633 -0.00193172 0)
(0.405044 -0.00210098 0)
(0.41249 -0.000156576 0)
(0.412638 -0.00029055 0)
(0.412753 -0.000274869 0)
(0.412786 -0.000270955 0)
(0.412809 -0.000276611 0)
(0.412834 -0.00028181 0)
(0.412856 -0.000285383 0)
(0.412872 -0.000289064 0)
(0.41288 -0.0002936 0)
(0.412881 -0.000299016 0)
(0.412874 -0.000305448 0)
(0.412857 -0.00031315 0)
(0.412828 -0.000322458 0)
(0.412786 -0.000333844 0)
(0.412727 -0.000347873 0)
(0.412649 -0.000364938 0)
(0.412547 -0.000385518 0)
(0.412416 -0.000411091 0)
(0.41225 -0.000443232 0)
(0.412042 -0.000480248 0)
(0.411782 -0.000525247 0)
(0.41146 -0.000581205 0)
(0.411064 -0.000647747 0)
(0.410578 -0.00072604 0)
(0.409988 -0.000817801 0)
(0.409273 -0.000924091 0)
(0.408414 -0.0010458 0)
(0.407373 -0.00115939 0)
(0.406126 -0.00131001 0)
(0.403797 -0.000938661 0)
(0.412111 -0.000108096 0)
(0.411833 -0.000183253 0)
(0.411408 -0.000195406 0)
(0.410919 -0.000200083 0)
(0.410429 -0.000205915 0)
(0.409942 -0.000210229 0)
(0.409452 -0.00021336 0)
(0.408955 -0.000216264 0)
(0.408451 -0.000219243 0)
(0.40794 -0.000222425 0)
(0.40742 -0.000225911 0)
(0.40689 -0.00022982 0)
(0.406348 -0.000234224 0)
(0.405792 -0.000239195 0)
(0.405218 -0.000244845 0)
(0.404624 -0.000251403 0)
(0.404004 -0.000259197 0)
(0.403354 -0.000268334 0)
(0.402666 -0.000278952 0)
(0.401933 -0.000292167 0)
(0.401145 -0.000308331 0)
(0.40029 -0.000327412 0)
(0.399355 -0.000350244 0)
(0.398324 -0.000378118 0)
(0.39718 -0.00041173 0)
(0.395904 -0.000449258 0)
(0.394477 -0.00049522 0)
(0.392898 -0.000515243 0)
(0.391221 -0.000623028 0)
(0.387958 -2.81802e-05 0)
(0.414675 -0.0018685 -1.45771e-18)
(0.419951 -0.00250623 -1.12253e-20)
(0.423731 -0.00295137 1.50107e-18)
(0.425673 -0.00354334 3.01079e-18)
(0.426755 -0.00432373 1.53419e-18)
(0.427511 -0.00526624 -1.52211e-18)
(0.428122 -0.00634852 1.54852e-18)
(0.428664 -0.0075672 0)
(0.429185 -0.00892143 1.56627e-18)
(0.429711 -0.0104094 -8.21511e-21)
(0.430244 -0.0120357 1.0997e-19)
(0.430777 -0.0138147 0)
(0.43131 -0.015769 -1.84106e-18)
(0.431844 -0.0179287 0)
(0.432387 -0.0203314 0)
(0.432947 -0.0230256 -2.01166e-18)
(0.433531 -0.0260747 -1.92316e-18)
(0.434149 -0.0295628 -8.28166e-22)
(0.434812 -0.0336029 1.89851e-18)
(0.435535 -0.0383493 2.80636e-19)
(0.436335 -0.0440147 -2.58429e-18)
(0.437232 -0.0509155 2.96486e-19)
(0.438258 -0.0594428 -1.53055e-19)
(0.43943 -0.0705087 2.29947e-18)
(0.440867 -0.0842957 3.12821e-19)
(0.442378 -0.105483 -1.58724e-19)
(0.444878 -0.128117 0)
(0.446513 -0.182475 -1.95604e-18)
(0.453254 -0.217925 -1.98235e-18)
(0.455032 -0.407106 0)
(0.423958 -0.00250122 1.46199e-18)
(0.425621 -0.0028182 -3.44732e-20)
(0.426556 -0.00344033 2.89955e-20)
(0.426646 -0.00428642 -1.52417e-18)
(0.426767 -0.00527476 -4.86902e-20)
(0.427062 -0.00636911 1.64202e-18)
(0.427475 -0.00756639 1.53186e-18)
(0.427936 -0.00887169 2.08453e-19)
(0.428417 -0.0102885 -1.06908e-19)
(0.428901 -0.0118239 1.7445e-18)
(0.429378 -0.0134934 1.91103e-18)
(0.429841 -0.0153191 1.73153e-18)
(0.430294 -0.0173272 2.01519e-18)
(0.43074 -0.0195489 1.82912e-18)
(0.431185 -0.022023 2.00748e-18)
(0.431631 -0.0248001 4.24425e-18)
(0.432083 -0.0279464 1.99815e-18)
(0.432542 -0.031549 -2.33409e-18)
(0.433012 -0.0357249 2.40947e-18)
(0.433494 -0.0406325 -1.4481e-19)
(0.433988 -0.0464912 1.50425e-19)
(0.434491 -0.0536164 2.49537e-18)
(0.434985 -0.062436 0)
(0.435463 -0.0737587 -1.61701e-19)
(0.435851 -0.0881101 2.87518e-18)
(0.435994 -0.109213 0)
(0.436119 -0.13337 2.75996e-18)
(0.434328 -0.18581 -2.36778e-18)
(0.434475 -0.224293 -3.91168e-20)
(0.426291 -0.405609 2.1221e-19)
(0.423637 -0.00277697 -1.14102e-20)
(0.424317 -0.00332609 -1.15505e-20)
(0.424862 -0.00428786 -1.49348e-18)
(0.425263 -0.00537058 -4.84384e-20)
(0.425692 -0.00646678 4.96671e-20)
(0.426212 -0.00759399 -5.06149e-20)
(0.426736 -0.0087918 -1.60452e-18)
(0.427212 -0.0100851 0)
(0.427645 -0.0114898 0)
(0.42805 -0.0130213 0)
(0.428437 -0.0146976 -1.82742e-18)
(0.428807 -0.0165391 -1.03938e-19)
(0.429164 -0.0185697 -1.68707e-18)
(0.429508 -0.0208202 -1.98503e-18)
(0.429838 -0.0233305 -2.17199e-18)
(0.430154 -0.0261527 -2.10595e-18)
(0.430452 -0.0293547 1.6005e-19)
(0.430729 -0.0330253 2.10081e-18)
(0.430978 -0.0372831 -2.17037e-18)
(0.431189 -0.0422886 -1.50952e-19)
(0.431342 -0.0482639 0)
(0.43141 -0.0555221 -5.32104e-18)
(0.431338 -0.0645142 1.67214e-19)
(0.431048 -0.0759582 -2.78862e-18)
(0.430392 -0.0906886 8.99224e-20)
(0.429009 -0.111433 0)
(0.426917 -0.137056 -5.93334e-18)
(0.421476 -0.186575 5.42188e-18)
(0.41542 -0.229482 -2.88924e-18)
(0.396397 -0.400352 -2.60221e-19)
(0.423573 -0.00404098 0)
(0.424108 -0.00479095 -1.53868e-18)
(0.424588 -0.00573277 7.23485e-23)
(0.424983 -0.0067083 2.47041e-20)
(0.425355 -0.00770185 0)
(0.425733 -0.0087707 0)
(0.426096 -0.00995229 -1.69638e-18)
(0.426433 -0.0112545 0)
(0.426755 -0.0126797 1.10974e-19)
(0.427069 -0.0142364 -2.28165e-19)
(0.42737 -0.0159396 3.25921e-22)
(0.427655 -0.0178091 -1.80063e-18)
(0.427917 -0.0198703 1.23915e-19)
(0.428153 -0.0221561 1.92769e-18)
(0.428361 -0.0247085 1.31701e-19)
(0.428533 -0.027581 2.0549e-18)
(0.428664 -0.0308425 -2.2391e-18)
(0.428743 -0.0345834 -2.34623e-18)
(0.428752 -0.0389235 0)
(0.428668 -0.0440247 2.36749e-18)
(0.428453 -0.0501102 1.6255e-19)
(0.428052 -0.0574931 2.83773e-18)
(0.427367 -0.0666269 -1.75359e-19)
(0.42627 -0.0781951 2.86668e-18)
(0.424479 -0.0931463 -2.96152e-18)
(0.421573 -0.11367 0)
(0.417014 -0.14014 3.19654e-18)
(0.408151 -0.187074 -3.01051e-18)
(0.395467 -0.233035 2.95451e-18)
(0.366537 -0.392146 6.60824e-20)
(0.423197 -0.00514475 0)
(0.423579 -0.00586401 1.53361e-18)
(0.423903 -0.00673365 0)
(0.424218 -0.00768594 0)
(0.424533 -0.00871182 0)
(0.424851 -0.00983222 0)
(0.425158 -0.0110582 1.72047e-18)
(0.425447 -0.0123904 5.52395e-20)
(0.425715 -0.0138346 -5.68469e-20)
(0.425961 -0.0154054 0)
(0.426181 -0.0171226 0)
(0.426369 -0.0190093 1.23444e-19)
(0.426523 -0.0210925 -2.55733e-22)
(0.426637 -0.0234059 -2.22387e-18)
(0.426707 -0.0259917 0)
(0.426722 -0.028904 -2.23338e-18)
(0.426668 -0.0322123 0)
(0.426527 -0.0360073 2.54589e-18)
(0.426272 -0.0404095 -3.1299e-19)
(0.425866 -0.0455808 -2.41873e-18)
(0.42525 -0.0517434 1.36885e-18)
(0.424342 -0.0592077 0)
(0.423003 -0.0684231 0)
(0.421044 -0.0800471 0)
(0.418068 -0.0950707 1.63605e-18)
(0.413573 -0.115323 -1.7102e-18)
(0.406473 -0.142171 0)
(0.394266 -0.186509 -1.80075e-18)
(0.374853 -0.234658 -1.88543e-18)
(0.336316 -0.381045 1.21873e-18)
(0.422661 -0.0061473 7.53367e-19)
(0.422952 -0.00689895 7.94751e-19)
(0.42319 -0.00778652 8.25923e-19)
(0.423455 -0.00875969 7.68955e-19)
(0.423727 -0.0098055 9.1853e-19)
(0.423982 -0.010934 8.07517e-19)
(0.424212 -0.012158 8.83707e-19)
(0.424417 -0.013487 -9.07573e-19)
(0.424595 -0.0149328 5.8019e-20)
(0.424746 -0.0165114 8.40469e-19)
(0.424863 -0.0182416 9.88848e-19)
(0.424944 -0.020145 9.56283e-19)
(0.42498 -0.0222482 1.30951e-19)
(0.424965 -0.0245846 -1.08796e-18)
(0.424886 -0.0271969 1.39828e-19)
(0.424729 -0.0301395 -2.89855e-19)
(0.424475 -0.0334821 -1.06124e-18)
(0.424097 -0.0373157 -1.25985e-18)
(0.423557 -0.0417601 0)
(0.422804 -0.0469758 -1.69638e-19)
(0.421759 -0.0531822 2.91834e-20)
(0.420311 -0.0606843 1.85218e-19)
(0.41828 -0.0699212 1.38204e-18)
(0.415417 -0.0815271 3.06264e-19)
(0.411213 -0.0964849 -4.47021e-20)
(0.40508 -0.116388 1.88459e-18)
(0.395405 -0.143159 -1.18699e-19)
(0.37994 -0.184909 1.88432e-18)
(0.353786 -0.234188 2.09639e-18)
(0.306565 -0.36704 -1.41682e-18)
(0.421998 -0.00711946 -7.7445e-19)
(0.422214 -0.0078835 -7.79781e-19)
(0.422372 -0.00876995 -8.23864e-19)
(0.42257 -0.00974054 3.10887e-20)
(0.422778 -0.0107878 -1.68163e-18)
(0.422958 -0.0119207 -8.73264e-19)
(0.423108 -0.0131513 -1.91189e-18)
(0.42323 -0.0144895 1.08177e-19)
(0.423324 -0.0159463 -5.948e-20)
(0.423384 -0.017536 -1.95915e-18)
(0.423403 -0.0192767 9.82336e-21)
(0.423373 -0.0211906 -9.71742e-19)
(0.423286 -0.0233051 1.01574e-18)
(0.42313 -0.0256544 -1.33002e-20)
(0.422891 -0.0282814 1.44342e-19)
(0.422549 -0.0312404 -1.49777e-19)
(0.422079 -0.0346007 1.23679e-18)
(0.421445 -0.0384522 1.28726e-18)
(0.420601 -0.0429129 1.69438e-19)
(0.419477 -0.0481405 1.07634e-18)