/*--------------------------------*- C++ -*----------------------------------*\
  =========                 |
  \\      /  F ield         | OpenFOAM: The Open Source CFD Toolbox
   \\    /   O peration     | Website:  https://openfoam.org
    \\  /    A nd           | Version:  11
     \\/     M anipulation  |
\*---------------------------------------------------------------------------*/
FoamFile
{
    format      ascii;
    class       volScalarField;
    location    "5.1";
    object      p;
}
// * * * * * * * * * * * * * * * * * * * * * * * * * * * * * * * * * * * * * //

dimensions      [0 2 -2 0 0 0 0];

internalField   nonuniform List<scalar> 
12600
(
0.971373
0.971237
0.971164
0.971129
0.971089
0.971034
0.970967
0.970888
0.970794
0.970682
0.970547
0.970384
0.970187
0.969948
0.969657
0.969301
0.968867
0.968334
0.967679
0.966878
0.965898
0.964693
0.963204
0.961359
0.959069
0.956215
0.952647
0.948169
0.942565
0.935451
0.971302
0.97123
0.971167
0.97113
0.971089
0.971035
0.970969
0.970891
0.970799
0.970689
0.970556
0.970394
0.970199
0.969963
0.969675
0.969326
0.968898
0.968373
0.967725
0.966932
0.965966
0.964776
0.963306
0.961484
0.95922
0.956397
0.952865
0.948433
0.942841
0.935786
0.971271
0.971234
0.97118
0.971136
0.971095
0.971043
0.970978
0.970902
0.970811
0.970703
0.970572
0.970414
0.970223
0.969992
0.969711
0.969368
0.968949
0.968435
0.967804
0.967032
0.966087
0.964924
0.963486
0.961704
0.959487
0.956722
0.953255
0.948906
0.94337
0.936444
0.971252
0.971228
0.971183
0.971139
0.971098
0.971049
0.970987
0.970913
0.970825
0.97072
0.970594
0.970441
0.970256
0.970033
0.969761
0.969429
0.969024
0.968528
0.96792
0.967175
0.966262
0.965138
0.963748
0.962024
0.959878
0.957199
0.953833
0.949605
0.94419
0.937424
0.971241
0.971224
0.971188
0.971148
0.971107
0.97106
0.971002
0.97093
0.970846
0.970745
0.970624
0.970478
0.970301
0.970087
0.969827
0.96951
0.969123
0.96865
0.968071
0.96736
0.966488
0.965415
0.964087
0.96244
0.960387
0.957821
0.95459
0.950522
0.945282
0.938736
0.971236
0.971223
0.971194
0.971157
0.971118
0.971072
0.971017
0.97095
0.97087
0.970774
0.97066
0.970521
0.970354
0.970152
0.969907
0.969608
0.969244
0.968798
0.968253
0.967584
0.966763
0.965751
0.9645
0.962946
0.961008
0.958582
0.955518
0.951652
0.946642
0.940371
0.971235
0.971225
0.971201
0.971168
0.971131
0.971088
0.971036
0.970974
0.970899
0.970809
0.970702
0.970573
0.970417
0.970229
0.970001
0.969723
0.969385
0.968972
0.968466
0.967846
0.967084
0.966145
0.964983
0.963539
0.961736
0.959475
0.956611
0.952987
0.948258
0.942323
0.971238
0.97123
0.971209
0.97118
0.971146
0.971106
0.971058
0.971
0.970931
0.970848
0.97075
0.970631
0.970488
0.970316
0.970107
0.969854
0.969545
0.969168
0.968706
0.968141
0.967447
0.96659
0.96553
0.964211
0.962562
0.96049
0.957858
0.954514
0.950119
0.944581
0.971244
0.971237
0.97122
0.971194
0.971162
0.971126
0.971082
0.971029
0.970967
0.970892
0.970803
0.970696
0.970567
0.970413
0.970225
0.969998
0.969722
0.969385
0.968973
0.968468
0.967848
0.967083
0.966135
0.964956
0.963478
0.961616
0.959244
0.956219
0.952209
0.947133
0.971253
0.971247
0.971232
0.971209
0.971181
0.971148
0.971108
0.971061
0.971005
0.970939
0.97086
0.970766
0.970653
0.970517
0.970353
0.970155
0.969914
0.96962
0.969262
0.968823
0.968283
0.967617
0.966791
0.965763
0.964472
0.962841
0.960755
0.958083
0.954509
0.949958
0.971263
0.971258
0.971245
0.971225
0.971201
0.971171
0.971137
0.971096
0.971047
0.97099
0.970922
0.970841
0.970745
0.970629
0.97049
0.970322
0.970119
0.969872
0.96957
0.969201
0.968747
0.968186
0.967491
0.966624
0.965532
0.96415
0.962373
0.960085
0.956994
0.953029
0.971276
0.971272
0.97126
0.971243
0.971222
0.971197
0.971167
0.971132
0.971091
0.971043
0.970987
0.97092
0.970841
0.970747
0.970634
0.970499
0.970335
0.970136
0.969894
0.969598
0.969234
0.968785
0.968226
0.967528
0.966647
0.965527
0.964078
0.962199
0.959631
0.956306
0.97129
0.971286
0.971277
0.971263
0.971244
0.971223
0.971199
0.97117
0.971137
0.971099
0.971054
0.971002
0.970942
0.97087
0.970784
0.970682
0.970559
0.970411
0.97023
0.97001
0.96974
0.969405
0.968988
0.968465
0.967802
0.966954
0.965846
0.964396
0.962384
0.959746
0.971305
0.971302
0.971294
0.971283
0.971268
0.971251
0.971231
0.971209
0.971184
0.971156
0.971124
0.971087
0.971045
0.970996
0.970938
0.97087
0.970789
0.970692
0.970575
0.970433
0.970257
0.97004
0.969768
0.969424
0.968984
0.968413
0.967656
0.966647
0.965212
0.963292
0.971322
0.971319
0.971313
0.971303
0.971292
0.971279
0.971264
0.971249
0.971232
0.971214
0.971194
0.971173
0.971149
0.971123
0.971094
0.971061
0.971023
0.970978
0.970925
0.970861
0.970782
0.970683
0.970557
0.970394
0.970177
0.969885
0.96948
0.968916
0.968067
0.966882
0.971339
0.971337
0.971332
0.971325
0.971316
0.971307
0.971298
0.971289
0.97128
0.971272
0.971265
0.971259
0.971255
0.971252
0.971251
0.971253
0.971257
0.971265
0.971276
0.97129
0.971307
0.971327
0.971346
0.971362
0.971367
0.971352
0.971295
0.971171
0.970903
0.970449
0.971357
0.971356
0.971352
0.971347
0.971341
0.971336
0.971332
0.971329
0.971328
0.97133
0.971336
0.971345
0.971359
0.97138
0.971407
0.971443
0.97149
0.971549
0.971624
0.971715
0.971828
0.971963
0.972126
0.972317
0.97254
0.972794
0.973076
0.973378
0.973671
0.973924
0.971376
0.971375
0.971372
0.971368
0.971365
0.971364
0.971365
0.971369
0.971376
0.971388
0.971405
0.97143
0.971462
0.971505
0.97156
0.97163
0.971719
0.971829
0.971965
0.972133
0.972337
0.972586
0.972887
0.973249
0.973681
0.974193
0.974798
0.975503
0.976324
0.977241
0.971395
0.971394
0.971392
0.97139
0.97139
0.971392
0.971397
0.971407
0.971422
0.971444
0.971473
0.971512
0.971562
0.971627
0.971709
0.971812
0.971941
0.9721
0.972296
0.972537
0.972831
0.973189
0.973623
0.974147
0.974778
0.975534
0.976441
0.97752
0.978821
0.98034
0.971414
0.971413
0.971412
0.971411
0.971413
0.971419
0.971429
0.971444
0.971467
0.971497
0.971538
0.971591
0.971659
0.971745
0.971852
0.971987
0.972154
0.97236
0.972614
0.972924
0.973304
0.973765
0.974325
0.975003
0.97582
0.976802
0.977985
0.979402
0.981128
0.98317
0.971434
0.971433
0.971432
0.971432
0.971436
0.971444
0.971459
0.97148
0.971509
0.971548
0.9716
0.971666
0.97175
0.971856
0.971988
0.972152
0.972356
0.972606
0.972914
0.973291
0.97375
0.974309
0.974987
0.975806
0.976795
0.977984
0.979415
0.98113
0.983219
0.985696
0.971453
0.971453
0.971451
0.971452
0.971457
0.971469
0.971487
0.971513
0.971549
0.971596
0.971657
0.971736
0.971835
0.97196
0.972115
0.972307
0.972545
0.972837
0.973195
0.973632
0.974166
0.974815
0.975601
0.976551
0.977695
0.979069
0.980719
0.98269
0.985079
0.987899
0.971473
0.971472
0.97147
0.97147
0.971477
0.971491
0.971513
0.971544
0.971585
0.97164
0.971711
0.971801
0.971914
0.972056
0.972232
0.972449
0.972718
0.973048
0.973452
0.973946
0.974547
0.975278
0.976163
0.97723
0.978513
0.98005
0.981888
0.984074
0.986699
0.989773
0.971494
0.971492
0.971488
0.971487
0.971495
0.971512
0.971537
0.971572
0.971618
0.97168
0.971759
0.971859
0.971985
0.972142
0.972337
0.972578
0.972875
0.973239
0.973684
0.974228
0.974891
0.975694
0.976667
0.977838
0.979243
0.98092
0.982918
0.985278
0.988084
0.991331
0.971516
0.971511
0.971504
0.971502
0.971511
0.97153
0.971558
0.971596
0.971647
0.971715
0.971801
0.971911
0.972048
0.972218
0.97243
0.972691
0.973012
0.973406
0.973888
0.974476
0.975192
0.97606
0.977108
0.978369
0.979879
0.981675
0.983804
0.986304
0.989242
0.992596
0.971539
0.971531
0.971518
0.971515
0.971525
0.971547
0.971576
0.971617
0.971673
0.971745
0.971838
0.971955
0.972102
0.972284
0.97251
0.972788
0.97313
0.97355
0.974063
0.974688
0.975449
0.976371
0.977485
0.978822
0.980419
0.982313
0.984547
0.987155
0.990189
0.993601
0.971565
0.971551
0.971529
0.971524
0.971536
0.971559
0.97159
0.971634
0.971692
0.971769
0.971867
0.971991
0.972145
0.972337
0.972574
0.972867
0.973226
0.973667
0.974205
0.974861
0.975659
0.976626
0.977792
0.979192
0.980859
0.98283
0.985147
0.987837
0.990942
0.994388
0.971596
0.97157
0.971539
0.971534
0.971548
0.971571
0.971603
0.971648
0.97171
0.971789
0.971891
0.97202
0.97218
0.972379
0.972625
0.972929
0.973301
0.973758
0.974315
0.974995
0.975821
0.976822
0.978031
0.97948
0.981201
0.983229
0.985608
0.988357
0.99152
0.994997
0.971635
0.971574
0.971538
0.971538
0.971553
0.971576
0.971609
0.971656
0.971719
0.971802
0.971907
0.972038
0.972203
0.972407
0.97266
0.972971
0.973352
0.97382
0.974391
0.975086
0.975932
0.976956
0.978196
0.979683
0.981444
0.983514
0.985936
0.988723
0.991918
0.995422
0.971712
0.971584
0.971537
0.971541
0.971558
0.971581
0.971614
0.971662
0.971726
0.97181
0.971916
0.97205
0.972216
0.972424
0.97268
0.972995
0.973382
0.973856
0.974436
0.975142
0.976
0.977039
0.978294
0.979797
0.981578
0.983673
0.986119
0.988933
0.992115
0.995538
0.928829
0.926236
0.924094
0.922268
0.920331
0.918174
0.915864
0.913453
0.910942
0.908317
0.905562
0.902659
0.899582
0.896291
0.892742
0.888875
0.884618
0.879882
0.874553
0.868488
0.8615
0.853346
0.843707
0.832134
0.818103
0.800546
0.779261
0.748188
0.723132
0.644787
0.93015
0.927946
0.925984
0.92418
0.922266
0.920191
0.918028
0.915811
0.913522
0.911135
0.908631
0.90599
0.903184
0.900178
0.896931
0.893391
0.889493
0.885158
0.880287
0.874751
0.868385
0.860977
0.852245
0.841804
0.829187
0.813498
0.794481
0.767703
0.743354
0.677612
0.930564
0.928739
0.927083
0.925414
0.923647
0.921793
0.919883
0.917916
0.915871
0.913727
0.911473
0.909091
0.906559
0.903845
0.900914
0.897719
0.894205
0.890301
0.88592
0.88095
0.875248
0.86863
0.860852
0.851589
0.840428
0.826651
0.809936
0.786977
0.764562
0.709886
0.931586
0.930138
0.928797
0.927296
0.925678
0.924015
0.922314
0.920557
0.918727
0.916814
0.914806
0.912686
0.910433
0.90802
0.905414
0.902576
0.899458
0.895998
0.892122
0.887733
0.882709
0.876894
0.870081
0.861997
0.852284
0.840377
0.825901
0.806422
0.78646
0.741477
0.933
0.931821
0.930717
0.929372
0.927911
0.926442
0.924959
0.923426
0.921828
0.920157
0.918405
0.916557
0.914593
0.91249
0.910222
0.907756
0.905049
0.902052
0.898699
0.894912
0.890587
0.885593
0.879758
0.872855
0.864583
0.8545
0.842209
0.825976
0.808694
0.772306
0.934782
0.933849
0.932977
0.931813
0.930531
0.929263
0.927996
0.926685
0.925315
0.923885
0.922389
0.920815
0.919144
0.91736
0.915438
0.913353
0.911069
0.908546
0.905729
0.902553
0.898934
0.894765
0.889903
0.884167
0.877303
0.868971
0.858783
0.845552
0.830973
0.802144
0.93693
0.936228
0.935579
0.934597
0.933492
0.932422
0.931368
0.930279
0.92914
0.927956
0.926722
0.925427
0.924058
0.922598
0.921032
0.919336
0.917483
0.915441
0.913166
0.910606
0.907694
0.904344
0.900441
0.895841
0.890336
0.883669
0.87548
0.864993
0.853038
0.830767
0.939445
0.938964
0.938528
0.937728
0.936805
0.935936
0.935096
0.93423
0.933326
0.932389
0.93142
0.930407
0.929342
0.928211
0.927003
0.9257
0.924281
0.922721
0.920988
0.91904
0.916824
0.914275
0.911302
0.907792
0.90358
0.898473
0.892152
0.884134
0.874654
0.857979
0.942321
0.942049
0.941818
0.941199
0.940461
0.939791
0.939164
0.938522
0.937851
0.937163
0.936459
0.93573
0.934969
0.934168
0.933318
0.932407
0.93142
0.930338
0.929138
0.927787
0.926249
0.924471
0.922386
0.919907
0.916903
0.913235
0.908626
0.902793
0.895593
0.8836
0.945545
0.945469
0.94543
0.944992
0.944439
0.943967
0.943552
0.943131
0.942694
0.942253
0.941811
0.941364
0.940906
0.940431
0.939935
0.939409
0.938845
0.938228
0.937543
0.936769
0.935876
0.934829
0.933577
0.932055
0.930161
0.927795
0.92472
0.920784
0.915633
0.90746
0.949089
0.949197
0.949335
0.949076
0.948707
0.948432
0.948223
0.94802
0.947812
0.947613
0.94743
0.947259
0.947095
0.946939
0.946786
0.946633
0.946475
0.946304
0.94611
0.945879
0.945593
0.945225
0.94474
0.944089
0.943194
0.941986
0.940253
0.937935
0.934575
0.929402
0.952915
0.953189
0.953491
0.953404
0.953219
0.953134
0.953126
0.953133
0.953147
0.953183
0.953249
0.953344
0.953464
0.953612
0.953786
0.953988
0.954214
0.954461
0.954726
0.954999
0.955269
0.95552
0.955725
0.955853
0.955839
0.955638
0.955057
0.954111
0.952272
0.949348
0.956969
0.957392
0.957838
0.957918
0.95791
0.958009
0.958192
0.958399
0.958625
0.958885
0.959187
0.959532
0.95992
0.960353
0.960834
0.961365
0.961946
0.962578
0.96326
0.963989
0.964759
0.96556
0.966375
0.967179
0.967925
0.96858
0.968972
0.969174
0.968593
0.967365
0.96118
0.961734
0.962306
0.962542
0.962705
0.962977
0.963337
0.963733
0.964156
0.964623
0.965145
0.965723
0.966357
0.967052
0.967812
0.968641
0.969542
0.970518
0.971572
0.972704
0.973911
0.975188
0.976525
0.977902
0.979283
0.980643
0.981831
0.982947
0.983338
0.983501
0.965468
0.966131
0.96681
0.96719
0.967513
0.967945
0.968468
0.969034
0.969637
0.970294
0.971014
0.9718
0.972655
0.973584
0.974591
0.975684
0.976865
0.978141
0.979516
0.980992
0.982569
0.984246
0.986015
0.987863
0.989757
0.991674
0.993485
0.995284
0.996396
0.997632
0.969741
0.970494
0.971258
0.971767
0.972237
0.972813
0.97348
0.974197
0.97496
0.975783
0.976678
0.977646
0.978693
0.979823
0.981043
0.982359
0.983779
0.985306
0.986947
0.988707
0.990587
0.992586
0.994699
0.996914
0.999203
1.00154
1.00382
1.0061
1.00775
1.0097
0.973902
0.974724
0.975555
0.976177
0.976776
0.977478
0.97827
0.979116
0.980015
0.98098
0.982021
0.983143
0.984349
0.985646
0.987041
0.98854
0.990151
0.991881
0.993734
0.995716
0.997829
1.00007
1.00245
1.00493
1.0075
1.01014
1.01274
1.01532
1.01735
1.01976
0.977856
0.978731
0.979608
0.980325
0.981036
0.981843
0.982737
0.983689
0.984699
0.985778
0.986938
0.988181
0.989514
0.990941
0.992472
0.994113
0.99587
0.99775
0.99976
1.0019
1.00419
1.0066
1.00915
1.01182
1.01457
1.01738
1.02017
1.0229
1.02515
1.02772
0.981521
0.98243
0.983338
0.98413
0.984931
0.985822
0.986795
0.987829
0.988923
0.99009
0.991337
0.992671
0.994096
0.995618
0.997245
0.998984
1.00084
1.00283
1.00494
1.00719
1.00958
1.0121
1.01475
1.01751
1.02036
1.02324
1.02609
1.02883
1.03116
1.03352
0.984825
0.985754
0.986678
0.987526
0.988397
0.98935
0.990378
0.991468
0.992622
0.993847
0.995153
0.996545
0.998029
0.99961
1.0013
1.00309
1.00501
1.00705
1.00922
1.01152
1.01395
1.01652
1.0192
1.02199
1.02485
1.02773
1.03055
1.0332
1.03546
1.03738
0.987723
0.988658
0.989585
0.99047
0.991389
0.992381
0.993444
0.994566
0.995752
0.99701
0.998346
0.999766
1.00128
1.00288
1.00459
1.00641
1.00834
1.01039
1.01257
1.01487
1.0173
1.01986
1.02252
1.02527
1.02807
1.03087
1.03359
1.0361
1.0382
1.0397
0.990189
0.991121
0.99204
0.992944
0.99389
0.994901
0.995975
0.997108
0.998302
0.999565
1.0009
1.00232
1.00383
1.00543
1.00712
1.00892
1.01083
1.01286
1.015
1.01726
1.01964
1.02213
1.02472
1.02738
1.03007
1.03273
1.03527
1.03755
1.03939
1.04047
0.992226
0.993146
0.994049
0.994956
0.995908
0.996919
0.997985
0.999106
1.00029
1.00153
1.00285
1.00424
1.00571
1.00727
1.00893
1.01068
1.01253
1.01449
1.01656
1.01874
1.02103
1.02341
1.02587
1.02838
1.0309
1.03336
1.03565
1.03764
1.03911
1.03965
0.993858
0.994759
0.995639
0.996534
0.997475
0.998467
0.999509
1.0006
1.00174
1.00295
1.00422
1.00556
1.00698
1.00848
1.01006
1.01174
1.01351
1.01537
1.01734
1.0194
1.02155
1.02378
1.02607
1.02838
1.03067
1.03287
1.03485
1.03645
1.03748
1.03739
0.995131
0.996008
0.996858
0.997727
0.99864
0.999598
1.0006
1.00164
1.00273
1.00388
1.00509
1.00636
1.0077
1.00912
1.0106
1.01218
1.01383
1.01557
1.0174
1.0193
1.02128
1.02333
1.0254
1.02748
1.0295
1.03138
1.03299
1.03414
1.03469
1.03366
0.996107
0.996959
0.997773
0.998602
0.999473
1.00038
1.00133
1.0023
1.00332
1.00439
1.00551
1.00669
1.00792
1.00922
1.01058
1.01202
1.01353
1.01511
1.01677
1.01849
1.02027
1.02209
1.02393
1.02573
1.02744
1.02897
1.03017
1.03081
1.03083
1.02865
0.996867
0.99769
0.998451
0.999223
1.00004
1.0009
1.00179
1.0027
1.00365
1.00465
1.00568
1.00677
1.0079
1.00909
1.01033
1.01162
1.01297
1.01437
1.01583
1.01732
1.01886
1.0204
1.02193
1.0234
1.02474
1.02583
1.02655
1.02657
1.02605
1.02261
0.997559
0.998317
0.998973
0.999665
1.00041
1.00118
1.00197
1.00278
1.00362
1.0045
1.00543
1.00639
1.00739
1.00843
1.00952
1.01066
1.01184
1.01307
1.01434
1.01561
1.01688
1.01814
1.01935
1.02046
1.0214
1.02203
1.02222
1.02156
1.02045
1.01563
0.998378
0.998944
0.999384
1.00001
1.00074
1.00149
1.00223
1.00297
1.00371
1.00449
1.0053
1.00614
1.007
1.00788
1.00879
1.00972
1.01067
1.01165
1.01266
1.01369
1.01468
1.01562
1.01646
1.01716
1.01763
1.01772
1.01732
1.01587
1.01418
1.00756
0.999441
0.99961
0.999705
1.00013
1.0007
1.00131
1.00192
1.00256
1.00324
1.00395
1.00469
1.00546
1.00623
1.00701
1.00778
1.00854
1.00928
1.01
1.0107
1.01139
1.01206
1.01266
1.01314
1.01342
1.01341
1.01294
1.01192
1.00949
1.00744
0.998344
0.988437
0.977847
0.965979
0.953157
0.939714
0.925485
0.910375
0.894535
0.878394
0.862316
0.847244
0.83313
0.820113
0.809908
0.803376
0.800723
0.800521
0.800926
0.802014
0.801152
0.796919
0.794938
0.794965
0.79423
0.79174
0.787986
0.784429
0.781634
0.780384
0.781066
1.00064
0.991644
0.980988
0.969396
0.956948
0.943458
0.92896
0.913316
0.896751
0.879315
0.861781
0.844767
0.828192
0.813927
0.804713
0.801026
0.800739
0.801
0.801904
0.800349
0.795447
0.79379
0.794382
0.793623
0.790513
0.786116
0.781436
0.777872
0.776342
0.776732
1.00273
0.994273
0.98465
0.974259
0.96234
0.949021
0.934437
0.918763
0.902159
0.884841
0.867038
0.849575
0.832503
0.817346
0.807133
0.802443
0.801411
0.801329
0.802341
0.800297
0.793792
0.792374
0.794501
0.794115
0.79067
0.783361
0.775803
0.770266
0.76711
0.766118
1.00656
0.999751
0.991549
0.981694
0.970558
0.957956
0.943692
0.927973
0.910868
0.892688
0.873924
0.855384
0.837468
0.821433
0.810198
0.804445
0.802551
0.802064
0.802811
0.799299
0.791662
0.791286
0.79626
0.795858
0.788602
0.776461
0.765416
0.757943
0.753175
0.751071
1.00831
1.00233
0.994972
0.98644
0.976364
0.964609
0.95108
0.935804
0.918831
0.900409
0.881028
0.861516
0.842602
0.825582
0.813182
0.806429
0.803796
0.80277
0.802883
0.797619
0.789671
0.791842
0.7997
0.796806
0.783396
0.764779
0.750217
0.741863
0.736116
0.733671
1.0095
1.00453
0.99829
0.990646
0.981347
0.970284
0.957331
0.942405
0.925555
0.907004
0.887186
0.866922
0.847138
0.829207
0.815753
0.808115
0.804917
0.8032
0.802282
0.795691
0.789054
0.794831
0.80383
0.795896
0.773393
0.747563
0.729567
0.723438
0.718513
0.716841
1.0101
1.00601
1.00067
0.993872
0.985437
0.97519
0.962929
0.948472
0.931811
0.913151
0.892921
0.87195
0.85132
0.832503
0.818088
0.809588
0.805777
0.803443
0.801506
0.794509
0.790601
0.799521
0.807739
0.791465
0.757522
0.725443
0.707541
0.706099
0.703223
0.703432
1.01034
1.00701
1.00251
0.996521
0.988874
0.979413
0.967873
0.95398
0.937639
0.918995
0.89845
0.876835
0.855363
0.835647
0.820285
0.81094
0.806439
0.803598
0.800822
0.79467
0.793508
0.804251
0.808237
0.780967
0.736139
0.702289
0.689115
0.693185
0.69216
0.695403
1.01031
1.00767
1.0039
0.998644
0.991742
0.983037
0.972212
0.958916
0.94297
0.924448
0.903698
0.881531
0.859258
0.838647
0.822348
0.812171
0.806986
0.803721
0.800397
0.795522
0.796256
0.806701
0.803913
0.764569
0.714281
0.683743
0.677981
0.685984
0.686243
0.694271
1.01012
1.00806
1.00495
1.00036
0.994151
0.986167
0.976041
0.963358
0.947855
0.929522
0.908649
0.886011
0.862987
0.841498
0.824281
0.81329
0.807426
0.803817
0.800246
0.796279
0.797814
0.805956
0.794036
0.746005
0.696663
0.673157
0.674318
0.684688
0.686057
0.702169
1.00981
1.00826
1.00572
1.00174
0.996182
0.988877
0.979432
0.96737
0.952349
0.934267
0.913339
0.890296
0.866566
0.844218
0.8261
0.814312
0.807808
0.803867
0.800091
0.79656
0.797986
0.802073
0.780982
0.728814
0.684673
0.670048
0.677297
0.689069
0.693353
0.721669
1.00941
1.00831
1.00629
1.00286
0.997899
0.991234
0.98244
0.970998
0.956487
0.938708
0.917789
0.894403
0.87001
0.84682
0.827816
0.815246
0.808169
0.803847
0.799845
0.796483
0.797085
0.795996
0.767113
0.714092
0.677687
0.672533
0.685757
0.69969
0.71141
0.755307
1.00894
1.00824
1.00668
1.00375
0.999355
0.99329
0.985118
0.974283
0.960298
0.942866
0.922012
0.898342
0.873326
0.849311
0.829434
0.816097
0.80848
0.803758
0.799541
0.796179
0.795266
0.788757
0.753601
0.702875
0.675878
0.680145
0.699568
0.718004
0.741208
0.79948
1.00843
1.00808
1.00694
1.00447
1.00059
0.995088
0.987508
0.977266
0.963815
0.94676
0.926022
0.902119
0.876521
0.851696
0.830956
0.816869
0.808724
0.803616
0.799202
0.79559
0.792713
0.781195
0.742204
0.697236
0.679872
0.692897
0.717919
0.74336
0.780096
0.848498
1.00787
1.00785
1.00709
1.00503
1.00164
0.996668
0.989648
0.979981
0.967065
0.950413
0.929833
0.905746
0.8796
0.853983
0.832388
0.817566
0.808901
0.803433
0.798793
0.794698
0.789644
0.773951
0.734829
0.697589
0.688107
0.709107
0.739169
0.773205
0.822368
0.895293
1.00727
1.00756
1.00714
1.00547
1.00253
0.99806
0.991572
0.982459
0.970075
0.953843
0.933458
0.909231
0.882572
0.856177
0.833734
0.818192
0.80901
0.80321
0.798288
0.79351
0.786343
0.767861
0.731504
0.701379
0.698754
0.726537
0.761765
0.804368
0.862577
0.933727
1.00666
1.00721
1.0071
1.00579
1.00328
0.999286
0.993307
0.984728
0.972866
0.957068
0.93691
0.912583
0.885443
0.858282
0.834998
0.818748
0.809061
0.802947
0.797679
0.792089
0.783135
0.763215
0.729984
0.706394
0.711241
0.744241
0.785257
0.83495
0.897006
0.962065
1.00602
1.00681
1.00698
1.00602
1.0039
1.00037
0.994875
0.986811
0.975461
0.960105
0.940201
0.91581
0.888218
0.860305
0.836184
0.819239
0.809068
0.802636
0.796971
0.790551
0.780151
0.759298
0.72946
0.712182
0.7249
0.762509
0.808844
0.863445
0.925132
0.982403
1.00537
1.00636
1.00679
1.00615
1.00442
1.00131
0.996294
0.988728
0.977879
0.962968
0.94334
0.918918
0.890903
0.862248
0.837295
0.819666
0.809041
0.802273
0.796184
0.788979
0.777366
0.756124
0.730053
0.718725
0.739102
0.781099
0.831785
0.888861
0.947666
0.997296
1.00472
1.00588
1.00652
1.00619
1.00482
1.00214
0.997578
0.990496
0.980138
0.965673
0.94634
0.921916
0.893502
0.864116
0.838333
0.820033
0.808977
0.801861
0.795348
0.787406
0.77483
0.753976
0.731534
0.726097
0.753472
0.799543
0.853514
0.911169
0.966001
1.00883
1.00409
1.00537
1.00621
1.00615
1.00513
1.00285
0.99874
0.992129
0.982251
0.968233
0.94921
0.92481
0.896021
0.865912
0.839301
0.820342
0.808874
0.80141
0.79448
0.785865
0.772627
0.752654
0.733814
0.734446
0.767637
0.817519
0.873773
0.930686
0.981342
1.01821
1.00347
1.00483
1.00584
1.00603
1.00535
1.00346
0.999788
0.993637
0.984231
0.97066
0.95196
0.927608
0.898464
0.867639
0.840201
0.820595
0.808731
0.80093
0.793595
0.784387
0.770701
0.752008
0.736799
0.743535
0.781639
0.834846
0.892474
0.947958
0.994646
1.02597
1.00288
1.00429
1.00544
1.00585
1.00547
1.00397
1.00073
0.995034
0.986091
0.972966
0.9546
0.930317
0.900838
0.869301
0.841035
0.820794
0.808551
0.800425
0.792704
0.783001
0.76912
0.751914
0.740301
0.753038
0.795549
0.85148
0.909744
0.963496
1.00632
1.03226
1.00233
1.00377
1.005
1.00561
1.00552
1.00439
1.00158
0.996325
0.987837
0.975152
0.95713
0.932939
0.903144
0.8709
0.841806
0.820942
0.808337
0.799904
0.791823
0.78173
0.767965
0.752197
0.744107
0.762885
0.809278
0.867457
0.925939
0.977673
1.01651
1.03732
1.00183
1.00326
1.00455
1.00532
1.00549
1.00471
1.00235
0.997534
0.9895
0.977256
0.959578
0.935488
0.905389
0.872438
0.842515
0.821037
0.808074
0.799373
0.790951
0.780563
0.767141
0.75286
0.748284
0.772599
0.822744
0.882865
0.941147
0.990693
1.0254
1.04124
1.00136
1.00279
1.0041
1.00497
1.00538
1.00496
1.00294
0.99859
0.991019
0.979232
0.961922
0.93796
0.907576
0.873924
0.843175
0.821107
0.807809
0.798856
0.790124
0.7795
0.766624
0.753951
0.753124
0.782023
0.835763
0.897968
0.955556
1.00259
1.03302
1.04381
1.00092
1.00234
1.00368
1.00458
1.00515
1.0052
1.00367
0.999673
0.992512
0.981153
0.964199
0.94036
0.909689
0.875324
0.843713
0.821034
0.807449
0.798265
0.789294
0.77857
0.766327
0.755146
0.758719
0.792063
0.848546
0.912235
0.969091
1.0134
1.03939
1.04506
1.00053
1.00193
1.00332
1.00427
1.00484
1.00499
1.00399
1.00055
0.993861
0.982966
0.966432
0.942784
0.911881
0.876878
0.844478
0.821176
0.80721
0.797746
0.788512
0.77775
0.766262
0.755922
0.763369
0.802586
0.863768
0.927499
0.982352
1.0234
1.04433
1.04447
1.0002
1.00149
1.00295
1.00405
1.00491
1.0053
1.00451
1.00144
0.995097
0.984496
0.968235
0.944621
0.913396
0.877696
0.844568
0.82087
0.806781
0.797232
0.787902
0.777508
0.766401
0.757308
0.766782
0.809493
0.874506
0.939985
0.994499
1.03231
1.04809
1.04246
0.999922
1.00094
1.00222
1.00333
1.00426
1.00506
1.0048
1.00242
0.996802
0.986865
0.97121
0.94799
0.916506
0.879951
0.84555
0.820819
0.806224
0.79637
0.786654
0.775773
0.765495
0.761309
0.781351
0.830452
0.896252
0.959626
1.00977
1.04095
1.04943
1.03304
0.627243
0.61589
0.626418
0.638989
0.656727
0.666132
0.67273
0.679893
0.689355
0.699724
0.710765
0.722182
0.733462
0.744319
0.754628
0.764299
0.773289
0.781592
0.78922
0.796198
0.802562
0.808351
0.81359
0.818319
0.822689
0.827007
0.831621
0.836849
0.842212
0.836205
0.621705
0.618892
0.635172
0.65425
0.666756
0.667288
0.669125
0.673288
0.681041
0.690445
0.701161
0.712657
0.724152
0.73529
0.745917
0.755917
0.765235
0.773862
0.781809
0.789098
0.795758
0.801823
0.807329
0.8123
0.816766
0.820744
0.82425
0.826874
0.83047
0.831068
0.605052
0.607932
0.637707
0.676076
0.683291
0.671733
0.664393
0.665267
0.669515
0.67785
0.68856
0.700204
0.711993
0.723597
0.734789
0.745389
0.755315
0.76455
0.773097
0.780974
0.788206
0.794822
0.800852
0.80632
0.81124
0.815578
0.819471
0.822651
0.8262
0.829858
0.593431
0.59336
0.634313
0.684478
0.698105
0.677511
0.658951
0.655944
0.657616
0.664177
0.675431
0.688168
0.700897
0.713397
0.725514
0.737021
0.747793
0.757809
0.767077
0.775623
0.783478
0.790677
0.797261
0.803269
0.808755
0.813728
0.818303
0.822377
0.826024
0.829456
0.586483
0.584918
0.621191
0.672789
0.69678
0.68347
0.651182
0.640901
0.642853
0.647699
0.658593
0.673065
0.687541
0.701309
0.714558
0.727164
0.738947
0.74986
0.759927
0.769188
0.777687
0.78547
0.792588
0.799086
0.805016
0.810403
0.815289
0.819698
0.82354
0.827048
0.583499
0.584129
0.606304
0.642398
0.667355
0.667355
0.641776
0.619688
0.618998
0.625739
0.635632
0.651596
0.669019
0.684967
0.699757
0.713738
0.726804
0.738866
0.74995
0.760115
0.769421
0.777927
0.785695
0.792779
0.799231
0.805096
0.810407
0.815239
0.819542
0.823551
0.584393
0.592818
0.590063
0.602193
0.620384
0.624998
0.61385
0.592803
0.584637
0.593087
0.605893
0.622515
0.643508
0.663363
0.680816
0.696748
0.71151
0.725081
0.737489
0.748819
0.759159
0.768587
0.777181
0.785014
0.792151
0.798653
0.804561
0.80995
0.814773
0.81928
0.569846
0.589712
0.565631
0.559706
0.569372
0.573345
0.567633
0.555015
0.544423
0.548528
0.565118
0.585438
0.608943
0.634138
0.656288
0.675436
0.692628
0.708226
0.722355
0.735162
0.746787
0.757347
0.766942
0.775668
0.783607
0.790838
0.797413
0.803413
0.808792
0.813829
0.526132
0.562701
0.530578
0.517097
0.519885
0.52031
0.51508
0.506886
0.499126
0.498594
0.512353
0.537012
0.565167
0.594787
0.623411
0.647738
0.668699
0.68719
0.703649
0.718375
0.73162
0.743577
0.754389
0.764181
0.773062
0.781133
0.788464
0.795158
0.801174
0.806821
0.461063
0.516101
0.48688
0.473576
0.471317
0.466819
0.46032
0.453428
0.448132
0.446787
0.455245
0.477699
0.509966
0.545546
0.580223
0.611287
0.637871
0.660628
0.680366
0.697679
0.713024
0.726735
0.739046
0.750136
0.76015
0.769217
0.777433
0.784925
0.79166
0.797982
0.389328
0.456738
0.437009
0.42864
0.423215
0.414567
0.405566
0.398052
0.393114
0.392351
0.398194
0.415541
0.445991
0.484988
0.526132
0.564686
0.598423
0.627121
0.65147
0.672332
0.690451
0.706394
0.720557
0.733217
0.744582
0.754823
0.764065
0.772462
0.780002
0.787051
0.320783
0.394881
0.385551
0.383247
0.376338
0.365044
0.353628
0.344108
0.337756
0.336369
0.341219
0.354651
0.380263
0.418017
0.462697
0.508015
0.5496
0.585589
0.615984
0.641591
0.663372
0.682168
0.698615
0.713157
0.726107
0.737703
0.748115
0.75753
0.765963
0.773796
0.262327
0.337229
0.336562
0.339733
0.332731
0.320183
0.306895
0.294957
0.286309
0.282778
0.286115
0.297041
0.317924
0.351222
0.395271
0.444456
0.492754
0.536307
0.573714
0.605158
0.631539
0.653897
0.673121
0.689879
0.704645
0.717763
0.72947
0.739997
0.749398
0.758057
0.216738
0.289846
0.296171
0.302029
0.295385
0.282425
0.267758
0.25363
0.242314
0.235978
0.236683
0.245148
0.262188
0.290285
0.330511
0.379697
0.43192
0.481768
0.526073
0.563855
0.595509
0.622024
0.644465
0.663728
0.680485
0.695226
0.708284
0.71995
0.730335
0.739811
0.188836
0.258345
0.267016
0.273398
0.267241
0.254174
0.238542
0.22272
0.208968
0.19977
0.197125
0.202563
0.216133
0.239359
0.274349
0.32041
0.373144
0.426723
0.476498
0.52011
0.55705
0.587929
0.613791
0.635681
0.654465
0.670795
0.68513
0.697835
0.709103
0.719268
0.181596
0.243782
0.252059
0.256809
0.250592
0.237316
0.220972
0.203978
0.188392
0.176598
0.170837
0.172866
0.182962
0.201797
0.231417
0.272645
0.322977
0.377241
0.430231
0.478227
0.519541
0.554298
0.583314
0.607617
0.628197
0.645861
0.661195
0.674646
0.686509
0.697053
0.195114
0.245251
0.253416
0.254636
0.247104
0.233029
0.21595
0.198185
0.181527
0.167965
0.159804
0.158578
0.165259
0.180165
0.204885
0.240848
0.287008
0.339386
0.392572
0.443214
0.48735
0.524842
0.55622
0.582311
0.604133
0.622602
0.63841
0.652081
0.664022
0.674409
0.228541
0.263911
0.270189
0.267217
0.257125
0.241521
0.223449
0.204986
0.187769
0.173373
0.163779
0.160244
0.164025
0.175654
0.196341
0.227579
0.269258
0.318655
0.370763
0.421085
0.465685
0.504094
0.536504
0.563312
0.58547
0.603934
0.619461
0.632606
0.643898
0.653362
0.279311
0.299867
0.30191
0.294219
0.280591
0.262535
0.242769
0.223304
0.205704
0.191086
0.180989
0.176435
0.178407
0.187834
0.20575
0.23345
0.27122
0.317108
0.366898
0.414696
0.45837
0.496219
0.528133
0.554359
0.57575
0.593226
0.607543
0.619273
0.628974
0.636623
0.343611
0.351101
0.347436
0.334619
0.316869
0.295675
0.273593
0.252595
0.234183
0.219399
0.209371
0.204999
0.206673
0.215314
0.232058
0.257858
0.292877
0.33544
0.38175
0.426699
0.467986
0.504109
0.534258
0.558695
0.57825
0.593778
0.606004
0.615471
0.622842
0.627794
0.416911
0.41388
0.404258
0.386425
0.364476
0.339957
0.315298
0.292456
0.272977
0.257919
0.248177
0.244505
0.24693
0.256477
0.273907
0.299879
0.333853
0.374361
0.4178
0.459605
0.497258
0.530107
0.557178
0.578726
0.595512
0.608302
0.617836
0.6242
0.628321
0.629662
0.493825
0.483367
0.46856
0.446522
0.42096
0.393544
0.366613
0.342127
0.321699
0.306478
0.29734
0.294901
0.299217
0.310804
0.330255
0.357718
0.39232
0.431887
0.473409
0.511669
0.54551
0.574192
0.59729
0.615149