/*--------------------------------*- C++ -*----------------------------------*\
  =========                 |
  \\      /  F ield         | OpenFOAM: The Open Source CFD Toolbox
   \\    /   O peration     | Website:  https://openfoam.org
    \\  /    A nd           | Version:  11
     \\/     M anipulation  |
\*---------------------------------------------------------------------------*/
FoamFile
{
    format      ascii;
    class       volScalarField;
    location    "2.5";
    object      p;
}
// * * * * * * * * * * * * * * * * * * * * * * * * * * * * * * * * * * * * * //

dimensions      [0 2 -2 0 0 0 0];

internalField   nonuniform List<scalar> 
12600
(
0.35666
0.356561
0.356465
0.35637
0.356253
0.356104
0.355922
0.355703
0.355445
0.35514
0.354783
0.354366
0.35388
0.353317
0.352664
0.351907
0.35103
0.350014
0.348838
0.347475
0.345895
0.344063
0.341938
0.339475
0.336617
0.333304
0.32947
0.325038
0.319958
0.314064
0.356611
0.356556
0.356476
0.356382
0.356267
0.356121
0.355941
0.355725
0.35547
0.35517
0.354818
0.354406
0.353926
0.35337
0.352725
0.351978
0.351113
0.35011
0.348949
0.347603
0.346042
0.344233
0.342133
0.339696
0.336867
0.333584
0.329778
0.325371
0.320291
0.314429
0.356614
0.356578
0.356508
0.356416
0.356301
0.356159
0.355984
0.355774
0.355524
0.35523
0.354886
0.354483
0.354015
0.353473
0.352843
0.352114
0.351269
0.35029
0.349157
0.347843
0.346319
0.34455
0.342497
0.340111
0.337338
0.334114
0.330365
0.326014
0.320956
0.315132
0.356636
0.356608
0.356546
0.356458
0.356348
0.356211
0.356042
0.35584
0.355599
0.355315
0.354983
0.354596
0.354145
0.353621
0.353014
0.352312
0.351497
0.350555
0.349462
0.348196
0.346726
0.34502
0.343037
0.340729
0.33804
0.334906
0.331248
0.326985
0.32199
0.316212
0.356677
0.356654
0.3566
0.356518
0.356413
0.356283
0.356123
0.35593
0.3557
0.35543
0.355114
0.354745
0.354316
0.353818
0.35324
0.352572
0.351798
0.350901
0.349862
0.348658
0.34726
0.345635
0.343744
0.34154
0.338966
0.335955
0.332426
0.328289
0.323401
0.317711
0.356734
0.356715
0.356666
0.356591
0.356492
0.35637
0.35622
0.356038
0.355823
0.355569
0.355272
0.354926
0.354523
0.354056
0.353515
0.352888
0.352163
0.351324
0.350351
0.349223
0.347913
0.346389
0.344614
0.34254
0.340112
0.33726
0.333899
0.329934
0.325203
0.319651
0.356806
0.356789
0.356745
0.356677
0.356586
0.356473
0.356334
0.356167
0.355967
0.355733
0.355458
0.355139
0.354767
0.354336
0.353837
0.35326
0.352592
0.351819
0.350924
0.349885
0.348679
0.347276
0.345638
0.343721
0.34147
0.338815
0.335667
0.331926
0.327412
0.32206
0.356891
0.356876
0.356837
0.356775
0.356693
0.35659
0.356464
0.356312
0.356131
0.355918
0.355669
0.355379
0.355043
0.354653
0.354202
0.35368
0.353077
0.35238
0.351572
0.350637
0.349549
0.348284
0.346805
0.345072
0.343029
0.34061
0.337723
0.334265
0.330039
0.32497
0.356988
0.356974
0.35694
0.356885
0.356812
0.356721
0.356609
0.356474
0.356313
0.356124
0.355903
0.355646
0.355348
0.355004
0.354605
0.354145
0.353614
0.353
0.35229
0.351468
0.350513
0.349402
0.348103
0.346577
0.344775
0.342631
0.340056
0.336945
0.333089
0.328405
0.357094
0.357082
0.357053
0.357005
0.356943
0.356864
0.356766
0.35665
0.356511
0.356347
0.356157
0.355936
0.35568
0.355384
0.355042
0.354649
0.354195
0.353672
0.353067
0.352369
0.351558
0.350616
0.349514
0.34822
0.346687
0.344858
0.342645
0.339948
0.336556
0.332375
0.357208
0.357199
0.357174
0.357135
0.357082
0.357016
0.356935
0.356837
0.356722
0.356586
0.356428
0.356245
0.356033
0.355789
0.355508
0.355185
0.354813
0.354386
0.353894
0.353327
0.352671
0.351909
0.351021
0.349977
0.348741
0.347261
0.345461
0.343247
0.340417
0.336871
0.35733
0.357323
0.357303
0.357272
0.35723
0.357177
0.357113
0.357035
0.356944
0.356837
0.356712
0.356569
0.356403
0.356213
0.355996
0.355746
0.355461
0.355134
0.35476
0.35433
0.353836
0.353265
0.352601
0.351825
0.350907
0.349807
0.348463
0.346794
0.344623
0.341848
0.357458
0.357452
0.357437
0.357414
0.357383
0.357345
0.357297
0.357241
0.357174
0.357097
0.357008
0.356905
0.356787
0.356653
0.356501
0.356327
0.35613
0.355906
0.355653
0.355365
0.355037
0.354663
0.354232
0.353734
0.35315
0.352452
0.351598
0.350527
0.349101
0.347224
0.357589
0.357586
0.357576
0.357561
0.357542
0.357517
0.357487
0.357452
0.357411
0.357364
0.35731
0.357249
0.35718
0.357103
0.357016
0.356919
0.356812
0.356693
0.356562
0.356417
0.356258
0.356082
0.355889
0.355673
0.35543
0.355147
0.354804
0.354366
0.353747
0.352869
0.357724
0.357722
0.357718
0.357711
0.357703
0.357692
0.35768
0.357666
0.357651
0.357634
0.357616
0.357597
0.357577
0.357557
0.357536
0.357517
0.357499
0.357485
0.357475
0.357473
0.357481
0.357503
0.357544
0.35761
0.357706
0.357838
0.358009
0.358216
0.358432
0.358612
0.35786
0.35786
0.357861
0.357862
0.357865
0.357869
0.357874
0.357882
0.357892
0.357905
0.357923
0.357945
0.357974
0.35801
0.358055
0.358112
0.358182
0.358271
0.358381
0.358518
0.358689
0.358904
0.359173
0.359511
0.359936
0.360469
0.36114
0.361973
0.363011
0.364245
0.357995
0.357997
0.358003
0.358013
0.358026
0.358044
0.358067
0.358095
0.358131
0.358174
0.358226
0.35829
0.358366
0.358457
0.358567
0.358698
0.358854
0.359042
0.359268
0.359539
0.359867
0.360266
0.360751
0.361346
0.362079
0.362987
0.364121
0.365536
0.367333
0.369551
0.358129
0.358133
0.358144
0.358161
0.358185
0.358216
0.358256
0.358305
0.358365
0.358437
0.358524
0.358627
0.358749
0.358894
0.359065
0.359268
0.359507
0.35979
0.360125
0.360524
0.361
0.36157
0.362255
0.363086
0.364099
0.365343
0.366887
0.368811
0.371261
0.374322
0.35826
0.358266
0.358281
0.358306
0.35834
0.358384
0.35844
0.358508
0.358592
0.358692
0.358812
0.358953
0.359119
0.359316
0.359546
0.359816
0.360133
0.360506
0.360945
0.361462
0.362073
0.3628
0.363667
0.364707
0.365965
0.367497
0.369384
0.371723
0.374688
0.378397
0.358386
0.358394
0.358413
0.358445
0.358488
0.358545
0.358616
0.358704
0.35881
0.358936
0.359087
0.359264
0.359473
0.359717
0.360003
0.360337
0.360727
0.361183
0.361716
0.362342
0.363077
0.363943
0.364969
0.366191
0.367655
0.369422
0.371577
0.374225
0.377545
0.381676
0.358507
0.358516
0.358539
0.358577
0.35863
0.358698
0.358783
0.358888
0.359015
0.359167
0.359346
0.359558
0.359805
0.360095
0.360432
0.360825
0.361282
0.361814
0.362434
0.363157
0.364001
0.36499
0.366152
0.367524
0.369154
0.371101
0.373448
0.376297
0.379815
0.384141
0.358621
0.358631
0.358658
0.358702
0.358762
0.358841
0.358939
0.359061
0.359207
0.359382
0.359588
0.359831
0.360114
0.360445
0.360829
0.361276
0.361794
0.362394
0.363091
0.363899
0.364839
0.365932
0.367208
0.368701
0.370456
0.37253
0.374997
0.377949
0.381522
0.385842
0.358727
0.358739
0.358768
0.358817
0.358884
0.358972
0.359083
0.359219
0.359383
0.359579
0.359809
0.36008
0.360396
0.360764
0.361191
0.361685
0.362257
0.362919
0.363683
0.364565
0.365585
0.366766
0.368132
0.369719
0.371564
0.373719
0.376243
0.379212
0.382725
0.386882
0.358825
0.358837
0.358869
0.358921
0.358994
0.359091
0.359212
0.359361
0.359541
0.359755
0.360008
0.360304
0.360649
0.36105
0.361514
0.362051
0.36267
0.363384
0.364206
0.365151
0.366238
0.367489
0.368927
0.370582
0.372486
0.374682
0.377214
0.380138
0.383511
0.387401
0.358914
0.358926
0.358959
0.359013
0.359092
0.359195
0.359326
0.359486
0.35968
0.35991
0.360182
0.360499
0.360869
0.361299
0.361795
0.362368
0.363028
0.363786
0.364656
0.365654
0.366796
0.368102
0.369593
0.371295
0.373234
0.375441
0.377946
0.380784
0.383972
0.387545
0.358994
0.359005
0.359036
0.359092
0.359175
0.359285
0.359423
0.359593
0.359798
0.360042
0.36033
0.360666
0.361057
0.361511
0.362034
0.362637
0.36333
0.364125
0.365034
0.366073
0.367258
0.368607
0.370137
0.371869
0.373824
0.376022
0.37848
0.381214
0.384204
0.38746
0.359065
0.359074
0.359101
0.359156
0.359242
0.359357
0.359501
0.359679
0.359893
0.360148
0.360449
0.3608
0.361208
0.361681
0.362226
0.362853
0.363573
0.364396
0.365337
0.366408
0.367625
0.369004
0.370561
0.372312
0.37427
0.376448
0.378851
0.381478
0.384286
0.387262
0.35913
0.359132
0.359153
0.359207
0.359296
0.359415
0.359563
0.359746
0.359968
0.360231
0.360541
0.360904
0.361325
0.361812
0.362373
0.363018
0.363757
0.364602
0.365565
0.36666
0.3679
0.369301
0.370875
0.372634
0.374588
0.376744
0.379096
0.381632
0.384294
0.387042
0.359194
0.359171
0.35918
0.359235
0.359329
0.35945
0.359602
0.359789
0.360016
0.360285
0.360602
0.360972
0.361402
0.361898
0.362471
0.363128
0.36388
0.364739
0.365717
0.366826
0.368081
0.369495
0.371079
0.372842
0.374789
0.376923
0.379234
0.3817
0.384268
0.386888
0.359281
0.359208
0.359198
0.359254
0.359348
0.359471
0.359624
0.359813
0.360042
0.360314
0.360634
0.361008
0.361443
0.361945
0.362523
0.363186
0.363945
0.364811
0.365796
0.366913
0.368174
0.369592
0.371178
0.372939
0.374879
0.376997
0.37928
0.381701
0.384207
0.386722
0.309486
0.307493
0.306057
0.304894
0.303667
0.302334
0.300958
0.299564
0.298145
0.29669
0.295192
0.293639
0.292016
0.290302
0.288473
0.286497
0.284337
0.281946
0.279267
0.276222
0.272714
0.268612
0.263733
0.25784
0.250547
0.241439
0.22958
0.213496
0.196335
0.150663
0.310392
0.308866
0.307553
0.306373
0.30515
0.303866
0.302575
0.301295
0.300008
0.298697
0.29735
0.295958
0.294504
0.292969
0.291334
0.289571
0.287651
0.285533
0.283171
0.2805
0.277438
0.273877
0.269667
0.264616
0.258403
0.250712
0.240672
0.227738
0.211698
0.17648
0.310856
0.309645
0.308576
0.307506
0.306403
0.305288
0.30418
0.303074
0.301954
0.300807
0.299626
0.298405
0.297133
0.295794
0.294373
0.292849
0.291198
0.289389
0.287382
0.285128
0.282561
0.279596
0.276113
0.271963
0.266891
0.26066
0.252526
0.242328
0.228452
0.202276
0.311893
0.310979
0.31017
0.309245
0.308263
0.307291
0.306333
0.305373
0.304401
0.303412
0.302402
0.301366
0.300293
0.299173
0.297993
0.296737
0.295387
0.29392
0.292306
0.290509
0.288479
0.286153
0.283441
0.28023
0.276322
0.271553
0.265287
0.257596
0.246308
0.227782
0.313388
0.312694
0.312089
0.311298
0.31044
0.309617
0.308824
0.308034
0.307237
0.306433
0.30562
0.304792
0.303944
0.303067
0.302155
0.301197
0.30018
0.29909
0.297907
0.296606
0.295153
0.293505
0.291598
0.289353
0.286622
0.283298
0.278849
0.273507
0.264937
0.252807
0.315344
0.314856
0.314456
0.313821
0.31311
0.312452
0.311836
0.311227
0.310616
0.310008
0.309405
0.308803
0.308199
0.30759
0.306971
0.306338
0.305685
0.305004
0.304283
0.30351
0.302665
0.30172
0.300637
0.299364
0.297797
0.29587
0.293154
0.28998
0.284039
0.277138
0.317805
0.317521
0.317329
0.316858
0.316303
0.315815
0.315385
0.314969
0.31456
0.314166
0.313793
0.313439
0.313104
0.312786
0.312487
0.312206
0.311943
0.311696
0.311464
0.311241
0.311021
0.310793
0.310535
0.310218
0.309776
0.309172
0.308071
0.306847
0.303323
0.300571
0.320824
0.320745
0.320765
0.320467
0.320079
0.319774
0.319542
0.319335
0.319143
0.318981
0.318856
0.318768
0.31872
0.318714
0.318755
0.318846
0.318992
0.319198
0.319468
0.319807
0.320217
0.320698
0.321245
0.321846
0.322461
0.323077
0.323435
0.323904
0.322502
0.322915
0.32445
0.324578
0.32481
0.324695
0.324485
0.324375
0.324353
0.324366
0.324406
0.324489
0.324627
0.324821
0.325075
0.325396
0.32579
0.326266
0.326833
0.327498
0.328274
0.329169
0.330195
0.33136
0.332669
0.334124
0.335702
0.337401
0.339029
0.340902
0.341283
0.343998
0.328722
0.329055
0.329497
0.329572
0.32955
0.329644
0.329841
0.330084
0.330367
0.330706
0.331116
0.331601
0.332167
0.332822
0.333575
0.334438
0.335423
0.336542
0.337809
0.33924
0.340849
0.342651
0.344657
0.346875
0.349296
0.351918
0.354596
0.357569
0.359374
0.363642
0.333652
0.334184
0.334827
0.335097
0.335272
0.335576
0.335997
0.336475
0.337004
0.337604
0.33829
0.339067
0.339944
0.34093
0.342036
0.343276
0.344664
0.346215
0.347945
0.349871
0.352011
0.354383
0.356999
0.35987
0.362991
0.366356
0.369852
0.373628
0.376507
0.381664
0.339213
0.339931
0.34076
0.341223
0.341601
0.342116
0.342759
0.343471
0.344244
0.3451
0.346055
0.347117
0.348293
0.349595
0.351036
0.35263
0.354391
0.356336
0.358482
0.360848
0.36345
0.366306
0.369429
0.372826
0.376493
0.380416
0.384497
0.388808
0.392439
0.397923
0.345323
0.346208
0.347199
0.347849
0.348428
0.349149
0.350005
0.350939
0.351945
0.353043
0.354252
0.355579
0.357033
0.358625
0.360369
0.362279
0.36437
0.366658
0.369161
0.371894
0.374875
0.378118
0.381632
0.385422
0.389477
0.393774
0.398221
0.402826
0.406906
0.412288
0.351834
0.352859
0.353981
0.354805
0.355577
0.35649
0.357541
0.358678
0.359896
0.361214
0.36265
0.364213
0.365911
0.367755
0.369759
0.371937
0.374303
0.376873
0.379661
0.382682
0.38595
0.389476
0.393266
0.397315
0.401607
0.406107
0.410724
0.415412
0.419653
0.424609
0.358527
0.359662
0.360879
0.361856
0.362804
0.363889
0.365109
0.366422
0.367822
0.369329
0.370957
0.372717
0.374617
0.376667
0.37888
0.38127
0.383849
0.386631
0.389629
0.392855
0.396319
0.400027
0.40398
0.408167
0.412563
0.41712
0.421744
0.426345
0.430503
0.434854
0.365129
0.366339
0.367617
0.36872
0.36982
0.371049
0.372406
0.37386
0.375406
0.377062
0.378842
0.380755
0.382808
0.385012
0.38738
0.389921
0.392649
0.395574
0.398708
0.402059
0.405634
0.409434
0.413453
0.417676
0.422069
0.426572
0.431085
0.43548
0.439406
0.443134
0.371336
0.372591
0.373897
0.375095
0.376316
0.377656
0.379115
0.380671
0.382324
0.384087
0.385974
0.387991
0.390149
0.392455
0.39492
0.397555
0.400369
0.403373
0.406574
0.409979
0.413591
0.417406
0.421415
0.425595
0.429906
0.434279
0.43861
0.442744
0.446389
0.449507
0.376861
0.378135
0.379444
0.380704
0.382009
0.383424
0.384948
0.386568
0.388286
0.390114
0.392063
0.39414
0.396352
0.39871
0.401221
0.403895
0.40674
0.409765
0.412974
0.416373
0.41996
0.42373
0.427668
0.431746
0.435918
0.44011
0.444211
0.448047
0.451348
0.453843
0.381478
0.382751
0.384045
0.385335
0.386688
0.388141
0.389694
0.391341
0.393085
0.394937
0.396906
0.398998
0.401222
0.403585
0.406095
0.40876
0.411587
0.414583
0.417751
0.421094
0.424607
0.428283
0.432102
0.436032
0.440022
0.44399
0.447817
0.451316
0.454219
0.456145
0.385058
0.386313
0.387579
0.388871
0.390235
0.391692
0.393241
0.394879
0.396614
0.398453
0.400403
0.402472
0.404667
0.406995
0.409462
0.412077
0.414845
0.41777
0.420855
0.4241
0.4275
0.431044
0.434709
0.438459
0.442237
0.445955
0.449486
0.452628
0.455126
0.456558
0.387589
0.388815
0.390047
0.391315
0.392658
0.394087
0.395602
0.397204
0.398897
0.40069
0.40259
0.404603
0.406735
0.408993
0.411384
0.413914
0.416587
0.419407
0.422376
0.425492
0.428747
0.432127
0.435606
0.439147
0.442686
0.446128
0.449342
0.4521
0.454178
0.454885
0.389159
0.390345
0.391537
0.392762
0.394056
0.395432
0.396889
0.398428
0.400054
0.401774
0.403596
0.405523
0.407564
0.409724
0.412008
0.414423
0.416971
0.419657
0.422479
0.425435
0.428516
0.431703
0.434971
0.438274
0.441547
0.444683
0.447553
0.449883
0.451567
0.451283
0.389929
0.391063
0.392207
0.393371
0.394595
0.395897
0.397276
0.398733
0.40027
0.401895
0.403614
0.405434
0.407359
0.409395
0.411547
0.41382
0.416217
0.418739
0.421387
0.424154
0.42703
0.429997
0.433023
0.43606
0.439039
0.441842
0.444344
0.446209
0.4475
0.446345
0.390103
0.391173
0.392259
0.393349
0.394487
0.395699
0.396984
0.398341
0.399772
0.401284
0.402883
0.404575
0.406365
0.408256
0.410255
0.412365
0.414588
0.416925
0.419374
0.421927
0.424574
0.427291
0.430046
0.432784
0.435433
0.437861
0.439946
0.441273
0.442041
0.439885
0.389882
0.390877
0.391894
0.392901
0.393946
0.395059
0.396241
0.397489
0.398803
0.40019
0.401658
0.403209
0.404849
0.406582
0.408411
0.41034
0.41237
0.414501
0.416729
0.419046
0.421436
0.423875
0.426325
0.428727
0.430999
0.432993
0.434586
0.435265
0.435359
0.431832
0.389459
0.390365
0.391298
0.392215
0.39316
0.394167
0.395236
0.396363
0.39755
0.398802
0.400126
0.401526
0.403007
0.40457
0.40622
0.407958
0.409784
0.411696
0.413688
0.41575
0.417863
0.419999
0.422115
0.424143
0.425992
0.42749
0.428512
0.428429
0.427744
0.422514
0.38899
0.389798
0.390637
0.391465
0.392318
0.393223
0.394182
0.395192
0.396254
0.397371
0.39855
0.399795
0.401109
0.402494
0.403955
0.405491
0.407101
0.408781
0.410523
0.412314
0.41413
0.41594
0.417692
0.419308
0.420687
0.421627
0.422001
0.421038
0.419485
0.412194
0.388579
0.389248
0.389951
0.390676
0.391429
0.39222
0.393054
0.393932
0.394856
0.39583
0.396863
0.397955
0.399109
0.400323
0.401601
0.40294
0.404339
0.40579
0.407284
0.408803
0.410321
0.411797
0.413175
0.414361
0.415243
0.415584
0.415252
0.413306
0.410837
0.401054
0.388531
0.389029
0.389567
0.390214
0.390901
0.391612
0.392362
0.393146
0.393947
0.394768
0.395632
0.39655
0.397524
0.398552
0.399632
0.400763
0.40194
0.403152
0.404386
0.405621
0.406824
0.407947
0.408923
0.409646
0.409985
0.409664
0.408548
0.405464
0.402108
0.389233
0.388359
0.38854
0.388876
0.389424
0.390015
0.390582
0.391141
0.391736
0.392406
0.393133
0.393895
0.394689
0.395521
0.396393
0.397305
0.398253
0.399232
0.40023
0.401232
0.402212
0.403133
0.403938
0.404549
0.404842
0.404667
0.403706
0.401834
0.397441
0.393614
0.376883
0.364646
0.352322
0.339377
0.326477
0.314321
0.303164
0.293385
0.285434
0.279958
0.277453
0.278611
0.283766
0.293308
0.307361
0.324023
0.33743
0.343308
0.342557
0.339539
0.338302
0.338097
0.337216
0.336011
0.33522
0.33546
0.335139
0.32936
0.316094
0.298404
0.283492
0.385744
0.375641
0.364498
0.353499
0.342949
0.333031
0.32416
0.316697
0.31092
0.306977
0.305954
0.308259
0.313337
0.321501
0.332522
0.342626
0.346429
0.342921
0.339977
0.339856
0.338414
0.337168
0.335901
0.334406
0.333104
0.330061
0.320263
0.302712
0.283963
0.271343
0.389627
0.380107
0.370115
0.360056
0.349803
0.340051
0.331244
0.323519
0.31712
0.312616
0.310677
0.311684
0.315347
0.321644
0.329755
0.337059
0.339908
0.339163
0.338756
0.339444
0.338733
0.337601
0.335552
0.332085
0.327385
0.320684
0.309173
0.293018
0.27891
0.271576
0.395995
0.388447
0.379745
0.370605
0.361534
0.352727
0.344246
0.336358
0.329565
0.324389
0.321316
0.320675
0.322405
0.32625
0.331399
0.336338
0.338978
0.338899
0.338003
0.337881
0.337297
0.336335
0.333891
0.327362
0.317773
0.308455
0.300387
0.292863
0.287528
0.285394
0.398744
0.392074
0.384376
0.376422
0.368325
0.36011
0.351981
0.344362
0.337649
0.332269
0.328636
0.327075
0.32763
0.330014
0.333537
0.336971
0.339035
0.339078
0.338231
0.337038
0.335449
0.333688
0.329194
0.320811
0.309582
0.300021
0.297469
0.302193
0.309608
0.313744
0.400547
0.394991
0.388435
0.381424
0.374081
0.366441
0.358725
0.351298
0.344545
0.338868
0.334668
0.332269
0.331764
0.33292
0.335157
0.337419
0.338864
0.338787
0.337785
0.336347
0.334145
0.330793
0.325088
0.316357
0.305981
0.299139
0.304457
0.31924
0.336589
0.342353
0.401385
0.396724
0.391083
0.384908
0.378313
0.371331
0.364133
0.357029
0.350387
0.344592
0.340027
0.337006
0.335651
0.335791
0.336935
0.338278
0.339019
0.338646
0.337421
0.335705
0.333242
0.32951
0.32349
0.316498
0.310409
0.309578
0.320155
0.339215
0.357828
0.363729
0.401635
0.397758
0.392955
0.38755
0.381636
0.375247
0.368525
0.361744
0.355252
0.349418
0.344603
0.341113
0.339093
0.338427
0.338706
0.339269
0.339415
0.338735
0.337303
0.335323
0.332654
0.329093
0.324666
0.320841
0.31869
0.32294
0.336629
0.355539
0.369572
0.373299
0.40148
0.398275
0.394206
0.389483
0.384187
0.378354
0.372102
0.365667
0.359364
0.353544
0.348554
0.344697
0.342135
0.340802
0.340361
0.340256
0.339897
0.338914
0.337285
0.335133
0.33245
0.329308
0.326162
0.324377
0.32515
0.331624
0.34469
0.360069
0.370204
0.369799
0.401061
0.398433
0.395001
0.390886
0.386153
0.380839
0.375038
0.368952
0.362864
0.357103
0.352005
0.347867
0.344866
0.342976
0.341927
0.341249
0.340436
0.339151
0.337328
0.335069
0.332466
0.329748
0.327496
0.326887
0.329095
0.335616
0.345692
0.355728
0.361098
0.35722
0.400472
0.398338
0.39546
0.391884
0.387663
0.382828
0.377455
0.371711
0.365851
0.360183
0.355027
0.350675
0.347319
0.344965
0.343399
0.342225
0.341005
0.339431
0.337428
0.335088
0.33257
0.330194
0.328571
0.328649
0.331213
0.336544
0.343245
0.348373
0.348791
0.342513
0.399778
0.398069
0.395672
0.392573
0.388814
0.384422
0.37945
0.374038
0.368412
0.362858
0.357683
0.353171
0.349524
0.346779
0.344769
0.343161
0.341573
0.33973
0.337556
0.335143
0.332687
0.330545
0.329282
0.329578
0.33179
0.335441
0.338964
0.340096
0.336125
0.327609
0.399026
0.397682
0.395704
0.393027
0.389686
0.385699
0.381103
0.376008
0.370618
0.365193
0.360027
0.355397
0.351511
0.348432
0.346037
0.344045
0.342123
0.340028
0.337686
0.33519
0.332754
0.330723
0.32956
0.329678
0.331034
0.33285
0.333501
0.331175
0.323599
0.31199
0.398247
0.397221
0.395606
0.393302
0.390338
0.386724
0.382476
0.377684
0.372525
0.367239
0.362103
0.357387
0.353305
0.349941
0.347208
0.344872
0.342645
0.340309
0.337797
0.335201
0.332728
0.330684
0.3294
0.329047
0.329303
0.329225
0.327252
0.321901
0.311497
0.296866
0.397465
0.396713
0.395416
0.393444
0.390819
0.387545
0.383621
0.379114
0.37418
0.369038
0.363947
0.359171
0.354927
0.351316
0.348284
0.345639
0.34313
0.340562
0.337877
0.335156
0.332587
0.330413
0.328833
0.327812
0.326838
0.324888
0.320543
0.312602
0.299842
0.283032
0.396694
0.396182
0.395162
0.393485
0.391167
0.388203
0.384579
0.380341
0.375623
0.370626
0.365591
0.360774
0.356394
0.352568
0.34927
0.346344
0.343571
0.34078
0.337913
0.33504
0.332318
0.329916
0.327906
0.326088
0.323825
0.320087
0.313624
0.303509
0.288853
0.270506
0.395946
0.395644
0.394867
0.39345
0.391411
0.388732
0.385385
0.381398
0.376887
0.372033
0.367061
0.362218
0.357723
0.353708
0.350171
0.346986
0.343966
0.340956
0.337899
0.334849
0.33192
0.329208
0.32667
0.323976
0.320419
0.315013
0.30669
0.294788
0.278713
0.25946
0.395226
0.39511
0.394546
0.393364
0.391576
0.389158
0.386066
0.382315
0.378
0.373285
0.368379
0.363521
0.358929
0.354744
0.35099
0.347567
0.344313
0.341087
0.337831
0.334578
0.331398
0.328311
0.325174
0.321565
0.316747
0.309812
0.29989
0.286571
0.269554
0.25014
0.39454
0.394587
0.394212
0.393241
0.391682
0.389502
0.386647
0.383114
0.378985
0.374404
0.369566
0.3647
0.360022
0.355686
0.351732
0.348087
0.344609
0.34117
0.337708
0.33423
0.330761
0.327249
0.323468
0.318932
0.312911
0.304597
0.29333
0.278948
0.26147
0.242562
0.393888
0.394081
0.393874
0.393093
0.391743
0.389783
0.387146
0.383817
0.379862
0.375409
0.370638
0.365768
0.361016
0.356541
0.352402
0.348548
0.344856
0.341207
0.337531
0.33381
0.33002
0.326048
0.321597
0.316144
0.308991
0.299452
0.287081
0.271943
0.254357
0.236056
0.393266
0.393594
0.393539
0.392932
0.391774
0.390015
0.38758
0.384441
0.380649
0.376316
0.37161
0.366739
0.361918
0.357315
0.353004
0.348952
0.345054
0.341196
0.3373
0.33332
0.329187
0.324728
0.319596
0.31325
0.305047
0.294432
0.281173
0.26554
0.248126
0.230657
0.392672
0.393124
0.39321
0.392765
0.391783
0.390211
0.387963
0.385001
0.38136
0.37714
0.372494
0.367622
0.362737
0.358013
0.35354
0.349302
0.345206
0.341142
0.337023
0.332772
0.328279
0.32332
0.317508
0.310302
0.30113
0.289578
0.275626
0.259719
0.242711
0.226268
0.392106
0.392668
0.392889
0.392597
0.391781
0.390381
0.388306
0.385508
0.382009
0.377893
0.373302
0.368429
0.363481
0.358642
0.354013
0.349594
0.345306
0.341038
0.336692
0.332162
0.327298
0.32183
0.315346
0.307319
0.297259
0.284896
0.270421
0.254419
0.237997
0.222665
0.391576
0.39223
0.392575
0.39243
0.391771
0.390533
0.388619
0.385975
0.382607
0.378585
0.374044
0.369166
0.364157
0.359209
0.354436
0.349848
0.345375
0.340909
0.336336
0.331525
0.326285
0.320307
0.313164
0.304355
0.29348
0.280418
0.265562
0.249602
0.233906
0.219736
0.391082
0.391818
0.392274
0.392266
0.391758
0.390672
0.388911
0.38641
0.383164
0.379228
0.374727
0.369837
0.36476
0.359697
0.354777
0.350022
0.345368
0.340705
0.335905
0.33081
0.325192
0.318709
0.310925
0.301372
0.289751
0.276089
0.26097
0.245164
0.230339
0.217306
0.390616
0.391432
0.391984
0.392109
0.391746
0.390806
0.389186
0.38682
0.383687
0.379832
0.375371
0.370476
0.365344
0.360178
0.355122
0.350213
0.34539
0.340538
0.335517
0.330138
0.324145
0.317159
0.308751
0.298482
0.286161
0.271967
0.256671
0.241105
0.227153
0.215187
0.390181
0.391064
0.3917
0.391953
0.391734
0.390937
0.389458
0.387218
0.384182
0.380381
0.375928
0.370983
0.365768
0.36049
0.355293
0.350225
0.345236
0.340204
0.334968
0.329313
0.322954
0.315477
0.306468
0.295541
0.28259
0.267961
0.252606
0.237443
0.224427
0.213459
0.389792
0.390711
0.391427
0.39181
0.391721
0.391056
0.389714
0.387609
0.384694
0.380991
0.376574
0.371598
0.366309
0.360932
0.355613
0.350403
0.345257
0.340047
0.334592
0.328648
0.32191
0.313918
0.304275
0.292654
0.279038
0.263942
0.248435
0.23346
0.221007
0.211453
0.389476
0.390365
0.39116
0.391691
0.391752
0.391213
0.389973
0.38794
0.385066
0.381369
0.376908
0.37186
0.366471
0.360983
0.355551
0.350229
0.344964
0.339617
0.333989
0.327813
0.320742
0.312363
0.30225
0.290132
0.276026
0.2607
0.245547
0.231166
0.219255
0.210336
0.389241
0.389981
0.390793
0.391434
0.391674
0.391344
0.390316
0.388489
0.385804
0.382219
0.377785
0.372682
0.367173
0.361522
0.355906
0.350391
0.344927
0.339368
0.333469
0.326923
0.319305
0.310261
0.299292
0.286188
0.271092
0.254976
0.239223
0.225516
0.214126
0.206077
0.0729515
0.0727054
0.0879595
0.106084
0.121277
0.138326
0.15489
0.169311
0.181836
0.192727
0.202042
0.209906
0.216477
0.221899
0.226314
0.229845
0.232604
0.234686
0.236177
0.237156
0.237697
0.237863
0.237734
0.237351
0.236833
0.236162
0.235635
0.234965
0.234826
0.232586
0.0733967
0.0786245
0.0893236
0.101465
0.115572
0.132027
0.14882
0.163772
0.176943
0.188503
0.198509
0.207054
0.214273
0.220305
0.225293
0.229365
0.232634
0.235192
0.237125
0.238506
0.239403
0.239869
0.23997
0.239735
0.23925
0.238485
0.237587
0.236387
0.235388
0.23389
0.0764724
0.0846682
0.0907302
0.0967523
0.106731
0.123181
0.139729
0.155709
0.169988
0.182477
0.193377
0.202832
0.210939
0.217805
0.223569
0.228365
0.232306
0.23549
0.237999
0.239907
0.241279
0.24217
0.242633
0.242704
0.242438
0.24185
0.241014
0.239896
0.238674
0.237338
0.0790635
0.0870965
0.0940983
0.0938917
0.0981861
0.11317
0.130668
0.148166
0.163735
0.177305
0.189181
0.199565
0.20855
0.21622
0.222703
0.228142
0.232665
0.236376
0.239367
0.241715
0.243487
0.244743
0.245536
0.24591
0.245909
0.245566
0.244924
0.243998
0.242801
0.241497
0.0775467
0.0879652
0.0976301
0.0919079
0.0885204
0.100916
0.119463
0.138697
0.156231
0.171333
0.184383
0.195788
0.205725
0.214279
0.221561
0.227713
0.232874
0.237163
0.240682
0.243519
0.245745
0.247422
0.248604
0.249335
0.249656
0.249599
0.249194
0.248481
0.247439
0.246301
0.0714599
0.0821727
0.0872814
0.0840255
0.0782938
0.0862117
0.104549
0.125255
0.145037
0.162543
0.17756
0.190428
0.201552
0.211188
0.219468
0.226526
0.232502
0.237522
0.241702
0.245144
0.247929
0.250126
0.251793
0.252976
0.253715
0.254045
0.25399
0.253598
0.252837
0.251965
0.0567339
0.0639129
0.0623813
0.0624167
0.0627093
0.0678608
0.0846292
0.106827
0.129454
0.149984
0.167845
0.182989
0.19583
0.20685
0.216316
0.22445
0.231411
0.237319
0.242299
0.246464
0.249908
0.252713
0.254946
0.256661
0.257904
0.258714
0.259114
0.259152
0.258793
0.258296
0.0351496
0.0382772
0.0330072
0.0323587
0.0376758
0.0451481
0.0593501
0.0820454
0.108435
0.13277
0.154262
0.172606
0.187996
0.200984
0.211933
0.221311
0.22939
0.236314
0.242223
0.247238
0.251458
0.254976
0.257868
0.2602
0.262026
0.263391
0.264325
0.264877
0.265016
0.264992
0.0133591
0.0153787
0.00947968
0.00609476
0.0098738
0.0192818
0.0329766
0.0536616
0.0807245
0.109531
0.135542
0.157798
0.176691
0.192619
0.20573
0.216773
0.226196
0.234269
0.241214
0.247181
0.252283
0.25662
0.260277
0.263327
0.265829
0.267837
0.269389
0.270538
0.271256
0.271793
-0.00271149
-0.000122126
-0.00554605
-0.0110127
-0.0114562
-0.00433798
0.00812936
0.0261083
0.0508318
0.0801974
0.109954
0.136849
0.16025
0.180098
0.196421
0.210009
0.221342
0.2309
0.239064
0.246078
0.252125
0.257338
0.261819
0.26565
0.268901
0.271631
0.273882
0.275713
0.277096
0.278278
-0.00964069
-0.00751851
-0.0129487
-0.0201048
-0.0235015
-0.0207306
-0.0116909
0.00291532
0.0236811
0.0502684
0.0802135
0.110472
0.138494
0.162547
0.182914
0.199975
0.214031
0.225709
0.235503
0.243796
0.250892
0.25701
0.262306
0.266898
0.270878
0.274319
0.277272
0.279806
0.281898
0.283782
-0.00763915
-0.00735224
-0.0131646
-0.0218301
-0.0273297
-0.0286197
-0.0237995
-0.0131247
0.00326665
0.0255646
0.0527761
0.0826097
0.112456
0.140274
0.164912
0.185867
0.203413
0.217972
0.230034
0.240085
0.248537
0.255715
0.261868
0.267187
0.271811
0.27585
0.279383
0.282491
0.285176
0.287638
0.0021572
-2.66095e-05
-0.00671553
-0.0161279
-0.0235898
-0.0278213
-0.0269291
-0.0204878
-0.00862152
0.00886405
0.0316787
0.0585859
0.0875971
0.116569
0.143747
0.168094
0.189183
0.207035
0.221958
0.234367
0.244691
0.253322
0.260594
0.266774
0.272076
0.276662
0.280658
0.284173
0.287252
0.29006
0.0185746
0.0139379
0.00629361
-0.00391478
-0.0128127
-0.0190517
-0.0212895
-0.0187538
-0.0111941
0.00161253
0.0196452
0.0422931
0.0682429
0.0957614
0.123136
0.148989
0.172425
0.193026
0.210735
0.225732
0.238321
0.248852
0.257666
0.265072
0.271332
0.276662
0.281233
0.28519
0.288623
0.291684
0.0403233
0.0337226
0.0251956
0.0143883
0.00440545
-0.00350205
-0.00819084
-0.00880316
-0.00491092
0.00373728
0.0172085
0.0352437
0.0570186
0.0812717
0.10658
0.131626
0.155372
0.177119
0.196508
0.21345
0.228038
0.240476
0.251022
0.259942
0.26749
0.273905
0.279384
0.284092
0.288132
0.291638
0.0660582
0.0582475
0.0488729
0.0376579
0.0270536
0.0180355
0.0115754
0.00843972
0.00916109
0.0141273
0.0234931
0.0370824
0.0543187
0.0742905
0.0959239
0.118127
0.139935
0.160637
0.179755
0.197028
0.212368
0.225814
0.237487
0.247562
0.256233
0.263685
0.270091
0.275641
0.280527
0.284787
0.0941587
0.0858791
0.0762041
0.0648988
0.0540254
0.0443958
0.0368484
0.0320131
0.030362
0.0322322
0.0377786
0.0469029
0.0592223
0.0741165
0.0908233
0.108535
0.1265
0.144104
0.160885
0.17653
0.190846
0.203733
0.215172
0.225222
0.23399
0.241618
0.248278
0.254129
0.259263
0.263985
0.123102
0.115094
0.105777
0.0949184
0.0842431
0.074447
0.0662793
0.0602537
0.0567437
0.055999
0.0581178
0.0630066
0.0703839
0.0798302
0.0908371
0.102863
0.115417
0.128041
0.140367
0.152118
0.163143
0.173353
0.182646
0.191002
0.198563
0.205521
0.21183
0.217173
0.221624
0.226915
0.151156
0.144309
0.136107
0.126402
0.116541
0.107182
0.0989439
0.0922442
0.087367
0.0844817
0.0835948
0.0844672
0.086759
0.0901786
0.0944505
0.0991624
0.104311
0.109604
0.114858
0.11994
0.124987
0.130239
0.135616
0.140775
0.145855
0.15156
0.157457
0.162093
0.16567