/*--------------------------------*- C++ -*----------------------------------*\
  =========                 |
  \\      /  F ield         | OpenFOAM: The Open Source CFD Toolbox
   \\    /   O peration     | Website:  https://openfoam.org
    \\  /    A nd           | Version:  11
     \\/     M anipulation  |
\*---------------------------------------------------------------------------*/
FoamFile
{
    format      ascii;
    class       volScalarField;
    location    "2.5";
    object      p;
}
// * * * * * * * * * * * * * * * * * * * * * * * * * * * * * * * * * * * * * //

dimensions      [0 2 -2 0 0 0 0];

internalField   nonuniform List<scalar> 
12600
(
0.646901
0.646765
0.646688
0.646649
0.646602
0.646539
0.64646
0.646367
0.646256
0.646123
0.645961
0.645765
0.645527
0.645238
0.644886
0.644455
0.643929
0.643283
0.642492
0.641525
0.640341
0.638886
0.637092
0.634875
0.632132
0.628726
0.624486
0.619193
0.612601
0.60429
0.646832
0.646758
0.646693
0.64665
0.646603
0.64654
0.646463
0.646372
0.646263
0.64613
0.645971
0.645777
0.645542
0.645256
0.644908
0.644484
0.643966
0.643328
0.642545
0.64159
0.640421
0.638983
0.637211
0.635021
0.632307
0.628938
0.624739
0.619498
0.612925
0.604681
0.646801
0.646763
0.646706
0.646658
0.64661
0.646549
0.646474
0.646384
0.646276
0.646147
0.64599
0.645801
0.64557
0.645291
0.644951
0.644536
0.644028
0.643405
0.642641
0.641708
0.640565
0.639159
0.637425
0.635281
0.632623
0.629321
0.625199
0.620052
0.613549
0.605447
0.646783
0.646758
0.64671
0.646662
0.646615
0.646558
0.646486
0.646398
0.646294
0.646168
0.646017
0.645833
0.645611
0.64534
0.645011
0.644609
0.644118
0.643517
0.642781
0.64188
0.640774
0.639415
0.637737
0.635662
0.633087
0.629884
0.62588
0.620871
0.61451
0.60659
0.646773
0.646756
0.646717
0.646673
0.646626
0.646571
0.646503
0.646419
0.646319
0.646199
0.646054
0.645878
0.645665
0.645406
0.645091
0.644707
0.644239
0.643665
0.642962
0.642102
0.641046
0.639747
0.638143
0.636158
0.633692
0.630621
0.626772
0.621949
0.615789
0.608117
0.64677
0.646757
0.646725
0.646685
0.646639
0.646587
0.646522
0.646443
0.646348
0.646234
0.646097
0.645931
0.645729
0.645485
0.645188
0.644826
0.644384
0.643844
0.643182
0.642372
0.641376
0.640151
0.638638
0.636763
0.634432
0.631524
0.627869
0.623278
0.61738
0.610021
0.646772
0.646761
0.646734
0.646698
0.646655
0.646606
0.646545
0.646472
0.646383
0.646276
0.646148
0.645993
0.645806
0.645579
0.645302
0.644966
0.644556
0.644054
0.64344
0.642688
0.641763
0.640625
0.639218
0.637473
0.635301
0.632585
0.629163
0.62485
0.619274
0.612294
0.646778
0.646768
0.646746
0.646713
0.646674
0.646628
0.646572
0.646504
0.646422
0.646324
0.646206
0.646064
0.645892
0.645684
0.645432
0.645124
0.64475
0.644292
0.643732
0.643045
0.642201
0.641161
0.639875
0.638279
0.636288
0.633793
0.630639
0.62665
0.621457
0.614928
0.646786
0.646778
0.646759
0.64673
0.646694
0.646652
0.646601
0.64654
0.646466
0.646377
0.646271
0.646143
0.645989
0.645802
0.645575
0.6453
0.644965
0.644556
0.644055
0.643441
0.642686
0.641756
0.640604
0.639173
0.637384
0.635137
0.632285
0.628664
0.623912
0.617907
0.646798
0.646791
0.646774
0.646749
0.646717
0.646679
0.646634
0.646579
0.646513
0.646435
0.646341
0.646228
0.646093
0.645929
0.645731
0.645491
0.645198
0.644842
0.644405
0.643871
0.643213
0.642402
0.641396
0.640144
0.638576
0.6366
0.634083
0.63087
0.626618
0.621209
0.646812
0.646806
0.646791
0.646769
0.646742
0.646708
0.646669
0.646621
0.646564
0.646496
0.646416
0.64632
0.646204
0.646066
0.645898
0.645695
0.645448
0.645148
0.64478
0.64433
0.643776
0.643091
0.642242
0.641182
0.639851
0.638168
0.636013
0.633245
0.629547
0.624804
0.646827
0.646823
0.64681
0.646792
0.646768
0.646739
0.646705
0.646665
0.646618
0.646561
0.646495
0.646416
0.646322
0.646209
0.646074
0.64591
0.645711
0.645469
0.645174
0.644813
0.644368
0.643817
0.643132
0.642276
0.641195
0.639822
0.638052
0.635761
0.632665
0.628653
0.646845
0.646841
0.646831
0.646815
0.646795
0.646771
0.646744
0.646711
0.646673
0.646629
0.646577
0.646516
0.646444
0.646359
0.646256
0.646133
0.645984
0.645804
0.645584
0.645315
0.644983
0.644571
0.644057
0.643412
0.642592
0.641542
0.640175
0.638386
0.635932
0.632707
0.646864
0.646861
0.646852
0.64684
0.646824
0.646805
0.646783
0.646759
0.646731
0.646699
0.646662
0.646619
0.64657
0.646512
0.646444
0.646363
0.646265
0.646148
0.646005
0.64583
0.645614
0.645345
0.645007
0.644577
0.644025
0.643307
0.642356
0.641086
0.639303
0.636905
0.646884
0.646881
0.646875
0.646865
0.646853
0.646839
0.646824
0.646807
0.646789
0.646769
0.646748
0.646724
0.646698
0.646668
0.646635
0.646596
0.646551
0.646497
0.646432
0.646353
0.646254
0.64613
0.645969
0.645758
0.645477
0.645095
0.644565
0.643824
0.642727
0.641182
0.646905
0.646903
0.646898
0.646891
0.646883
0.646874
0.646865
0.646856
0.646848
0.646841
0.646834
0.646829
0.646826
0.646825
0.646826
0.64683
0.646837
0.646847
0.646861
0.646878
0.646897
0.646917
0.646934
0.646941
0.64693
0.646884
0.646774
0.646561
0.64615
0.645464
0.646927
0.646925
0.646922
0.646917
0.646912
0.646908
0.646906
0.646905
0.646907
0.646912
0.64692
0.646934
0.646954
0.646981
0.647017
0.647063
0.647122
0.647196
0.647287
0.647399
0.647535
0.647698
0.64789
0.648113
0.648368
0.648652
0.648955
0.649257
0.649519
0.649676
0.646949
0.646948
0.646946
0.646943
0.646942
0.646943
0.646946
0.646953
0.646964
0.646981
0.647005
0.647037
0.64708
0.647134
0.647204
0.647292
0.647402
0.647538
0.647705
0.647911
0.648161
0.648463
0.648827
0.649261
0.649775
0.650377
0.651078
0.651877
0.65278
0.653742
0.646971
0.646971
0.64697
0.646969
0.646971
0.646976
0.646985
0.647
0.647021
0.647049
0.647088
0.647138
0.647202
0.647284
0.647386
0.647514
0.647674
0.64787
0.648112
0.648408
0.648768
0.649206
0.649735
0.650371
0.651133
0.65204
0.653118
0.654384
0.655885
0.657595
0.646994
0.646994
0.646994
0.646995
0.646999
0.647009
0.647024
0.647045
0.647075
0.647115
0.647167
0.647234
0.647319
0.647427
0.647561
0.647728
0.647935
0.648189
0.648502
0.648884
0.649351
0.649917
0.650604
0.651432
0.652428
0.653622
0.655051
0.656749
0.658792
0.661173
0.647017
0.647017
0.647017
0.64702
0.647027
0.64704
0.64706
0.647088
0.647126
0.647177
0.647242
0.647326
0.647431
0.647563
0.647727
0.647931
0.648183
0.648492
0.648872
0.649336
0.649902
0.65059
0.651424
0.652432
0.653647
0.655106
0.656856
0.658945
0.661467
0.664432
0.647039
0.647039
0.64704
0.647043
0.647052
0.647069
0.647094
0.647128
0.647175
0.647235
0.647313
0.647411
0.647535
0.64769
0.647883
0.648121
0.648414
0.648775
0.649217
0.649757
0.650416
0.651217
0.652189
0.653363
0.654778
0.656478
0.658517
0.660951
0.663886
0.667339
0.647062
0.647062
0.647061
0.647065
0.647076
0.647096
0.647126
0.647166
0.647219
0.647289
0.647378
0.64749
0.647631
0.647807
0.648025
0.648295
0.648627
0.649035
0.649534
0.650144
0.650888
0.651793
0.652889
0.654214
0.65581
0.657725
0.66002
0.662754
0.666034
0.669881
0.647085
0.647084
0.647082
0.647085
0.647098
0.647121
0.647154
0.647199
0.647259
0.647337
0.647436
0.647562
0.647718
0.647913
0.648155
0.648452
0.648819
0.649269
0.64982
0.650493
0.651314
0.652311
0.653519
0.654978
0.656734
0.658839
0.661355
0.664343
0.667905
0.672056
0.647109
0.647106
0.647101
0.647102
0.647117
0.647143
0.647179
0.647229
0.647294
0.647379
0.647488
0.647624
0.647794
0.648006
0.648268
0.648591
0.648988
0.649475
0.650072
0.6508
0.651688
0.652766
0.654072
0.655649
0.657543
0.659811
0.662514
0.665713
0.669501
0.673879
0.647134
0.647127
0.647117
0.647117
0.647134
0.647162
0.647202
0.647255
0.647325
0.647416
0.647533
0.647678
0.64786
0.648086
0.648365
0.64871
0.649133
0.649652
0.650287
0.651062
0.652007
0.653155
0.654545
0.656221
0.658232
0.660635
0.663494
0.666865
0.670829
0.675374
0.647162
0.647149
0.64713
0.647129
0.647147
0.647177
0.647219
0.647275
0.647349
0.647446
0.647568
0.647722
0.647913
0.648151
0.648444
0.648806
0.649251
0.649796
0.650462
0.651276
0.652268
0.653472
0.654931
0.656689
0.658794
0.661306
0.664289
0.667795
0.671903
0.676574
0.647194
0.647169
0.647141
0.64714
0.64716
0.647191
0.647234
0.647292
0.64737
0.64747
0.647597
0.647756
0.647955
0.648202
0.648506
0.648881
0.649342
0.649907
0.650598
0.651441
0.652468
0.653717
0.655231
0.657052
0.659229
0.661823
0.664901
0.66851
0.672734
0.677514
0.647234
0.647174
0.64714
0.647144
0.647166
0.647198
0.647242
0.647302
0.647382
0.647485
0.647616
0.647779
0.647983
0.648236
0.648548
0.648932
0.649404
0.649983
0.65069
0.651553
0.652605
0.653884
0.655438
0.657307
0.659535
0.662188
0.665333
0.669011
0.673314
0.678182
0.647311
0.647185
0.64714
0.647149
0.647172
0.647203
0.647247
0.647308
0.64739
0.647494
0.647627
0.647793
0.647999
0.648255
0.648572
0.648962
0.64944
0.650026
0.650744
0.65162
0.652687
0.653984
0.655556
0.657446
0.659703
0.66239
0.665569
0.669293
0.673607
0.678451
0.596747
0.593831
0.591388
0.589257
0.587001
0.584517
0.581873
0.579124
0.576273
0.573307
0.57021
0.566964
0.563542
0.559906
0.556008
0.551789
0.547175
0.542074
0.536371
0.529916
0.52252
0.513932
0.503826
0.491742
0.477141
0.458939
0.436888
0.404947
0.37878
0.298633
0.598187
0.595668
0.593409
0.591307
0.589092
0.586716
0.584255
0.58174
0.579152
0.576466
0.573661
0.570718
0.56761
0.5643
0.560746
0.556894
0.552679
0.548019
0.542811
0.536924
0.530189
0.522385
0.513225
0.502313
0.489165
0.472875
0.453149
0.425528
0.400228
0.332725
0.598721
0.596626
0.594716
0.592781
0.590742
0.588617
0.586439
0.584205
0.581892
0.579481
0.576959
0.57431
0.571509
0.568525
0.565321
0.561849
0.558053
0.553859
0.549178
0.543892
0.537857
0.53088
0.522711
0.513016
0.501366
0.487035
0.469664
0.445928
0.422648
0.366373
0.599918
0.59824
0.596682
0.594944
0.593081
0.591175
0.589236
0.587242
0.585176
0.583028
0.580785
0.57843
0.575942
0.573292
0.570447
0.567366
0.563998
0.560282
0.556138
0.551469
0.546146
0.540008
0.532842
0.524365
0.514207
0.501796
0.486718
0.466542
0.445778
0.399401
0.601563
0.600191
0.598904
0.597353
0.595676
0.593996
0.592306
0.590567
0.588762
0.586886
0.58493
0.582878
0.580709
0.5784
0.575923
0.573244
0.57032
0.567097
0.56351
0.559474
0.554883
0.549602
0.54345
0.536195
0.527522
0.516986
0.504149
0.487301
0.469279
0.431704
0.603635
0.602541
0.60152
0.60018
0.59871
0.597261
0.595816
0.594327
0.59278
0.591174
0.589504
0.587754
0.585908
0.583946
0.581846
0.579578
0.577106
0.574387
0.571366
0.567974
0.564122
0.559699
0.554558
0.548509
0.541289
0.532556
0.521881
0.508116
0.492863
0.463049
0.606132
0.6053
0.604533
0.603402
0.602138
0.600914
0.59971
0.598472
0.597184
0.595852
0.594471
0.593029
0.591512
0.589904
0.588186
0.586336
0.584324
0.582116
0.579667
0.576921
0.573808
0.570238
0.566092
0.56122
0.555405
0.548387
0.539771
0.528831
0.51627
0.493208
0.609055
0.608471
0.607947
0.607025
0.605969
0.604972
0.60401
0.603023
0.601996
0.600938
0.599848
0.598716
0.597529
0.596277
0.594945
0.593515
0.591965
0.590268
0.588389
0.586285
0.583901
0.581166
0.577986
0.574244
0.569766
0.56436
0.557671
0.549279
0.539262
0.521979
0.612397
0.612049
0.611756
0.611041
0.610194
0.609422
0.6087
0.607961
0.607194
0.60641
0.605611
0.604788
0.603933
0.603036
0.602089
0.601078
0.599987
0.598796
0.597478
0.596002
0.594326
0.592396
0.59014
0.587469
0.584245
0.580328
0.575413
0.569282
0.561612
0.549188
0.616144
0.616016
0.61594
0.61543
0.614793
0.614244
0.613757
0.613265
0.612756
0.612244
0.611733
0.611217
0.610689
0.610144
0.609576
0.608977
0.608335
0.607636
0.606863
0.605992
0.604994
0.603828
0.602441
0.600767
0.598697
0.596134
0.592813
0.588653
0.583103
0.574672
0.620267
0.620345
0.620471
0.620162
0.619732
0.619403
0.619146
0.618896
0.61864
0.618394
0.618166
0.617949
0.617741
0.617539
0.61734
0.617139
0.61693
0.616704
0.61645
0.616153
0.615792
0.615338
0.614754
0.613991
0.612963
0.611607
0.609688
0.607213
0.603528
0.598274
0.624725
0.624992
0.625301
0.625187
0.624963
0.624847
0.624814
0.624797
0.624786
0.624799
0.624843
0.624916
0.625016
0.625143
0.625296
0.625475
0.625676
0.625896
0.626128
0.626364
0.62659
0.626788
0.626931
0.626984
0.62688
0.626578
0.625868
0.624817
0.622727
0.619884
0.629461
0.629897
0.630372
0.630445
0.63042
0.63051
0.63069
0.630896
0.631119
0.631379
0.631682
0.63203
0.632421
0.632857
0.633342
0.633875
0.634457
0.635088
0.635766
0.636487
0.637244
0.638026
0.638813
0.639581
0.64028
0.64088
0.641195
0.641344
0.640586
0.639517
0.634403
0.634988
0.635607
0.635857
0.636024
0.636309
0.636688
0.637104
0.637547
0.638037
0.638583
0.639186
0.639847
0.64057
0.641358
0.642215
0.643144
0.644146
0.645224
0.646377
0.647602
0.648893
0.650238
0.651618
0.652995
0.654345
0.655511
0.656637
0.656945
0.657279
0.639462
0.640176
0.640919
0.641332
0.641681
0.642147
0.642711
0.643319
0.643965
0.644666
0.645434
0.646269
0.647175
0.648155
0.649216
0.650362
0.651598
0.652927
0.654355
0.655882
0.657509
0.659233
0.661046
0.662934
0.664866
0.666822
0.668664
0.670531
0.671626
0.673134
0.644541
0.645363
0.646208
0.646771
0.647288
0.647919
0.648649
0.64943
0.650258
0.651149
0.652114
0.653155
0.654277
0.655484
0.656783
0.658179
0.65968
0.661289
0.663013
0.664854
0.666816
0.668896
0.671089
0.673384
0.675755
0.678178
0.680541
0.682947
0.684649
0.686951
0.649537
0.650447
0.651374
0.65207
0.652739
0.653518
0.654393
0.655325
0.656312
0.657368
0.658504
0.659723
0.661029
0.662429
0.663929
0.665536
0.667257
0.669097
0.671063
0.673159
0.675387
0.677748
0.680237
0.682843
0.685542
0.688307
0.691045
0.693814
0.695959
0.698798
0.654347
0.655325
0.656317
0.657128
0.65793
0.658836
0.659835
0.660897
0.662018
0.663213
0.664492
0.665858
0.667317
0.668875
0.670538
0.672315
0.674211
0.676233
0.678388
0.680679
0.683111
0.685681
0.688386
0.691213
0.694138
0.697131
0.700109
0.703078
0.705519
0.708634
0.658876
0.659906
0.660944
0.661852
0.662768
0.663781
0.664882
0.666049
0.66728
0.668587
0.66998
0.671463
0.673042
0.674723
0.676512
0.678418
0.680446
0.682604
0.684897
0.687329
0.689902
0.692616
0.695464
0.698433
0.701496
0.704616
0.707715
0.710754
0.713351
0.716385
0.663042
0.664111
0.665182
0.666167
0.667177
0.668275
0.669457
0.670705
0.67202
0.673414
0.674893
0.676464
0.678131
0.6799
0.68178
0.683777
0.685896
0.688145
0.690529
0.693051
0.695712
0.698511
0.701439
0.704479
0.707604
0.710769
0.713898
0.716915
0.719534
0.722201
0.666787
0.667881
0.668973
0.670019
0.671101
0.672265
0.673506
0.674813
0.676189
0.677643
0.679182
0.680811
0.682536
0.684364
0.6863
0.688352
0.690525
0.692826
0.695257
0.697823
0.700524
0.703355
0.706307
0.70936
0.712484
0.715628
0.718715
0.721645
0.724191
0.726449
0.670072
0.671183
0.672287
0.673375
0.674511
0.67572
0.677
0.678345
0.679759
0.68125
0.682824
0.684486
0.686242
0.688098
0.69006
0.692135
0.694327
0.696642
0.699083
0.701653
0.704349
0.707167
0.710094
0.71311
0.716178
0.719245
0.722227
0.725006
0.727383
0.729252
0.672886
0.674007
0.675114
0.676231
0.677401
0.678639
0.67994
0.681304
0.682735
0.684241
0.685827
0.687499
0.689261
0.691119
0.69308
0.695148
0.697329
0.699627
0.702044
0.704582
0.707237
0.710002
0.712863
0.715794
0.718758
0.721693
0.724513
0.727077
0.729203
0.730611
0.67524
0.676364
0.677471
0.678602
0.67979
0.68104
0.682347
0.683713
0.685145
0.686648
0.688228
0.689889
0.691637
0.693477
0.695414
0.697453
0.699599
0.701853
0.704218
0.706693
0.709275
0.711952
0.714708
0.717514
0.720327
0.723076
0.725671
0.727949
0.729732
0.730638
0.677166
0.67829
0.679391
0.680524
0.681714
0.68296
0.684259
0.685613
0.68703
0.688514
0.690071
0.691705
0.69342
0.695223
0.697116
0.699105
0.701191
0.703378
0.705666
0.708052
0.71053
0.71309
0.71571
0.718359
0.720984
0.723507
0.725826
0.727759
0.729151
0.729446
0.678716
0.679842
0.680931
0.682052
0.68323
0.68446
0.685735
0.687061
0.688444
0.68989
0.691404
0.69299
0.694653
0.696396
0.698223
0.700138
0.702144
0.704241
0.706429
0.708704
0.711057
0.713474
0.71593
0.71839
0.720799
0.723067
0.72508
0.72662
0.72758
0.727007
0.679965
0.681088
0.682148
0.68324
0.684398
0.685609
0.686864
0.688165
0.689521
0.690938
0.692419
0.693968
0.695586
0.697278
0.699044
0.700885
0.702801
0.704791
0.706853
0.708982
0.711171
0.713405
0.715656
0.717879
0.720016
0.721966
0.723614
0.724685
0.72521
0.723587
0.681056
0.682144
0.683122
0.684151
0.685256
0.686404
0.687587
0.688817
0.690102
0.691448
0.692858
0.694334
0.695877
0.697491
0.69918
0.700944
0.70278
0.70468
0.706646
0.708646
0.710674
0.712722
0.714764
0.716753
0.718618
0.72024
0.721508
0.722072
0.722164
0.719501
0.682174
0.683101
0.683913
0.684927
0.686063
0.687218
0.688385
0.689584
0.69083
0.692133
0.693495
0.694913
0.696386
0.697913
0.69949
0.701119
0.7028
0.704534
0.706326
0.70817
0.710032
0.711875
0.71366
0.715349
0.716875
0.718105
0.718937
0.718913
0.718562
0.714519
0.68352
0.683953
0.684317
0.685069
0.686055
0.687135
0.688238
0.689387
0.690604
0.691892
0.69324
0.694647
0.696109
0.697617
0.699162
0.700731
0.702295
0.703869
0.705457
0.707084
0.708733
0.710376
0.711956
0.713399
0.714627
0.715486
0.715897
0.715179
0.714538
0.708603
0.702156
0.695316
0.687603
0.679214
0.670461
0.661236
0.651497
0.641362
0.63121
0.621392
0.612663
0.604704
0.597883
0.593545
0.592115
0.592504
0.593061
0.593464
0.595097
0.594814
0.592289
0.589281
0.586369
0.584795
0.578892
0.562996
0.546156
0.541619
0.553584
0.569609
0.710479
0.704956
0.698253
0.690834
0.682815
0.674178
0.664967
0.655011
0.644534
0.633586
0.622922
0.612751
0.603008
0.595697
0.592605
0.592664
0.593222
0.593585
0.59521
0.594485
0.591219
0.587678
0.585788
0.582966
0.571853
0.550117
0.53211
0.529187
0.539051
0.55604
0.711213
0.70615
0.700259
0.693836
0.686287
0.677776
0.668474
0.6585
0.648035
0.637256
0.62636
0.615964
0.605884
0.597814
0.593852
0.593173
0.593365
0.593714
0.595461
0.594363
0.589925
0.586992
0.586074
0.580371
0.56005
0.53042
0.510789
0.509157
0.523504
0.546061
0.712958
0.709279
0.704674
0.698765
0.691835
0.683961
0.67496
0.66499
0.654146
0.642714
0.631116
0.619949
0.609368
0.600581
0.595684
0.594142
0.593826
0.593996
0.595781
0.594115
0.588953
0.587337
0.586871
0.575543
0.544113
0.510349
0.494617
0.499741
0.520787
0.548428
0.713109
0.710191
0.706331
0.701413
0.695416
0.688283
0.679919
0.670352
0.659663
0.648092
0.636062
0.6242
0.612951
0.603434
0.597594
0.595279
0.594514
0.594489
0.596025
0.593303
0.588157
0.588071
0.586066
0.566243
0.527743
0.496775
0.488931
0.503432
0.532675
0.565288
0.712785
0.710751
0.707838
0.703739
0.698385
0.691838
0.683978
0.674736
0.664196
0.65258
0.640265
0.627888
0.616059
0.605879
0.599227
0.596281
0.595171
0.594856
0.595657
0.592035
0.587361
0.587678
0.582313
0.554374
0.514556
0.490617
0.493177
0.518064
0.555387
0.590431
0.712002
0.710729
0.70859
0.705198
0.700603
0.694766
0.687517
0.678707
0.668372
0.656725
0.644143
0.631286
0.618892
0.608082
0.600696
0.597127
0.595664
0.594995
0.594867
0.590728
0.586585
0.585374
0.575776
0.542578
0.505851
0.491864
0.505763
0.541614
0.585371
0.616971
0.710945
0.710351
0.708922
0.706219
0.702309
0.697153
0.690535
0.682236
0.672219
0.660648
0.647883
0.634591
0.62163
0.610187
0.60209
0.5979
0.596021
0.59496
0.593978
0.58958
0.585432
0.581684
0.56679
0.532569
0.502593
0.499732
0.525089
0.570633
0.616339
0.640396
0.709713
0.709706
0.708899
0.706818
0.703556
0.699061
0.693071
0.68531
0.675675
0.66427
0.651414
0.637764
0.624268
0.6122
0.603409
0.598608
0.596297
0.594834
0.593082
0.588553
0.583632
0.576742
0.557462
0.525265
0.503922
0.512443
0.549401
0.601949
0.643062
0.657153
0.708384
0.708876
0.708612
0.7071
0.704445
0.700581
0.695206
0.687995
0.678779
0.667597
0.654718
0.640778
0.626786
0.614113
0.604649
0.599249
0.596498
0.594631
0.592324
0.587452
0.581147
0.571235
0.549663
0.521246
0.509619
0.529524
0.577428
0.631144
0.662389
0.66508
0.706994
0.707914
0.708128
0.707131
0.705041
0.701773
0.696995
0.690341
0.681577
0.670667
0.657822
0.643646
0.629196
0.615937
0.605821
0.599835
0.596632
0.594378
0.591529
0.586031
0.578359
0.566185
0.544565
0.521434
0.520478
0.551458
0.606663
0.653055
0.67249
0.663118
0.705569
0.706864
0.7075
0.706968
0.705399
0.70269
0.698485
0.692386
0.684096
0.673501
0.660743
0.646384
0.63151
0.617682
0.606931
0.600371
0.596726
0.594078
0.590643
0.584477
0.575667
0.562336
0.542479
0.526706
0.53673
0.576268
0.630785
0.665745
0.67248
0.653871
0.704125
0.705756
0.706766
0.706651
0.705564
0.703376
0.699716
0.694163
0.68636
0.676114
0.66349
0.648995
0.633731
0.619352
0.607981
0.600859
0.596789
0.593728
0.589713
0.582926
0.573265
0.559896
0.5433
0.536289
0.554978
0.600098
0.646676
0.669783
0.665802
0.638101
0.702667
0.704608
0.705951
0.706213
0.705571
0.703871
0.700728
0.695703
0.688392
0.678522
0.666072
0.651484
0.635863
0.620949
0.608972
0.601301
0.596815
0.593336
0.588772
0.581415
0.571257
0.558619
0.546579
0.548143
0.572508
0.618256
0.655087
0.667652
0.655159
0.617805
0.701201
0.703429
0.705074
0.705678
0.705446
0.704203
0.701554
0.697037
0.690215
0.68074
0.668499
0.653859
0.637911
0.622477
0.609906
0.601699
0.596803
0.592914
0.587836
0.579994
0.569697
0.558362
0.551284
0.559549
0.588506
0.630798
0.65871
0.661715
0.642107
0.593429
0.699748
0.702216
0.704139
0.705065
0.705212
0.704402
0.702218
0.698191
0.691851
0.682783
0.670781
0.656124
0.639879
0.623941
0.610786
0.602056
0.596759
0.592473
0.586919
0.578708
0.568582
0.559079
0.556628
0.570001
0.601878
0.639108
0.658852
0.652929
0.626173
0.563528
0.698317
0.700971
0.703153
0.704387
0.704885
0.704483
0.702742
0.699185
0.693319
0.684667
0.672928
0.658287
0.641771
0.625342
0.611613
0.602373
0.596686
0.592018
0.586035
0.577587
0.567912
0.56055
0.562307
0.579556
0.612579
0.644512
0.656018
0.641265
0.6063
0.527919
0.696903
0.699712
0.702124
0.703651
0.704478
0.704459
0.703143
0.70004
0.694637
0.686403
0.674948
0.660353
0.643591
0.626684
0.61239
0.602652
0.596589
0.591556
0.585195
0.576645
0.567666
0.562592
0.568075
0.588515
0.620804
0.647121
0.650445
0.626799
0.582232
0.491013
0.695516
0.69845
0.701059
0.702858
0.704003
0.704346
0.703439
0.700772
0.695819
0.688005
0.67685
0.662326
0.645342
0.62797
0.613117
0.602895
0.59647
0.591092
0.584409
0.575883
0.5678
0.56503
0.573694
0.596492
0.626996
0.6474
0.642405
0.609736
0.55388
0.453322
0.694164
0.697191
0.699967
0.702017
0.703463
0.704152
0.70364
0.701395
0.696881
0.689484
0.678642
0.664213
0.647028
0.6292
0.613797
0.603103
0.596331
0.59063
0.583684
0.575302
0.568249
0.567722
0.579119
0.603369
0.631415
0.645619
0.632037
0.590203
0.522095
0.416015
0.692853
0.695941
0.698858
0.701132
0.702866
0.703885
0.703754
0.701923
0.697834
0.69085
0.680332
0.666017
0.648651
0.630378
0.614431
0.603278
0.596176
0.590173
0.583022
0.574888
0.568946
0.570547
0.584344
0.609185
0.634221
0.641891
0.619388
0.568085
0.48897
0.380228
0.691594
0.694709
0.697737
0.700208
0.702214
0.703555
0.703791
0.702365
0.698691
0.692114
0.681927
0.667745
0.650216
0.631505
0.615019
0.603421
0.596005
0.589726
0.582425
0.574625
0.56983
0.573413
0.589205
0.614044
0.635622
0.636251
0.604566
0.54366
0.455217
0.346208
0.690399
0.693504
0.696612
0.699251
0.701506
0.703164
0.70376
0.702725
0.69946
0.693288
0.683437
0.669402
0.651725
0.632584
0.615564
0.603533
0.595821
0.589289
0.581889
0.574494
0.570847
0.576257
0.593687
0.618024
0.635706
0.62879
0.587674
0.517117
0.421557
0.314753
0.689276
0.692339
0.695491
0.69827
0.700748
0.702712
0.703663
0.703012
0.700146
0.694371
0.68486
0.670989
0.65318
0.633615
0.616066
0.603616
0.595627
0.588866
0.581417
0.574475
0.571952
0.579052
0.597808
0.62122
0.634485
0.619521
0.568718
0.488823
0.388826
0.287145
0.688234
0.691233
0.694385
0.697264
0.69995
0.702203
0.703501
0.70324
0.700779
0.695394
0.686219
0.672516
0.654586
0.634599
0.616525
0.603669
0.595418
0.588448
0.580998
0.574525
0.573027
0.581783
0.601584
0.623687
0.631972
0.608429
0.547758
0.459406
0.357787
0.263551
0.687294
0.690198
0.693305
0.696224
0.699099
0.701663
0.703234
0.703346
0.701301
0.696322
0.687498
0.673981
0.655945
0.635542
0.61695
0.603709
0.595219
0.588066
0.580655
0.57466
0.574125
0.58442
0.605068
0.625475
0.628113
0.595486
0.524865
0.429416
0.328845
0.24393
0.686447
0.689235
0.692286
0.695167
0.698149
0.701107
0.703134
0.703525
0.701821
0.697218
0.688728
0.675391
0.657247
0.636425
0.617296
0.603662
0.594946
0.587641
0.580304
0.574785
0.575269
0.586925
0.608143
0.626501
0.622919
0.580818
0.500623
0.400107
0.303325
0.229799
0.685687
0.688351
0.691388
0.694252
0.697125
0.700136
0.702552
0.703462
0.702208
0.698017
0.689892
0.676788
0.658569
0.637383
0.617769
0.60375
0.59478
0.587306
0.580051
0.574926
0.576363
0.589649
0.611167
0.626807
0.616043
0.563759
0.474137
0.370342
0.281152
0.221962
0.685044
0.687457
0.690505
0.693538
0.696664
0.699876
0.702473
0.703574
0.702637
0.698774
0.690875
0.677887
0.659497
0.637894
0.617831
0.603543
0.594477
0.586939
0.579808
0.575134
0.57726
0.591387
0.613661
0.626376
0.608475
0.546829
0.450205
0.347558
0.266709
0.221289
0.684492
0.686373
0.688996
0.691918
0.695056
0.698602
0.701669
0.703388
0.702987
0.699733
0.692394
0.679802
0.661353
0.639251
0.618457
0.603534
0.594121
0.586397
0.579361
0.575314
0.579467
0.595449
0.616522
0.624673
0.595475
0.519048
0.41201
0.306831
0.238742
0.216994
0.215935
0.219845
0.263392
0.297982
0.272917
0.227753
0.215481
0.222456
0.234541
0.251761
0.2714
0.291202
0.310197
0.327994
0.344389
0.359309
0.372799
0.384957
0.395899
0.405747
0.414617
0.422624
0.429871
0.436452
0.442511
0.448302
0.454315
0.460919
0.468189
0.46354
0.212283
0.214446
0.250117
0.280688
0.267546
0.214358
0.187998
0.19351
0.207324
0.227166
0.249888
0.272497
0.293781
0.313436
0.3314
0.34767
0.362316
0.375467
0.38727
0.397868
0.407392
0.415956
0.423668
0.430613
0.436866
0.442453
0.447475
0.451387
0.456211
0.457668
0.212579
0.219197
0.220208
0.227369
0.223067
0.190402
0.156291
0.154265
0.17205
0.193843
0.21969
0.246249
0.27098
0.293403
0.313728
0.332072
0.348527
0.363248
0.376425
0.388237
0.398836
0.408356
0.416914
0.424603
0.431508
0.437633
0.443167
0.447814
0.452701
0.457554
0.196751
0.208016
0.17004
0.150553
0.144054
0.131207
0.109674
0.104293
0.124133
0.154215
0.185058
0.217089
0.247121
0.273761
0.297389
0.318465
0.337213
0.353842
0.368609
0.381764
0.393515
0.404038
0.413486
0.421988
0.429673
0.436607
0.44296
0.448665
0.453825
0.458626
0.143553
0.16364
0.107176
0.0728994
0.0610959
0.0522749
0.0429725
0.042061
0.0627267
0.0995522
0.140245
0.179902
0.217242
0.249889
0.277966
0.302464
0.323994
0.342898
0.359515
0.374186
0.387195
0.398776
0.409125
0.418405
0.426761
0.434289
0.441093
0.447238
0.45268
0.45766
0.0616825
0.0945909
0.0413447
0.00379229
-0.014307
-0.0259226
-0.0320261
-0.0283909
-0.00864526
0.0304763
0.0799433
0.129478
0.176286
0.217469
0.252061
0.281294
0.30645
0.32825
0.347209
0.363786
0.378365
0.391249
0.402689
0.412891
0.422027
0.430235
0.437621
0.444311
0.450312
0.455887
-0.0311325
0.0152556
-0.0241008
-0.0593821
-0.0823372
-0.0973506
-0.104435
-0.099842
-0.0814683
-0.0457395
0.00641072
0.0657362
0.122693
0.174307
0.218069
0.254303
0.284582
0.310244
0.332215
0.351195
0.367726
0.38222
0.395003
0.406339
0.416446
0.425504
0.433647
0.441019
0.447638
0.453789
-0.116311
-0.060032
-0.084857
-0.116142
-0.141613
-0.160228
-0.169663
-0.166742
-0.150477
-0.11951
-0.0712528
-0.00919328
0.057449
0.119915
0.174449
0.220046
0.257562
0.288571
0.314525
0.336548
0.355464
0.371874
0.386226
0.398866
0.410069
0.420061
0.429013
0.437093
0.444337
0.451068
-0.182169
-0.12209
-0.136582
-0.163376
-0.189532
-0.210952
-0.223265
-0.224043
-0.211496
-0.185599
-0.144063
-0.0858102
-0.0164353
0.0546698
0.120311
0.176858
0.223689
0.261937
0.293295
0.319323
0.341251
0.359982
0.376168
0.390289
0.402708
0.413712
0.42352
0.432342
0.44024
0.447577
-0.222478
-0.165805
-0.174303
-0.197765
-0.223961
-0.247172
-0.262187
-0.267214
-0.259974
-0.239988
-0.206047
-0.155652
-0.0899659
-0.0158239
0.0580188
0.125053
0.182251
0.229382
0.267729
0.29902
0.324852
0.346496
0.364894
0.380735
0.39452
0.40663
0.41735
0.426938
0.435491
0.443411
-0.23389
-0.1885
-0.193313
-0.216235
-0.24317
-0.268173
-0.285964
-0.294744
-0.293056
-0.279412
-0.253099
-0.211748
-0.153875
-0.0827667
-0.00599915
0.0684324
0.135051
0.191462
0.237823
0.275515
0.306229
0.331511
0.352615
0.370492
0.385833
0.399153
0.410829
0.421187
0.43037
0.438814
-0.215038
-0.186998
-0.192155
-0.216088
-0.245314
-0.273064
-0.29415
-0.30684
-0.310224
-0.302585
-0.283302
-0.250555
-0.201865
-0.137734
-0.0633129
0.0137319
0.0868338
0.151203
0.205326
0.24978
0.285968
0.315458
0.33972
0.359953
0.377051
0.391691
0.404369
0.415493
0.425272
0.43417
-0.170281
-0.158634
-0.168401
-0.195836
-0.229016
-0.260857
-0.286089
-0.303073
-0.311142
-0.309287
-0.296336
-0.271011
-0.230896
-0.17504
-0.106282
-0.0309119
0.0436802
0.113302
0.173462
0.223975
0.265519
0.299333
0.326952
0.349731
0.368728
0.38477
0.398482
0.410365
0.420703
0.429982
-0.104822
-0.105453
-0.121566
-0.153928
-0.191989
-0.229473
-0.260649
-0.282945
-0.295508
-0.298858
-0.291741
-0.272756
-0.239896
-0.191911
-0.130096
-0.0588735
0.0148265
0.085148
0.147739
0.202022
0.247592
0.285006
0.315626
0.340792
0.361617
0.379026
0.393743
0.406344
0.417197
0.426782
-0.0235065
-0.0331306
-0.0544917
-0.0910496
-0.133478
-0.176594
-0.21443
-0.243509
-0.26223
-0.270925
-0.268985
-0.255181
-0.228214
-0.187133
-0.132433
-0.0673893
0.00240325
0.0699576
0.132444
0.187859
0.235255
0.274758
0.307405
0.334331
0.35659
0.375121
0.390686
0.4039
0.415194
0.425013
0.0661312
0.0497952
0.0262737
-0.0114374
-0.0556884
-0.102323
-0.145557
-0.181236
-0.206811
-0.221656
-0.225544
-0.21737
-0.196007
-0.160805
-0.112602
-0.0546468
0.0077169
0.0697966
0.129307
0.183444
0.230399
0.270187
0.303503
0.331216
0.35425
0.373466
0.389597
0.403246
0.414875
0.424864
0.154386
0.13567
0.112785
0.0774119
0.0351986
-0.0110765
-0.056269
-0.096027
-0.127068
-0.147773
-0.157478
-0.155142
-0.14005
-0.111886
-0.0715984
-0.0222613
0.0315015
0.0861929
0.139674
0.189358
0.233399
0.27151
0.303986
0.331408
0.354464
0.37386
0.390238
0.404144
0.416024
0.426173
0.23528
0.216908
0.196751
0.166386
0.129818
0.0882104
0.0454527
0.00552161
-0.0279481
-0.0525721
-0.0671372
-0.0706025
-0.0624074
-0.0425599
-0.0121599
0.0262563
0.0693742
0.114703
0.16004
0.202891
0.241956
0.276694
0.307053
0.333297
0.355787
0.375013
0.39146
0.405567
0.417749
0.428216
0.305387
0.288679
0.271971
0.247279
0.217992
0.184044
0.147715
0.111601
0.0788148
0.0526206
0.0343637
0.0249063
0.0257262
0.0364114
0.0557181
0.0821177
0.11352
0.148071
0.183784
0.218746
0.251745
0.282069
0.309389
0.333704
0.355202
0.374103