/*--------------------------------*- C++ -*----------------------------------*\
  =========                 |
  \\      /  F ield         | OpenFOAM: The Open Source CFD Toolbox
   \\    /   O peration     | Website:  https://openfoam.org
    \\  /    A nd           | Version:  11
     \\/     M anipulation  |
\*---------------------------------------------------------------------------*/
FoamFile
{
    format      ascii;
    class       volVectorField;
    location    "2.5";
    object      U;
}
// * * * * * * * * * * * * * * * * * * * * * * * * * * * * * * * * * * * * * //

dimensions      [0 1 -1 0 0 0 0];

internalField   nonuniform List<vector> 
12600
(
(0.399658 0.000101514 0)
(0.399412 0.00017341 0)
(0.399045 0.000176542 0)
(0.398641 0.000172903 0)
(0.398268 0.000170357 0)
(0.397935 0.000165756 0)
(0.397639 0.000158185 0)
(0.397382 0.000147683 0)
(0.397176 0.000134459 0)
(0.397031 0.000118553 0)
(0.396961 0.000100626 0)
(0.396982 7.56514e-05 0)
(0.397112 4.03045e-05 0)
(0.39738 -3.59075e-06 0)
(0.397815 -5.62383e-05 0)
(0.398458 -0.000115189 0)
(0.399355 -0.000190166 0)
(0.400565 -0.000283103 0)
(0.402153 -0.000396687 0)
(0.404202 -0.000534714 0)
(0.406816 -0.000702948 0)
(0.410131 -0.000908889 0)
(0.414306 -0.00116236 0)
(0.419535 -0.00147387 0)
(0.426052 -0.00185417 0)
(0.434099 -0.00231076 0)
(0.44403 -0.00287812 0)
(0.456205 -0.0034695 0)
(0.470968 -0.00457213 0)
(0.491713 -0.00393406 0)
(0.400037 0.00014619 0)
(0.400183 0.000248244 0)
(0.400368 0.000218749 0)
(0.400491 0.00019317 0)
(0.400626 0.000171765 0)
(0.400796 0.000146769 0)
(0.401003 0.000117235 0)
(0.401246 8.32873e-05 0)
(0.401535 4.08133e-05 0)
(0.40188 -1.04275e-05 0)
(0.402292 -7.29759e-05 0)
(0.402785 -0.000148856 0)
(0.403374 -0.000240061 0)
(0.404082 -0.000350649 0)
(0.404926 -0.000486179 0)
(0.405952 -0.000653704 0)
(0.407163 -0.000860201 0)
(0.408641 -0.00111499 0)
(0.410426 -0.00142877 0)
(0.412663 -0.00181417 0)
(0.415405 -0.0022876 0)
(0.418764 -0.00286842 0)
(0.422879 -0.00357837 0)
(0.427914 -0.00444401 0)
(0.434071 -0.00549432 0)
(0.441607 -0.00676574 0)
(0.450814 -0.00831557 0)
(0.462089 -0.0100949 0)
(0.475754 -0.0126231 0)
(0.492691 -0.0133955 0)
(0.400024 7.18835e-05 0)
(0.400114 0.00011429 0)
(0.400238 8.69676e-05 0)
(0.400359 5.66659e-05 0)
(0.400488 3.04371e-05 0)
(0.400645 -3.48294e-06 0)
(0.400837 -5.11359e-05 0)
(0.401067 -0.000109507 0)
(0.401342 -0.000177588 0)
(0.401671 -0.000258475 0)
(0.402065 -0.000355904 0)
(0.402537 -0.000474034 0)
(0.403105 -0.000618215 0)
(0.403789 -0.000794198 0)
(0.404616 -0.00101013 0)
(0.405617 -0.00127256 0)
(0.406836 -0.00159327 0)
(0.40832 -0.00199062 0)
(0.410126 -0.0024833 0)
(0.412322 -0.00309292 0)
(0.414998 -0.00384381 0)
(0.418264 -0.00476386 0)
(0.422257 -0.00588655 0)
(0.427148 -0.00725558 0)
(0.433137 -0.00892449 0)
(0.440485 -0.0109547 0)
(0.449446 -0.013432 0)
(0.460548 -0.0163417 0)
(0.473709 -0.0201954 0)
(0.491297 -0.022902 0)
(0.400016 3.81401e-05 0)
(0.40008 7.73147e-05 0)
(0.400189 6.6841e-05 0)
(0.400305 3.48888e-05 0)
(0.400429 -2.91539e-06 0)
(0.400578 -5.1745e-05 0)
(0.400762 -0.000114735 0)
(0.400985 -0.000191461 0)
(0.401251 -0.000283743 0)
(0.401569 -0.000394626 0)
(0.401951 -0.000528456 0)
(0.402408 -0.000690883 0)
(0.402957 -0.000888931 0)
(0.403619 -0.00113077 0)
(0.404418 -0.00142674 0)
(0.405387 -0.00178851 0)
(0.406564 -0.00223254 0)
(0.407996 -0.00278037 0)
(0.409737 -0.00345664 0)
(0.411857 -0.00428975 0)
(0.414441 -0.00531204 0)
(0.417597 -0.00656353 0)
(0.421455 -0.00809505 0)
(0.426181 -0.00996918 0)
(0.431968 -0.0122603 0)
(0.439077 -0.0150514 0)
(0.447748 -0.0184619 0)
(0.458535 -0.0225021 0)
(0.471285 -0.0277444 0)
(0.488584 -0.0322285 0)
(0.400011 1.75862e-05 0)
(0.400059 3.36863e-05 0)
(0.400148 1.14306e-05 0)
(0.400255 -3.72042e-05 0)
(0.400375 -9.46532e-05 0)
(0.400519 -0.000161046 0)
(0.400695 -0.00024189 0)
(0.400908 -0.00034015 0)
(0.401163 -0.000458087 0)
(0.401468 -0.000599013 0)
(0.401833 -0.000768236 0)
(0.402271 -0.000973007 0)
(0.402796 -0.0012223 0)
(0.403429 -0.0015267 0)
(0.404193 -0.00189914 0)
(0.405119 -0.0023551 0)
(0.406242 -0.00291439 0)
(0.407607 -0.00360245 0)
(0.409268 -0.00444921 0)
(0.41129 -0.00549 0)
(0.413754 -0.00676797 0)
(0.416764 -0.00833601 0)
(0.420444 -0.0102583 0)
(0.424953 -0.012613 0)
(0.430476 -0.0154946 0)
(0.437268 -0.0190117 0)
(0.445553 -0.0233129 0)
(0.455905 -0.0284567 0)
(0.468099 -0.0350093 0)
(0.484935 -0.0413207 0)
(0.400009 2.59831e-06 0)
(0.400046 -2.70909e-06 0)
(0.400122 -3.3749e-05 0)
(0.40022 -8.61313e-05 0)
(0.400335 -0.000152164 0)
(0.400471 -0.00023073 0)
(0.400638 -0.000326319 0)
(0.40084 -0.000442594 0)
(0.401081 -0.000582277 0)
(0.40137 -0.000749428 0)
(0.401715 -0.000950476 0)
(0.402129 -0.00119409 0)
(0.402625 -0.00149099 0)
(0.403222 -0.00185397 0)
(0.403942 -0.00229848 0)
(0.404814 -0.00284321 0)
(0.405872 -0.00351142 0)
(0.407157 -0.00433241 0)
(0.408719 -0.00534154 0)
(0.410621 -0.0065817 0)
(0.412939 -0.00810541 0)
(0.415769 -0.00997612 0)
(0.419231 -0.0122709 0)
(0.423472 -0.0150843 0)
(0.428668 -0.0185312 0)
(0.435066 -0.0227453 0)
(0.442872 -0.0279043 0)
(0.452669 -0.0341185 0)
(0.46417 -0.0419436 0)
(0.480359 -0.0500547 0)
(0.400007 -8.4831e-06 0)
(0.400038 -3.22604e-05 0)
(0.400103 -7.42304e-05 0)
(0.400192 -0.000136285 0)
(0.400299 -0.000214957 0)
(0.400427 -0.000309068 0)
(0.400582 -0.000421916 0)
(0.400771 -0.000557558 0)
(0.400996 -0.000719757 0)
(0.401266 -0.000913535 0)
(0.401588 -0.00114628 0)
(0.401973 -0.00142792 0)
(0.402435 -0.00177079 0)
(0.40299 -0.00218972 0)
(0.40366 -0.00270248 0)
(0.40447 -0.00333059 0)
(0.405451 -0.00410063 0)
(0.406642 -0.00504579 0)
(0.408089 -0.00620668 0)
(0.40985 -0.00763283 0)
(0.411997 -0.00938486 0)
(0.414618 -0.0115364 0)
(0.417822 -0.0141773 0)
(0.421748 -0.0174172 0)
(0.42656 -0.0213907 0)
(0.432489 -0.0262562 0)
(0.439725 -0.0322202 0)
(0.44885 -0.0394477 0)
(0.459524 -0.0484808 0)
(0.474866 -0.058347 0)
(0.400006 -1.78125e-05 0)
(0.400032 -5.72575e-05 0)
(0.400088 -0.00011093 0)
(0.400168 -0.000182799 0)
(0.400266 -0.000272189 0)
(0.400385 -0.000378862 0)
(0.400528 -0.00050586 0)
(0.400702 -0.000657694 0)
(0.40091 -0.000839057 0)
(0.401158 -0.0010558 0)
(0.401454 -0.00131618 0)
(0.401807 -0.00163128 0)
(0.40223 -0.00201499 0)
(0.402738 -0.00248398 0)
(0.40335 -0.00305818 0)
(0.404089 -0.00376172 0)
(0.404983 -0.00462424 0)
(0.406068 -0.00568257 0)
(0.407385 -0.00698204 0)
(0.408987 -0.00857825 0)
(0.410939 -0.0105393 0)
(0.413321 -0.0129484 0)
(0.416232 -0.0159071 0)
(0.419799 -0.0195395 0)
(0.42417 -0.0239983 0)
(0.429561 -0.0294659 0)
(0.436139 -0.0361773 0)
(0.444475 -0.0443523 0)
(0.454188 -0.054522 0)
(0.468466 -0.0660845 0)
(0.400005 -2.51727e-05 0)
(0.400027 -7.87492e-05 0)
(0.400075 -0.000143731 0)
(0.400147 -0.000225108 0)
(0.400236 -0.000324471 0)
(0.400344 -0.000442861 0)
(0.400475 -0.000583409 0)
(0.400632 -0.000750807 0)
(0.40082 -0.000950371 0)
(0.401045 -0.0011887 0)
(0.401311 -0.00147487 0)
(0.401629 -0.00182103 0)
(0.402009 -0.0022424 0)
(0.402465 -0.00275731 0)
(0.403012 -0.0033876 0)
(0.403673 -0.00415966 0)
(0.404471 -0.00510587 0)
(0.405438 -0.00626637 0)
(0.406611 -0.00769075 0)
(0.408037 -0.00944 0)
(0.409773 -0.011589 0)
(0.41189 -0.0142293 0)
(0.414476 -0.017473 0)
(0.417643 -0.0214573 0)
(0.421522 -0.0263517 0)
(0.42631 -0.0323611 0)
(0.43215 -0.0397477 0)
(0.439584 -0.0487853 0)
(0.448206 -0.0599976 0)
(0.461188 -0.0731641 0)
(0.400004 -3.14916e-05 0)
(0.400023 -9.72626e-05 0)
(0.400065 -0.000172632 0)
(0.400128 -0.000263034 0)
(0.400208 -0.000371643 0)
(0.400304 -0.000500579 0)
(0.400421 -0.000653171 0)
(0.400561 -0.00083425 0)
(0.400728 -0.00104965 0)
(0.400926 -0.00130666 0)
(0.401161 -0.00161513 0)
(0.401441 -0.00198813 0)
(0.401774 -0.00244208 0)
(0.402172 -0.00299673 0)
(0.40265 -0.00367562 0)
(0.403226 -0.00450712 0)
(0.40392 -0.00552602 0)
(0.404759 -0.00677539 0)
(0.405777 -0.00830854 0)
(0.407011 -0.0101912 0)
(0.408512 -0.012504 0)
(0.410341 -0.015346 0)
(0.412573 -0.0188383 0)
(0.415305 -0.0231299 0)
(0.418647 -0.0284051 0)
(0.422772 -0.034889 0)
(0.427798 -0.0428696 0)
(0.434224 -0.0526717 0)
(0.441631 -0.0648143 0)
(0.453079 -0.0794566 0)
(0.400004 -3.68523e-05 0)
(0.400019 -0.000113103 0)
(0.400056 -0.000197807 0)
(0.40011 -0.000296541 0)
(0.40018 -0.000413485 0)
(0.400265 -0.000551629 0)
(0.400367 -0.000714624 0)
(0.400488 -0.000907499 0)
(0.400633 -0.0011365 0)
(0.400803 -0.00140951 0)
(0.401005 -0.00173705 0)
(0.401243 -0.00213302 0)
(0.401526 -0.00261485 0)
(0.401864 -0.00320347 0)
(0.402267 -0.00392384 0)
(0.402751 -0.004806 0)
(0.403334 -0.00588674 0)
(0.404038 -0.00721161 0)
(0.404889 -0.00883703 0)
(0.405919 -0.0108326 0)
(0.40717 -0.013284 0)
(0.408691 -0.0162962 0)
(0.410545 -0.0199981 0)
(0.412809 -0.0245483 0)
(0.415575 -0.0301438 0)
(0.418986 -0.0370272 0)
(0.423133 -0.045509 0)
(0.428454 -0.0559601 0)
(0.434532 -0.0688971 0)
(0.44421 -0.084843 0)
(0.400003 -4.13919e-05 0)
(0.400016 -0.000126598 0)
(0.400047 -0.000219488 0)
(0.400094 -0.000325612 0)
(0.400154 -0.000449782 0)
(0.400226 -0.000595681 0)
(0.400313 -0.00076733 0)
(0.400415 -0.000969964 0)
(0.400535 -0.00121015 0)
(0.400677 -0.00149625 0)
(0.400843 -0.00183935 0)
(0.401038 -0.00225401 0)
(0.401268 -0.00275844 0)
(0.401541 -0.00337456 0)
(0.401867 -0.00412844 0)
(0.402255 -0.00505147 0)
(0.402721 -0.00618204 0)
(0.403282 -0.00756771 0)
(0.403957 -0.00926735 0)
(0.404773 -0.0113537 0)
(0.40576 -0.0139163 0)
(0.406957 -0.0170648 0)
(0.408412 -0.0209343 0)
(0.410184 -0.0256908 0)
(0.412342 -0.0315414 0)
(0.414996 -0.0387426 0)
(0.418209 -0.0476234 0)
(0.422341 -0.0585937 0)
(0.426994 -0.0721677 0)
(0.434682 -0.0892 0)
(0.400003 -4.52012e-05 0)
(0.400014 -0.00013795 0)
(0.400039 -0.000237802 0)
(0.400078 -0.00035021 0)
(0.400128 -0.000480374 0)
(0.400188 -0.00063251 0)
(0.400258 -0.000810987 0)
(0.400341 -0.00102124 0)
(0.400437 -0.00127007 0)
(0.400548 -0.00156619 0)
(0.400677 -0.00192114 0)
(0.400827 -0.00234998 0)
(0.401003 -0.00287155 0)
(0.401209 -0.00350848 0)
(0.401453 -0.0042877 0)
(0.401742 -0.00524157 0)
(0.402087 -0.0064097 0)
(0.402498 -0.00784108 0)
(0.402992 -0.0095964 0)
(0.403585 -0.0117507 0)
(0.404298 -0.0143961 0)
(0.40516 -0.0176458 0)
(0.4062 -0.021639 0)
(0.407461 -0.026547 0)
(0.408986 -0.0325839 0)
(0.410851 -0.0400159 0)
(0.413087 -0.049185 0)
(0.415966 -0.0605312 0)
(0.419116 -0.0745636 0)
(0.424623 -0.0924203 0)
(0.400002 -4.83427e-05 0)
(0.400011 -0.000147307 0)
(0.400032 -0.000252884 0)
(0.400063 -0.000370375 0)
(0.400103 -0.000505205 0)
(0.40015 -0.000661982 0)
(0.400204 -0.000845372 0)
(0.400266 -0.00106098 0)
(0.400337 -0.00131579 0)
(0.400417 -0.00161875 0)
(0.400509 -0.00198172 0)
(0.400613 -0.00242013 0)
(0.400732 -0.0029532 0)
(0.40087 -0.00360405 0)
(0.40103 -0.00440015 0)
(0.401217 -0.00537449 0)
(0.401437 -0.00656742 0)
(0.401696 -0.00802886 0)
(0.402003 -0.00982061 0)
(0.402368 -0.012019 0)
(0.402801 -0.0147179 0)
(0.403318 -0.0180324 0)
(0.403934 -0.0221039 0)
(0.40467 -0.0271067 0)
(0.405547 -0.0332582 0)
(0.406602 -0.0408301 0)
(0.407835 -0.0501708 0)
(0.409414 -0.0617393 0)
(0.41101 -0.0760344 0)
(0.414194 -0.0944145 0)
(0.400002 -5.0866e-05 0)
(0.400009 -0.000154801 0)
(0.400025 -0.000264873 0)
(0.400049 -0.000386185 0)
(0.400079 -0.00052427 0)
(0.400113 -0.000684021 0)
(0.400151 -0.000870351 0)
(0.400193 -0.001089 0)
(0.400238 -0.00134705 0)
(0.400287 -0.0016536 0)
(0.400339 -0.00202068 0)
(0.400397 -0.00246391 0)
(0.400459 -0.00300272 0)
(0.400527 -0.00366044 0)
(0.400603 -0.00446478 0)
(0.400686 -0.00544901 0)
(0.40078 -0.0066538 0)
(0.400884 -0.0081294 0)
(0.401002 -0.00993802 0)
(0.401135 -0.0121565 0)
(0.401284 -0.0148791 0)
(0.401452 -0.0182214 0)
(0.401639 -0.0223252 0)
(0.401845 -0.0273649 0)
(0.402067 -0.0335583 0)
(0.402302 -0.0411769 0)
(0.40252 -0.0505688 0)
(0.402782 -0.0621995 0)
(0.402798 -0.0765498 0)
(0.403577 -0.0951232 0)
(0.400001 -5.28181e-05 0)
(0.400007 -0.000160562 0)
(0.400019 -0.000273926 0)
(0.400036 -0.00039776 0)
(0.400056 -0.000537627 0)
(0.400078 -0.000698637 0)
(0.400099 -0.000885899 0)
(0.40012 -0.00110523 0)
(0.40014 -0.00136374 0)
(0.400157 -0.00167057 0)
(0.400171 -0.0020378 0)
(0.400182 -0.00248107 0)
(0.400186 -0.00301981 0)
(0.400185 -0.00367729 0)
(0.400175 -0.00448118 0)
(0.400155 -0.00546466 0)
(0.400121 -0.00666824 0)
(0.400071 -0.00814199 0)
(0.399999 -0.00994781 0)
(0.3999 -0.0121621 0)
(0.399765 -0.0148785 0)
(0.399584 -0.0182115 0)
(0.399342 -0.0223015 0)
(0.399019 -0.0273205 0)
(0.398587 -0.0334827 0)
(0.398007 -0.0410549 0)
(0.397215 -0.0503769 0)
(0.396165 -0.0619082 0)
(0.394612 -0.0761013 0)
(0.392975 -0.0945229 0)
(0.400001 -5.42496e-05 0)
(0.400005 -0.000164733 0)
(0.400013 -0.000280222 0)
(0.400024 -0.000405262 0)
(0.400035 -0.000545398 0)
(0.400044 -0.000705922 0)
(0.400049 -0.000892087 0)
(0.40005 -0.00110973 0)
(0.400044 -0.0013659 0)
(0.40003 -0.0016697 0)
(0.400006 -0.00203312 0)
(0.399969 -0.00247165 0)
(0.399917 -0.00300449 0)
(0.399847 -0.00365465 0)
(0.399752 -0.00444942 0)
(0.399629 -0.00542152 0)
(0.399469 -0.00661091 0)
(0.399265 -0.00806688 0)
(0.399005 -0.00985036 0)
(0.398676 -0.0120364 0)
(0.39826 -0.0147169 0)
(0.397734 -0.018004 0)
(0.397069 -0.0220347 0)
(0.396225 -0.0269762 0)
(0.39515 -0.0330356 0)
(0.39377 -0.0404702 0)
(0.39199 -0.0496042 0)
(0.389663 -0.0608778 0)
(0.386581 -0.0747052 0)
(0.382597 -0.0926317 0)
(0.400001 -5.52203e-05 0)
(0.400003 -0.00016748 0)
(0.400007 -0.000283981 0)
(0.400012 -0.000408904 0)
(0.400015 -0.000547769 0)
(0.400012 -0.000706047 0)
(0.400002 -0.000889091 0)
(0.399983 -0.00110267 0)
(0.399952 -0.00135373 0)
(0.399907 -0.0016512 0)
(0.399846 -0.00200688 0)
(0.399763 -0.00243595 0)
(0.399655 -0.00295716 0)
(0.399516 -0.003593 0)
(0.399338 -0.00437009 0)
(0.399114 -0.00532038 0)
(0.398831 -0.00648277 0)
(0.398476 -0.00790529 0)
(0.398032 -0.00964722 0)
(0.397478 -0.0117815 0)
(0.396786 -0.0143971 0)
(0.395923 -0.0176026 0)
(0.394845 -0.0215296 0)
(0.393494 -0.0263386 0)
(0.391795 -0.0322265 0)
(0.389644 -0.0394364 0)
(0.386913 -0.0482701 0)
(0.383369 -0.0591367 0)
(0.378833 -0.0724025 0)
(0.372647 -0.0895115 0)
(0.4 -5.58058e-05 0)
(0.400001 -0.000169013 0)
(0.400003 -0.000285471 0)
(0.400003 -0.000408939 0)
(0.399997 -0.000544975 0)
(0.399983 -0.000699262 0)
(0.399958 -0.00087719 0)
(0.399919 -0.00108438 0)
(0.399864 -0.00132758 0)
(0.39979 -0.0016155 0)
(0.399692 -0.00195961 0)
(0.399564 -0.00237458 0)
(0.399402 -0.00287856 0)
(0.399197 -0.00349324 0)
(0.398938 -0.00424432 0)
(0.398615 -0.00516258 0)
(0.398212 -0.00628553 0)
(0.397711 -0.00765937 0)
(0.397089 -0.0093411 0)
(0.396317 -0.0114007 0)
(0.395359 -0.0139235 0)
(0.394171 -0.0170129 0)
(0.392695 -0.020794 0)
(0.390856 -0.0254183 0)
(0.388562 -0.0310698 0)
(0.385677 -0.0379735 0)
(0.382049 -0.0464038 0)
(0.377369 -0.0567281 0)
(0.371484 -0.0692576 0)
(0.36331 -0.0852653 0)
(0.4 -5.61039e-05 0)
(0.4 -0.000169598 0)
(0.4 -0.000285034 0)
(0.399995 -0.000405695 0)
(0.399982 -0.000537314 0)
(0.399957 -0.000685875 0)
(0.399917 -0.000856737 0)
(0.39986 -0.00105527 0)
(0.399782 -0.00128794 0)
(0.399679 -0.00156319 0)
(0.399546 -0.00189201 0)
(0.399376 -0.00228844 0)
(0.399162 -0.00276978 0)
(0.398893 -0.00335671 0)
(0.398557 -0.00407373 0)
(0.398139 -0.00495015 0)
(0.397622 -0.00602166 0)
(0.39698 -0.00733218 0)
(0.396187 -0.00893582 0)
(0.395206 -0.0108989 0)
(0.393994 -0.0133021 0)
(0.392496 -0.0162427 0)
(0.390641 -0.0198381 0)
(0.388342 -0.0242289 0)
(0.385486 -0.0295841 0)
(0.381915 -0.0361079 0)
(0.377454 -0.0440429 0)
(0.37174 -0.0537078 0)
(0.364634 -0.0653543 0)
(0.354739 -0.0800314 0)
(0.4 -5.62419e-05 0)
(0.4 -0.00016955 0)
(0.399997 -0.000283043 0)
(0.399989 -0.000399535 0)
(0.39997 -0.000525172 0)
(0.399935 -0.000666332 0)
(0.399882 -0.000828231 0)
(0.399807 -0.00101588 0)
(0.399708 -0.00123545 0)
(0.399578 -0.00149501 0)
(0.399411 -0.00180498 0)
(0.3992 -0.0021786 0)
(0.398936 -0.00263215 0)
(0.398607 -0.00318508 0)
(0.398198 -0.00386041 0)
(0.397691 -0.00468569 0)
(0.397065 -0.00569442 0)
(0.396291 -0.00692777 0)
(0.395336 -0.00843643 0)
(0.394158 -0.0102824 0)
(0.392707 -0.0125408 0)
(0.390916 -0.0153022 0)
(0.388707 -0.0186748 0)
(0.385977 -0.0227872 0)
(0.382599 -0.027792 0)
(0.378397 -0.0338704 0)
(0.373177 -0.0412314 0)
(0.366542 -0.0501407 0)
(0.358362 -0.0607909 0)
(0.347048 -0.0739731 0)
(0.4 -5.64362e-05 0)
(0.4 -0.000169315 0)
(0.399997 -0.000279957 0)
(0.399987 -0.000390841 0)
(0.399961 -0.00050892 0)
(0.399917 -0.000641087 0)
(0.399851 -0.000792242 0)
(0.399761 -0.000966926 0)
(0.399642 -0.00117097 0)
(0.399486 -0.001412 0)
(0.399289 -0.00169975 0)
(0.39904 -0.00204648 0)
(0.39873 -0.00246729 0)
(0.398344 -0.00298021 0)
(0.397867 -0.00360655 0)
(0.397276 -0.0043718 0)
(0.396548 -0.00530694 0)
(0.39565 -0.00645 0)
(0.394545 -0.00784775 0)
(0.393184 -0.00955729 0)
(0.39151 -0.0116477 0)
(0.389449 -0.0142017 0)
(0.386912 -0.0173178 0)
(0.383785 -0.0211117 0)
(0.37993 -0.0257184 0)
(0.375157 -0.0312952 0)
(0.369258 -0.0380177 0)
(0.361822 -0.0460975 0)
(0.352725 -0.0556735 0)
(0.340302 -0.0672666 0)
(0.4 -5.69607e-05 0)
(0.400001 -0.000169586 0)
(0.4 -0.000276425 0)
(0.399988 -0.00038005 0)
(0.399958 -0.000488974 0)
(0.399905 -0.000610573 0)
(0.399828 -0.000749197 0)
(0.399723 -0.000908903 0)
(0.399585 -0.00109521 0)
(0.399407 -0.00131525 0)
(0.39918 -0.0015779 0)
(0.398897 -0.00189431 0)
(0.398544 -0.00227821 0)
(0.398107 -0.00274599 0)
(0.397567 -0.00331703 0)
(0.3969 -0.00401447 0)
(0.396078 -0.00486643 0)
(0.395067 -0.00590743 0)
(0.393824 -0.00717985 0)
(0.392295 -0.00873535 0)
(0.390417 -0.0106363 0)
(0.388109 -0.0129572 0)
(0.385273 -0.0157861 0)
(0.381788 -0.0192254 0)
(0.377504 -0.0233922 0)
(0.372223 -0.0284199 0)
(0.365729 -0.0344524 0)
(0.357611 -0.0416502 0)
(0.347753 -0.0501083 0)
(0.334516 -0.0600866 0)
(0.400001 -5.8242e-05 0)
(0.400005 -0.000171231 0)
(0.400007 -0.000272999 0)
(0.399995 -0.000367573 0)
(0.39996 -0.00046605 0)
(0.3999 -0.000575784 0)
(0.399813 -0.000700113 0)
(0.399695 -0.000842634 0)
(0.39954 -0.00100862 0)
(0.399341 -0.00120462 0)
(0.399089 -0.00143862 0)
(0.398774 -0.00172059 0)
(0.398383 -0.00206275 0)
(0.397899 -0.00247973 0)
(0.397302 -0.00298879 0)
(0.396566 -0.00361054 0)
(0.395661 -0.00437 0)
(0.394547 -0.00529783 0)
(0.39318 -0.00643165 0)
(0.391501 -0.00781727 0)
(0.38944 -0.00950992 0)
(0.386911 -0.0115754 0)
(0.383808 -0.0140909 0)
(0.380004 -0.0171455 0)
(0.375342 -0.0208382 0)
(0.369618 -0.0252791 0)
(0.362611 -0.0305838 0)
(0.353925 -0.0368671 0)
(0.343449 -0.044194 0)
(0.329661 -0.0525935 0)
(0.400002 -6.10695e-05 0)
(0.40001 -0.000175534 0)
(0.400019 -0.000270029 0)
(0.400008 -0.000353222 0)
(0.39997 -0.000440178 0)
(0.399903 -0.000537521 0)
(0.399808 -0.000647126 0)
(0.399679 -0.000772077 0)
(0.39951 -0.000917271 0)
(0.399292 -0.00108853 0)
(0.399017 -0.00129279 0)
(0.398674 -0.00153864 0)
(0.39825 -0.00183664 0)
(0.397725 -0.00219944 0)
(0.397078 -0.00264201 0)
(0.396281 -0.00318219 0)
(0.395302 -0.00384162 0)
(0.394099 -0.00464684 0)
(0.392623 -0.00563031 0)
(0.390811 -0.00683156 0)
(0.38859 -0.0082983 0)
(0.385867 -0.0100873 0)
(0.382532 -0.0122652 0)
(0.37845 -0.0149074 0)
(0.373461 -0.0180952 0)
(0.367358 -0.0219168 0)
(0.359918 -0.0264638 0)
(0.350769 -0.0318124 0)
(0.339805 -0.038018 0)
(0.325687 -0.044924 0)
(0.400004 -6.6747e-05 0)
(0.400021 -0.000184807 0)
(0.400039 -0.000269182 0)
(0.400031 -0.000337363 0)
(0.399989 -0.000409088 0)
(0.399917 -0.000489856 0)
(0.399814 -0.000580486 0)
(0.399676 -0.000683755 0)
(0.399494 -0.000804046 0)
(0.39926 -0.000946334 0)
(0.398966 -0.00111657 0)
(0.3986 -0.00132195 0)
(0.398146 -0.00157125 0)
(0.397586 -0.00187499 0)
(0.396897 -0.00224564 0)
(0.396049 -0.00269813 0)
(0.395007 -0.00325055 0)
(0.393728 -0.00392503 0)
(0.392159 -0.00474863 0)
(0.390235 -0.00575424 0)
(0.387878 -0.00698172 0)
(0.38499 -0.00847848 0)
(0.381457 -0.0103014 0)
(0.377142 -0.0125121 0)
(0.371881 -0.0151736 0)
(0.365467 -0.018354 0)
(0.35768 -0.0221268 0)
(0.348177 -0.0265347 0)
(0.336861 -0.0316532 0)
(0.322618 -0.0371889 0)
(0.400008 -7.69832e-05 0)
(0.40004 -0.000199636 0)
(0.400073 -0.000275052 0)
(0.40007 -0.000333863 0)
(0.400025 -0.00039551 0)
(0.399948 -0.00046275 0)
(0.39984 -0.0005367 0)
(0.399694 -0.000620488 0)
(0.399502 -0.000717649 0)
(0.399255 -0.0008319 0)
(0.398945 -0.000968123 0)
(0.398559 -0.00113215 0)
(0.398082 -0.001331 0)
(0.397494 -0.00157305 0)
(0.39677 -0.00186815 0)
(0.39588 -0.00222815 0)
(0.394788 -0.00266739 0)
(0.393448 -0.00320343 0)
(0.391805 -0.00385763 0)
(0.389792 -0.00465594 0)
(0.387327 -0.00562998 0)
(0.38431 -0.00681743 0)
(0.380623 -0.00826782 0)
(0.376131 -0.0100298 0)
(0.370674 -0.0121469 0)
(0.364046 -0.0146688 0)
(0.356037 -0.0176577 0)
(0.34632 -0.0211225 0)
(0.334828 -0.0251936 0)
(0.32059 -0.0294535 0)
(0.400015 -0.000100409 0)
(0.400071 -0.000202545 0)
(0.400121 -0.000245247 0)
(0.40012 -0.000284267 0)
(0.400074 -0.000330103 0)
(0.399995 -0.000379133 0)
(0.399883 -0.000431918 0)
(0.399731 -0.000492039 0)
(0.399531 -0.000562848 0)
(0.399275 -0.00064712 0)
(0.398953 -0.000747778 0)
(0.398553 -0.000868892 0)
(0.398059 -0.00101561 0)
(0.397451 -0.00119405 0)
(0.396702 -0.00141146 0)
(0.395782 -0.00167651 0)
(0.394654 -0.00199973 0)
(0.393271 -0.00239389 0)
(0.391579 -0.00287458 0)
(0.389508 -0.00346062 0)
(0.386978 -0.00417531 0)
(0.383886 -0.00504511 0)
(0.380121 -0.00611471 0)
(0.375546 -0.00742416 0)
(0.369998 -0.00899775 0)
(0.363262 -0.0108677 0)
(0.355141 -0.0130844 0)
(0.34526 -0.0156245 0)
(0.333682 -0.0186773 0)
(0.319 -0.021572 0)
(0.400024 -0.000163808 0)
(0.400176 -0.000323717 0)
(0.400224 -0.000320175 0)
(0.400191 -0.000334981 0)
(0.400124 -0.000361802 0)
(0.400028 -0.000390982 0)
(0.399897 -0.000424097 0)
(0.399723 -0.000461486 0)
(0.399498 -0.000504007 0)
(0.399214 -0.000552958 0)
(0.398861 -0.000614844 0)
(0.398425 -0.000690095 0)
(0.397888 -0.000781665 0)
(0.39723 -0.000893434 0)
(0.396426 -0.00103003 0)
(0.395444 -0.00119709 0)
(0.394246 -0.00140157 0)
(0.392786 -0.00165188 0)
(0.391009 -0.00195818 0)
(0.388848 -0.0023328 0)
(0.386222 -0.00279075 0)
(0.383024 -0.00335003 0)
(0.379167 -0.00403213 0)
(0.37431 -0.00485961 0)
(0.368384 -0.0058541 0)
(0.36117 -0.00703895 0)
(0.352477 -0.00844103 0)
(0.341832 -0.0100336 0)
(0.329629 -0.0120454 0)
(0.312558 -0.0131137 0)
(0.399645 -0.000112189 0)
(0.399344 -0.000190021 0)
(0.398875 -0.000207727 0)
(0.39832 -0.000218746 0)
(0.397736 -0.000231472 0)
(0.397124 -0.000244066 0)
(0.396475 -0.000256518 0)
(0.395779 -0.000270414 0)
(0.395028 -0.000286981 0)
(0.394215 -0.000306903 0)
(0.393327 -0.000330262 0)
(0.392347 -0.000357847 0)
(0.391257 -0.00039096 0)
(0.390031 -0.000431178 0)
(0.388639 -0.000480364 0)
(0.387045 -0.000540704 0)
(0.385201 -0.000614817 0)
(0.383051 -0.000705936 0)
(0.380526 -0.000818084 0)
(0.377541 -0.000956268 0)
(0.373992 -0.00112616 0)
(0.369751 -0.00133598 0)
(0.364678 -0.00158609 0)
(0.358613 -0.00188045 0)
(0.351349 -0.0022339 0)
(0.342637 -0.00265712 0)
(0.332199 -0.0031626 0)
(0.319719 -0.00370962 0)
(0.305137 -0.0045792 0)
(0.282734 -0.00404733 0)
(0.498964 -0.00909178 1.16601e-20)
(0.506211 -0.0140587 -1.05988e-17)
(0.51287 -0.0197231 1.06246e-17)
(0.518413 -0.0259236 5.32638e-18)
(0.523345 -0.0325722 4.01359e-18)
(0.527967 -0.0396525 8.07967e-18)
(0.532369 -0.0472098 4.04469e-18)
(0.536614 -0.0553131 1.08731e-17)
(0.540775 -0.0640192 5.47684e-18)
(0.544904 -0.073367 2.73853e-18)
(0.549014 -0.0833894 -2.7679e-18)
(0.553097 -0.094126 5.53581e-18)
(0.557144 -0.105628 2.81595e-18)
(0.56115 -0.11796 2.81629e-18)
(0.565122 -0.131204 5.65759e-18)
(0.569074 -0.145461 2.86743e-18)
(0.573028 -0.160853 8.56167e-18)
(0.577006 -0.17753 0)
(0.581037 -0.195675 0)
(0.585155 -0.215515 2.83759e-18)
(0.589399 -0.237332 -3.44009e-20)
(0.593815 -0.261485 2.86787e-18)
(0.598469 -0.28841 0)
(0.603374 -0.318734 5.52723e-18)
(0.608816 -0.353001 2.69058e-18)
(0.614 -0.392947 -2.72313e-18)
(0.622325 -0.4367 2.57129e-18)
(0.622055 -0.499033 2.50174e-18)
(0.648379 -0.535434 6.73768e-18)
(0.606357 -0.683831 -2.03329e-18)
(0.505054 -0.0197357 -5.34328e-18)
(0.509931 -0.0247541 6.03217e-18)
(0.514068 -0.0307554 -6.06527e-18)
(0.517612 -0.0372381 0)
(0.521009 -0.0440944 -5.47405e-18)
(0.524454 -0.0513773 -5.49067e-18)
(0.527947 -0.0591668 -1.38098e-18)
(0.531462 -0.0675115 -9.74628e-18)
(0.534986 -0.0764331 -5.59356e-18)
(0.538499 -0.0859514 -5.65879e-18)
(0.541963 -0.0960999 2.83317e-18)
(0.54535 -0.106928 -2.86654e-18)
(0.548645 -0.118496 -5.73548e-18)
(0.551848 -0.130879 -5.77104e-18)
(0.554965 -0.144162 -5.80576e-18)
(0.558002 -0.158449 -5.83895e-18)
(0.560964 -0.173864 -1.17974e-17)
(0.563857 -0.190555 2.95027e-18)
(0.566683 -0.208706 -2.99121e-18)
(0.569447 -0.22854 -8.97892e-18)
(0.572151 -0.250335 4.10226e-20)
(0.574796 -0.274437 -5.29483e-20)
(0.577375 -0.301272 -5.83001e-20)
(0.57985 -0.331419 -8.97514e-18)
(0.582299 -0.365438 -5.92337e-18)
(0.58412 -0.404804 -2.80916e-18)
(0.587446 -0.448374 1.45857e-19)
(0.583225 -0.507164 -1.21722e-19)
(0.601135 -0.547652 -7.56926e-18)
(0.553542 -0.684334 0)
(0.502226 -0.0297372 0)
(0.505754 -0.0347385 0)
(0.508942 -0.0407561 0)
(0.512067 -0.0473049 -6.92972e-19)
(0.515254 -0.0542583 6.28564e-18)
(0.518483 -0.0616443 -1.40569e-18)
(0.521685 -0.0695074 1.4212e-18)
(0.52481 -0.0778734 5.70452e-18)
(0.527838 -0.0867685 -1.43698e-18)
(0.530757 -0.0962339 7.24335e-18)
(0.533556 -0.106323 2.91813e-18)
(0.53623 -0.117095 -2.95479e-18)
(0.538781 -0.128613 2.96371e-18)
(0.541207 -0.140949 -3.00294e-18)
(0.543504 -0.154188 -6.06484e-18)
(0.545661 -0.16843 6.11382e-18)
(0.547666 -0.183797 6.09955e-18)
(0.549503 -0.200438 0)
(0.551153 -0.218532 0)
(0.552593 -0.238297 6.20578e-18)
(0.553786 -0.260001 0)
(0.554688 -0.283975 9.46468e-18)
(0.555231 -0.310628 3.17211e-18)
(0.555312 -0.340491 6.21666e-18)
(0.554857 -0.374134 9.2462e-18)
(0.553323 -0.412769 3.13518e-18)
(0.552009 -0.455842 0)
(0.543868 -0.511407 1.17278e-17)
(0.552622 -0.555291 0)
(0.501658 -0.679509 5.21252e-18)
(0.499096 -0.0400165 0)
(0.502044 -0.0452155 0)
(0.504713 -0.0513301 0)
(0.507453 -0.0579225 -5.69181e-18)
(0.510217 -0.0648935 0)
(0.512896 -0.0722773 0)
(0.515455 -0.0801242 0)
(0.517897 -0.0884704 5.88966e-18)
(0.520227 -0.0973509 0)
(0.522442 -0.106808 0)
(0.52453 -0.116888 0)
(0.526481 -0.127642 -6.11277e-18)
(0.52828 -0.139129 -6.17201e-18)
(0.529909 -0.15142 -3.09456e-18)
(0.531349 -0.164597 -4.19461e-20)
(0.532576 -0.178764 -6.27372e-18)
(0.533564 -0.19404 2.00394e-20)
(0.534282 -0.210569 9.70787e-18)
(0.534688 -0.228524 3.23346e-18)
(0.534732 -0.248114 -3.28723e-18)
(0.534344 -0.269591 -3.27873e-18)
(0.533438 -0.293266 -3.24329e-18)
(0.531887 -0.31952 -3.30686e-18)
(0.529536 -0.348831 1.01301e-17)
(0.526176 -0.38175 0)
(0.521327 -0.419246 -1.004e-17)
(0.515574 -0.461185 -3.34967e-18)
(0.503603 -0.513467 2.86972e-19)
(0.503626 -0.558424 -9.51634e-18)
(0.450283 -0.67007 6.42729e-19)
(0.494882 -0.0498903 0)
(0.497228 -0.0551514 5.7235e-18)
(0.499277 -0.0612515 -7.1982e-19)
(0.501476 -0.0678239 1.23677e-17)
(0.503702 -0.0747956 0)
(0.505806 -0.0821942 0)
(0.507769 -0.0900572 6.00213e-18)
(0.509613 -0.0984116 -6.02659e-18)
(0.511337 -0.107286 0)
(0.512921 -0.116717 0)
(0.514341 -0.126751 0)
(0.51558 -0.13744 6.27475e-18)
(0.516615 -0.148846 6.34108e-18)
(0.517425 -0.161041 -3.21168e-18)
(0.517983 -0.174107 9.73941e-18)
(0.518255 -0.188144 0)
(0.518204 -0.203266 6.69534e-18)
(0.51778 -0.219609 -1.01087e-17)
(0.516922 -0.237337 -3.41274e-18)
(0.515552 -0.256644 0)
(0.513572 -0.277765 0)
(0.510854 -0.300984 0)
(0.507226 -0.326648 0)
(0.502482 -0.355181 -3.51598e-18)
(0.496308 -0.387089 -3.61508e-18)
(0.488265 -0.423139 3.53724e-18)
(0.478362 -0.463486 3.64299e-18)
(0.462749 -0.512311 -6.99501e-18)
(0.454592 -0.557016 6.92066e-18)
(0.399963 -0.656407 -6.46952e-18)
(0.489667 -0.0593633 -5.80014e-18)
(0.491454 -0.0646982 -5.47026e-18)
(0.492925 -0.0708257 -1.10736e-18)
(0.49461 -0.077416 -4.46274e-18)
(0.49633 -0.0844012 -1.83776e-21)
(0.497891 -0.0917994 -2.2841e-18)
(0.499277 -0.0996413 4.20712e-20)
(0.500517 -0.107954 -6.24593e-18)
(0.501608 -0.116769 -4.74557e-18)
(0.502524 -0.126127 6.39729e-18)
(0.503238 -0.136073 0)
(0.50373 -0.146662 8.18423e-18)
(0.503976 -0.157951 -8.29276e-18)
(0.503945 -0.170008 -6.72444e-18)
(0.503601 -0.182914 1.01947e-17)
(0.502899 -0.196759 -1.03438e-17)
(0.501788 -0.211652 -3.44523e-18)
(0.500201 -0.22772 -3.62464e-18)
(0.498059 -0.245115 -3.56093e-18)
(0.495261 -0.264013 1.09272e-17)
(0.491681 -0.284628 0)
(0.48716 -0.307213 3.69967e-18)
(0.481483 -0.332076 -7.52639e-18)
(0.474404 -0.359583 7.75798e-18)
(0.465527 -0.390182 3.88116e-18)
(0.454443 -0.424467 7.90742e-18)
(0.440701 -0.462756 0)
(0.421693 -0.507883 8.05902e-18)
(0.406121 -0.55111 0)
(0.351179 -0.638612 -7.98529e-18)
(0.483446 -0.0683514 5.91417e-18)
(0.484688 -0.0737404 3.00443e-18)
(0.485588 -0.07987 -3.04036e-18)
(0.486748 -0.0864414 2.30953e-18)
(0.487944 -0.0933952 1.60159e-21)
(0.488946 -0.100749 1.5838e-21)
(0.489738 -0.108533 -5.53467e-18)
(0.490362 -0.116775 1.57437e-18)
(0.490813 -0.125506 9.74045e-18)
(0.491058 -0.134764 -8.21855e-18)
(0.491067 -0.144593 1.66837e-18)
(0.490814 -0.155043 -8.43783e-18)
(0.490268 -0.166168 6.83471e-18)
(0.489391 -0.178033 6.93019e-18)
(0.488138 -0.190712 -3.47523e-18)
(0.486454 -0.204291 7.13169e-18)
(0.484274 -0.218871 0)
(0.48152 -0.234566 3.65719e-18)
(0.478095 -0.251513 3.76512e-18)
(0.473879 -0.269871 -7.57781e-18)
(0.468722 -0.289827 0)
(0.46244 -0.311602 -3.93242e-18)
(0.454783 -0.335459 3.19876e-20)
(0.445471 -0.361704 -8.03552e-18)
(0.434051 -0.390719 8.30247e-18)
(0.420133 -0.422948 -1.25806e-17)
(0.402922 -0.458772 0)
(0.380839 -0.49999 -8.4213e-18)
(0.358744 -0.540773 1.5349e-19)
(0.304344 -0.616899 8.68456e-18)
(0.47622 -0.0767386 3.0468e-18)
(0.476925 -0.0821602 -2.68375e-18)
(0.477265 -0.0882684 2.71741e-18)
(0.477902 -0.0947962 -6.30984e-18)
(0.478573 -0.101694 -3.20476e-18)
(0.479018 -0.108978 -8.0804e-19)
(0.479223 -0.116676 3.29189e-18)
(0.479234 -0.124815 7.47751e-18)
(0.479047 -0.133424 3.38353e-18)
(0.478622 -0.142538 -1.70706e-18)
(0.477923 -0.152201 1.73536e-18)
(0.47692 -0.162457 -1.7797e-18)
(0.475577 -0.173359 -7.16873e-18)
(0.47385 -0.184966 3.93615e-21)