/*--------------------------------*- C++ -*----------------------------------*\
  =========                 |
  \\      /  F ield         | OpenFOAM: The Open Source CFD Toolbox
   \\    /   O peration     | Website:  https://openfoam.org
    \\  /    A nd           | Version:  11
     \\/     M anipulation  |
\*---------------------------------------------------------------------------*/
FoamFile
{
    format      ascii;
    class       surfaceScalarField;
    location    "0.3";
    object      phi;
}
// * * * * * * * * * * * * * * * * * * * * * * * * * * * * * * * * * * * * * //

dimensions      [0 3 -1 0 0 0 0];

internalField   nonuniform List<scalar> 
24840
(
1.92439e-05
4.21461e-09
1.922e-05
2.38845e-08
1.92329e-05
-1.28342e-08
1.93103e-05
-7.74374e-08
1.93542e-05
-4.394e-08
1.92573e-05
9.69564e-08
1.91304e-05
1.26908e-07
1.90384e-05
9.19591e-08
1.90101e-05
2.83547e-08
1.90176e-05
-7.57993e-09
1.90471e-05
-2.94288e-08
1.90909e-05
-4.38408e-08
1.91392e-05
-4.82627e-08
1.91862e-05
-4.69832e-08
1.92306e-05
-4.44409e-08
1.92737e-05
-4.30625e-08
1.9317e-05
-4.33213e-08
1.9363e-05
-4.59674e-08
1.9414e-05
-5.1058e-08
1.94723e-05
-5.82842e-08
1.954e-05
-6.77352e-08
1.96196e-05
-7.96001e-08
1.97137e-05
-9.41095e-08
1.98254e-05
-1.11628e-07
1.99577e-05
-1.32315e-07
2.01143e-05
-1.56626e-07
2.02989e-05
-1.8457e-07
2.05116e-05
-2.12766e-07
2.07659e-05
-2.54257e-07
-2.41418e-07
2.10073e-05
1.92466e-05
5.72624e-09
1.92513e-05
1.92268e-08
1.92292e-05
9.28137e-09
1.9202e-05
-5.0269e-08
1.9221e-05
-6.2911e-08
1.92791e-05
3.88424e-08
1.93177e-05
8.82664e-08
1.93481e-05
6.15921e-08
1.93584e-05
1.80556e-08
1.93563e-05
-5.50812e-09
1.93544e-05
-2.75235e-08
1.9358e-05
-4.74777e-08
1.93666e-05
-5.68105e-08
1.93794e-05
-5.98335e-08
1.93971e-05
-6.20837e-08
1.94209e-05
-6.68278e-08
1.94518e-05
-7.42878e-08
1.94895e-05
-8.36473e-08
1.95338e-05
-9.53224e-08
1.95858e-05
-1.10332e-07
1.96473e-05
-1.29259e-07
1.97203e-05
-1.52613e-07
1.98072e-05
-1.81002e-07
1.99108e-05
-2.15155e-07
2.00342e-05
-2.55697e-07
2.0181e-05
-3.03427e-07
2.0355e-05
-3.58634e-07
2.05609e-05
-4.18608e-07
2.08043e-05
-4.97722e-07
-5.20372e-07
2.10833e-05
1.92523e-05
1.53502e-09
1.926e-05
1.15397e-08
1.92701e-05
-7.99028e-10
1.92447e-05
-2.49036e-08
1.91892e-05
-7.35595e-09
1.91995e-05
2.85338e-08
1.9261e-05
2.67221e-08
1.93084e-05
1.42125e-08
1.93293e-05
-2.8051e-09
1.93421e-05
-1.83397e-08
1.93498e-05
-3.5208e-08
1.93555e-05
-5.31796e-08
1.93645e-05
-6.58645e-08
1.93786e-05
-7.38981e-08
1.93978e-05
-8.13312e-08
1.94218e-05
-9.08057e-08
1.94506e-05
-1.03056e-07
1.94851e-05
-1.18167e-07
1.95265e-05
-1.36708e-07
1.95759e-05
-1.59687e-07
1.96346e-05
-1.88037e-07
1.97047e-05
-2.22671e-07
1.97883e-05
-2.64628e-07
1.98882e-05
-3.15071e-07
2.00077e-05
-3.75212e-07
2.01504e-05
-4.46099e-07
2.0321e-05
-5.29193e-07
2.0524e-05
-6.21604e-07
2.0764e-05
-7.37723e-07
-8.0541e-07
2.1049e-05
1.92488e-05
8.3563e-10
1.92535e-05
6.8993e-09
1.92547e-05
-2.04808e-09
1.92477e-05
-1.79109e-08
1.92487e-05
-8.32385e-09
1.92663e-05
1.09647e-08
1.92786e-05
1.43607e-08
1.92932e-05
-3.62016e-10
1.93087e-05
-1.82785e-08
1.93242e-05
-3.38155e-08
1.93384e-05
-4.9443e-08
1.93494e-05
-6.41855e-08
1.93605e-05
-7.70096e-08
1.93747e-05
-8.80801e-08
1.9393e-05
-9.95777e-08
1.94155e-05
-1.1332e-07
1.94426e-05
-1.30141e-07
1.9475e-05
-1.50593e-07
1.95138e-05
-1.75506e-07
1.95601e-05
-2.06003e-07
1.96154e-05
-2.43283e-07
1.96813e-05
-2.88634e-07
1.97602e-05
-3.43532e-07
1.98548e-05
-4.09626e-07
1.99683e-05
-4.88734e-07
2.01047e-05
-5.82477e-07
2.02687e-05
-6.93187e-07
2.04658e-05
-8.18686e-07
2.07011e-05
-9.73071e-07
-1.09093e-06
2.09866e-05
1.92493e-05
-3.66655e-10
1.92548e-05
1.46348e-09
1.92573e-05
-4.5308e-09
1.92519e-05
-1.25353e-08
1.92523e-05
-8.77373e-09
1.92658e-05
-2.49933e-09
1.92837e-05
-3.51146e-09
1.92977e-05
-1.44261e-08
1.93098e-05
-3.03186e-08
1.93215e-05
-4.54994e-08
1.9332e-05
-5.99589e-08
1.93423e-05
-7.45102e-08
1.93537e-05
-8.83885e-08
1.93676e-05
-1.01999e-07
1.93849e-05
-1.1685e-07
1.94058e-05
-1.34295e-07
1.94309e-05
-1.55249e-07
1.94609e-05
-1.80547e-07
1.94966e-05
-2.11227e-07
1.95392e-05
-2.4857e-07
1.95899e-05
-2.94033e-07
1.96506e-05
-3.49266e-07
1.97232e-05
-4.1618e-07
1.98105e-05
-4.96955e-07
1.99158e-05
-5.94038e-07
2.00432e-05
-7.09875e-07
2.01976e-05
-8.47545e-07
2.03853e-05
-1.00642e-06
2.06125e-05
-1.20019e-06
-1.37121e-06
2.08927e-05
1.92488e-05
-1.08199e-09
1.9252e-05
-1.65983e-09
1.92535e-05
-6.01967e-09
1.92536e-05
-1.26642e-08
1.92588e-05
-1.40155e-08
1.92689e-05
-1.25488e-08
1.92814e-05
-1.60245e-08
1.92936e-05
-2.6623e-08
1.93041e-05
-4.0858e-08
1.93143e-05
-5.56844e-08
1.93244e-05
-7.00607e-08
1.93345e-05
-8.46092e-08
1.93457e-05
-9.95802e-08
1.9359e-05
-1.15295e-07
1.9375e-05
-1.32838e-07
1.93941e-05
-1.53388e-07
1.94168e-05
-1.7793e-07
1.94437e-05
-2.07465e-07
1.94757e-05
-2.43195e-07
1.95137e-05
-2.8657e-07
1.95589e-05
-3.39287e-07
1.9613e-05
-4.03333e-07
1.96778e-05
-4.81046e-07
1.9756e-05
-5.7516e-07
1.98508e-05
-6.88801e-07
1.99663e-05
-8.25378e-07
2.01077e-05
-9.88947e-07
2.02819e-05
-1.18063e-06
2.04959e-05
-1.41416e-06
-1.64186e-06
2.07665e-05
1.92487e-05
-1.68278e-09
1.9251e-05
-3.97038e-09
1.92534e-05
-8.39145e-09
1.92548e-05
-1.40279e-08
1.92583e-05
-1.74954e-08
1.92664e-05
-2.06747e-08
1.92774e-05
-2.70794e-08
1.92884e-05
-3.76228e-08
1.92984e-05
-5.08242e-08
1.93077e-05
-6.49831e-08
1.93169e-05
-7.92757e-08
1.93265e-05
-9.41498e-08
1.93369e-05
-1.10061e-07
1.93491e-05
-1.2743e-07
1.93634e-05
-1.47143e-07
1.93802e-05
-1.70256e-07
1.94001e-05
-1.978e-07
1.94235e-05
-2.30891e-07
1.94512e-05
-2.7086e-07
1.9484e-05
-3.19312e-07
1.95228e-05
-3.78162e-07
1.95692e-05
-4.49701e-07
1.96248e-05
-5.36678e-07
1.9692e-05
-6.4238e-07
1.97739e-05
-7.7066e-07
1.98745e-05
-9.25968e-07
1.99991e-05
-1.11353e-06
2.01552e-05
-1.33674e-06
2.03504e-05
-1.60935e-06
-1.89627e-06
2.06048e-05
1.92486e-05
-2.13865e-09
1.92502e-05
-5.57928e-09
1.92518e-05
-1.00262e-08
1.92537e-05
-1.58681e-08
1.92579e-05
-2.16915e-08
1.92649e-05
-2.77152e-08
1.92739e-05
-3.61176e-08
1.92835e-05
-4.71765e-08
1.92924e-05
-5.97136e-08
1.93008e-05
-7.33783e-08
1.93092e-05
-8.7643e-08
1.93179e-05
-1.02848e-07
1.93273e-05
-1.19521e-07
1.9338e-05
-1.38144e-07
1.93504e-05
-1.59512e-07
1.93648e-05
-1.84619e-07
1.93815e-05
-2.14526e-07
1.9401e-05
-2.50422e-07
1.94239e-05
-2.93731e-07
1.94508e-05
-3.46179e-07
1.94825e-05
-4.09866e-07
1.95201e-05
-4.87344e-07
1.95652e-05
-5.81734e-07
1.96196e-05
-6.96844e-07
1.96862e-05
-8.37276e-07
1.97688e-05
-1.00853e-06
1.98725e-05
-1.21719e-06
2.00051e-05
-1.4694e-06
2.01746e-05
-1.77887e-06
-2.12611e-06
2.04045e-05
1.92485e-05
-2.47248e-09
1.92497e-05
-6.77653e-09
1.92512e-05
-1.1561e-08
1.92532e-05
-1.78228e-08
1.92567e-05
-2.5278e-08
1.92626e-05
-3.36167e-08
1.92703e-05
-4.38005e-08
1.92785e-05
-5.53485e-08
1.92863e-05
-6.75394e-08
1.92938e-05
-8.08477e-08
1.93012e-05
-9.50712e-08
1.93089e-05
-1.10522e-07
1.93171e-05
-1.27702e-07
1.93261e-05
-1.47175e-07
1.93363e-05
-1.69707e-07
1.93479e-05
-1.96243e-07
1.93612e-05
-2.27848e-07
1.93766e-05
-2.6575e-07
1.93943e-05
-3.11425e-07
1.94148e-05
-3.66686e-07
1.94387e-05
-4.33761e-07
1.94667e-05
-5.15408e-07
1.95001e-05
-6.15054e-07
1.95402e-05
-7.36963e-07
1.95893e-05
-8.86438e-07
1.96508e-05
-1.07e-06
1.97293e-05
-1.2957e-06
1.98325e-05
-1.57261e-06
1.99683e-05
-1.91468e-06
-2.32079e-06
2.0163e-05
1.92484e-05
-2.7436e-09
1.92493e-05
-7.69799e-09
1.92507e-05
-1.29478e-08
1.92526e-05
-1.96764e-08
1.92556e-05
-2.82709e-08
1.92604e-05
-3.84561e-08
1.92668e-05
-5.01654e-08
1.92737e-05
-6.22658e-08
1.92805e-05
-7.43549e-08
1.9287e-05
-8.73206e-08
1.92933e-05
-1.01369e-07
1.92997e-05
-1.16922e-07
1.93063e-05
-1.34374e-07
1.93135e-05
-1.5434e-07
1.93214e-05
-1.77572e-07
1.93301e-05
-2.04974e-07
1.93398e-05
-2.37595e-07
1.93508e-05
-2.76668e-07
1.9363e-05
-3.23686e-07
1.93768e-05
-3.80495e-07
1.93925e-05
-4.49391e-07
1.94103e-05
-5.33256e-07
1.9431e-05
-6.3573e-07
1.94555e-05
-7.61427e-07
1.94852e-05
-9.16222e-07
1.95228e-05
-1.10756e-06
1.9572e-05
-1.34491e-06
1.96396e-05
-1.64021e-06
1.97329e-05
-2.00799e-06
-2.46727e-06
1.98794e-05
1.92484e-05
-2.99224e-09
1.92491e-05
-8.42421e-09
1.92502e-05
-1.40274e-08
1.92518e-05
-2.12442e-08
1.92543e-05
-3.08426e-08
1.92583e-05
-4.24369e-08
1.92635e-05
-5.5326e-08
1.92691e-05
-6.79472e-08
1.92748e-05
-7.99669e-08
1.92801e-05
-9.27009e-08
1.92853e-05
-1.06567e-07
1.92904e-05
-1.21968e-07
1.92954e-05
-1.39406e-07
1.93006e-05
-1.59506e-07
1.9306e-05
-1.82987e-07
1.93117e-05
-2.10701e-07
1.93178e-05
-2.4366e-07
1.93242e-05
-2.83067e-07
1.93309e-05
-3.30386e-07
1.93378e-05
-3.87438e-07
1.9345e-05
-4.56514e-07
1.93522e-05
-5.40522e-07
1.93597e-05
-6.43187e-07
1.93676e-05
-7.6932e-07
1.93765e-05
-9.2517e-07
1.93878e-05
-1.11889e-06
1.9404e-05
-1.3611e-06
1.94302e-05
-1.66633e-06
1.9472e-05
-2.04982e-06
-2.55081e-06
1.95555e-05
1.92483e-05
-3.17645e-09
1.92489e-05
-8.98729e-09
1.92497e-05
-1.4883e-08
1.9251e-05
-2.25042e-08
1.92531e-05
-3.29219e-08
1.92563e-05
-4.5649e-08
1.92604e-05
-5.94618e-08
1.9265e-05
-7.24762e-08
1.92694e-05
-8.44453e-08
1.92736e-05
-9.68718e-08
1.92775e-05
-1.10425e-07
1.92811e-05
-1.25562e-07
1.92844e-05
-1.42741e-07
1.92875e-05
-1.62627e-07
1.92904e-05
-1.8592e-07
1.92931e-05
-2.13409e-07
1.92955e-05
-2.46045e-07
1.92974e-05
-2.84964e-07
1.92986e-05
-3.31552e-07
1.92987e-05
-3.87544e-07
1.92973e-05
-4.5514e-07
1.9294e-05
-5.3716e-07
1.9288e-05
-6.37263e-07
1.9279e-05
-7.60248e-07
1.92663e-05
-9.12473e-07
1.92498e-05
-1.10243e-06
1.92302e-05
-1.34146e-06
1.92099e-05
-1.64605e-06
1.9192e-05
-2.03192e-06
-2.55635e-06
1.91975e-05
1.92483e-05
-3.31516e-09
1.92487e-05
-9.40263e-09
1.92493e-05
-1.55116e-08
1.92503e-05
-2.34534e-08
1.92519e-05
-3.45244e-08
1.92544e-05
-4.81402e-08
1.92576e-05
-6.26586e-08
1.9261e-05
-7.59233e-08
1.92643e-05
-8.77504e-08
1.92673e-05
-9.9834e-08
1.92698e-05
-1.12975e-07
1.92719e-05
-1.27646e-07
1.92735e-05
-1.44322e-07
1.92745e-05
-1.63681e-07
1.9275e-05
-1.86385e-07
1.92747e-05
-2.13151e-07
1.92735e-05
-2.44842e-07
1.92711e-05
-2.82492e-07
1.92669e-05
-3.27366e-07
1.92604e-05
-3.81045e-07
1.92508e-05
-4.45547e-07
1.92371e-05
-5.23482e-07
1.92181e-05
-6.18269e-07
1.91923e-05
-7.34451e-07
1.9158e-05
-8.7816e-07
1.91133e-05
-1.05773e-06
1.90565e-05
-1.28461e-06
1.89866e-05
-1.57623e-06
1.89028e-05
-1.94804e-06
-2.47085e-06
1.88173e-05
1.92482e-05
-3.41277e-09
1.92485e-05
-9.68681e-09
1.92489e-05
-1.59259e-08
1.92496e-05
-2.40981e-08
1.92507e-05
-3.56697e-08
1.92525e-05
-4.99611e-08
1.92549e-05
-6.49818e-08
1.92573e-05
-7.83634e-08
1.92595e-05
-8.99423e-08
1.92612e-05
-1.01578e-07
1.92625e-05
-1.14194e-07
1.9263e-05
-1.28224e-07
1.92629e-05
-1.44163e-07
1.92619e-05
-1.62705e-07
1.926e-05
-1.8446e-07
1.92569e-05
-2.1005e-07
1.92523e-05
-2.40231e-07
1.92457e-05
-2.75906e-07
1.92365e-05
-3.18166e-07
1.92238e-05
-3.6838e-07
1.92066e-05
-4.28294e-07
1.91833e-05
-5.0018e-07
1.9152e-05
-5.87036e-07
1.91105e-05
-6.92886e-07
1.90556e-05
-8.23257e-07
1.89836e-05
-9.85749e-07
1.88901e-05
-1.1911e-06
1.87702e-05
-1.45633e-06
1.86176e-05
-1.79549e-06
-2.28592e-06
1.84327e-05
1.92482e-05
-3.4699e-09
1.92484e-05
-9.85276e-09
1.92486e-05
-1.61453e-08
1.92489e-05
-2.44566e-08
1.92497e-05
-3.63914e-08
1.92509e-05
-5.11672e-08
1.92524e-05
-6.65133e-08
1.92539e-05
-7.98633e-08
1.9255e-05
-9.10381e-08
1.92555e-05
-1.02127e-07
1.92555e-05
-1.14122e-07
1.92546e-05
-1.27329e-07
1.92527e-05
-1.42312e-07
1.92498e-05
-1.59784e-07
1.92456e-05
-1.80273e-07
1.92399e-05
-2.04294e-07
1.92321e-05
-2.32478e-07
1.92218e-05
-2.65564e-07
1.9208e-05
-3.04435e-07
1.91898e-05
-3.50185e-07
1.91658e-05
-4.0421e-07
1.91339e-05
-4.68322e-07
1.90918e-05
-5.44925e-07
1.90362e-05
-6.37261e-07
1.89628e-05
-7.49867e-07
1.8866e-05
-8.88987e-07
1.87387e-05
-1.0638e-06
1.85716e-05
-1.28921e-06
1.83526e-05
-1.57651e-06
-2.00089e-06
1.80676e-05
1.92482e-05
-3.48706e-09
1.92482e-05
-9.91196e-09
1.92483e-05
-1.61921e-08
1.92484e-05
-2.45522e-08
1.92487e-05
-3.67246e-08
1.92493e-05
-5.18235e-08
1.92502e-05
-6.73442e-08
1.92508e-05
-8.04733e-08
1.92508e-05
-9.10813e-08
1.92502e-05
-1.01544e-07
1.92489e-05
-1.12801e-07
1.92466e-05
-1.25022e-07
1.92432e-05
-1.38856e-07
1.92384e-05
-1.55038e-07
1.92321e-05
-1.73998e-07
1.9224e-05
-1.96127e-07
1.92134e-05
-2.21918e-07
1.91998e-05
-2.51924e-07
1.91821e-05
-2.86784e-07
1.91592e-05
-3.27273e-07
1.91294e-05
-3.74368e-07
1.90904e-05
-4.29321e-07
1.90392e-05
-4.93792e-07
1.8972e-05
-5.70015e-07
1.88833e-05
-6.61166e-07
1.87659e-05
-7.71595e-07
1.86101e-05
-9.08042e-07
1.84025e-05
-1.08156e-06
1.81255e-05
-1.29948e-06
-1.62512e-06
1.77497e-05
1.92481e-05
-3.47197e-09
1.92481e-05
-9.87823e-09
1.9248e-05
-1.60816e-08
1.92478e-05
-2.44024e-08
1.92478e-05
-3.66998e-08
1.9248e-05
-5.19911e-08
1.92481e-05
-6.75077e-08
1.92479e-05
-8.0288e-08
1.92471e-05
-9.02375e-08
1.92455e-05
-9.99166e-08
1.92429e-05
-1.10276e-07
1.92393e-05
-1.21358e-07
1.92343e-05
-1.33887e-07
1.92279e-05
-1.48609e-07
1.92197e-05
-1.65837e-07
1.92094e-05
-1.85834e-07
1.91965e-05
-2.08943e-07
1.91801e-05
-2.35517e-07
1.91592e-05
-2.65926e-07
1.91325e-05
-3.00597e-07
1.90982e-05
-3.40039e-07
1.90537e-05
-3.84879e-07
1.89959e-05
-4.35917e-07
1.89201e-05
-4.94214e-07
1.88202e-05
-5.61291e-07
1.86878e-05
-6.39217e-07
1.85112e-05
-7.31458e-07
1.82735e-05
-8.43828e-07
1.79531e-05
-9.79053e-07
-1.17888e-06
1.75068e-05
1.92481e-05
-3.42564e-09
1.9248e-05
-9.76726e-09
1.92477e-05
-1.58345e-08
1.92473e-05
-2.40227e-08
1.9247e-05
-3.63265e-08
1.92467e-05
-5.17514e-08
1.92464e-05
-6.718e-08
1.92455e-05
-7.94041e-08
1.92438e-05
-8.85341e-08
1.92412e-05
-9.73383e-08
1.92376e-05
-1.06644e-07
1.92327e-05
-1.16408e-07
1.92263e-05
-1.27509e-07
1.92183e-05
-1.40658e-07
1.92085e-05
-1.56022e-07
1.91964e-05
-1.73734e-07
1.91815e-05
-1.93987e-07
1.91629e-05
-2.16926e-07
1.91396e-05
-2.42643e-07
1.91102e-05
-2.71205e-07
1.90728e-05
-3.02634e-07
1.90248e-05
-3.36896e-07
1.89628e-05
-3.73879e-07
1.88819e-05
-4.13381e-07
1.87757e-05
-4.55103e-07
1.86352e-05
-4.98626e-07
1.84473e-05
-5.43572e-07
1.81932e-05
-5.8981e-07
1.78491e-05
-6.3491e-07
-6.91921e-07
1.73621e-05
1.92481e-05
-3.35581e-09
1.92479e-05
-9.59663e-09
1.92475e-05
-1.54558e-08
1.92469e-05
-2.34438e-08
1.92463e-05
-3.57378e-08
1.92458e-05
-5.1189e-08
1.9245e-05
-6.63747e-08
1.92435e-05
-7.78786e-08
1.9241e-05
-8.60812e-08
1.92376e-05
-9.39441e-08
1.9233e-05
-1.01998e-07
1.92268e-05
-1.10255e-07
1.92191e-05
-1.19836e-07
1.92098e-05
-1.31354e-07
1.91986e-05
-1.44787e-07
1.9185e-05
-1.60152e-07
1.91685e-05
-1.77496e-07
1.91483e-05
-1.96752e-07
1.91235e-05
-2.17745e-07
1.90924e-05
-2.40185e-07
1.90534e-05
-2.63621e-07
1.90039e-05
-2.87365e-07
1.89404e-05
-3.10404e-07
1.88583e-05
-3.31276e-07
1.87511e-05
-3.47851e-07
1.86096e-05
-3.57209e-07
1.84211e-05
-3.55008e-07
1.81662e-05
-3.34947e-07
1.78213e-05
-2.90013e-07
-2.01989e-07
1.73314e-05
1.9248e-05
-3.26592e-09
1.92478e-05
-9.40051e-09
1.92474e-05
-1.49953e-08
1.92466e-05
-2.26653e-08
1.92458e-05
-3.49207e-08
1.9245e-05
-5.04111e-08
1.92438e-05
-6.52101e-08
1.92418e-05
-7.58738e-08
1.92389e-05
-8.3107e-08
1.92347e-05
-8.97872e-08
1.9229e-05
-9.63044e-08
1.92217e-05
-1.02973e-07
1.92129e-05
-1.11022e-07
1.92024e-05
-1.20869e-07
1.919e-05
-1.32361e-07
1.91753e-05
-1.4541e-07
1.91577e-05
-1.59909e-07
1.91365e-05
-1.7559e-07
1.91108e-05
-1.92029e-07
1.90792e-05
-2.08612e-07
1.90401e-05
-2.24448e-07
1.89909e-05
-2.38254e-07
1.89287e-05
-2.48188e-07
1.88491e-05
-2.51622e-07
1.8746e-05
-2.44779e-07
1.86112e-05
-2.22392e-07
1.84327e-05
-1.76567e-07
1.81931e-05
-9.52784e-08
1.78702e-05
3.28879e-08
2.5451e-07
1.74137e-05
1.9248e-05
-3.16976e-09
1.92479e-05
-9.21857e-09
1.92473e-05
-1.44327e-08
1.92463e-05
-2.16533e-08
1.92452e-05
-3.38512e-08
1.92443e-05
-4.95268e-08
1.9243e-05
-6.38523e-08
1.92407e-05
-7.36276e-08
1.92375e-05
-7.99294e-08
1.92327e-05
-8.49734e-08
1.9226e-05
-8.95741e-08
1.92176e-05
-9.45791e-08
1.92077e-05
-1.01107e-07
1.91961e-05
-1.09323e-07
1.91827e-05
-1.18953e-07
1.91671e-05
-1.29812e-07
1.91489e-05
-1.41642e-07
1.91273e-05
-1.53999e-07
1.91015e-05
-1.66243e-07
1.90704e-05
-1.77481e-07
1.90324e-05
-1.86455e-07
1.89855e-05
-1.91381e-07
1.8927e-05
-1.8972e-07
1.88533e-05
-1.77877e-07
1.87592e-05
-1.50702e-07
1.86377e-05
-1.00919e-07
1.84793e-05
-1.81364e-08
1.82691e-05
1.14902e-07
1.7989e-05
3.13046e-07
6.41251e-07
1.76022e-05
1.9248e-05
-3.06878e-09
1.9248e-05
-9.14705e-09
1.92474e-05
-1.3903e-08
1.92461e-05
-2.03451e-08
1.92448e-05
-3.25633e-08
1.9244e-05
-4.8729e-08
1.92427e-05
-6.24873e-08
1.92403e-05
-7.12258e-08
1.92368e-05
-7.64339e-08
1.92313e-05
-7.95049e-08
1.92237e-05
-8.19353e-08
1.92143e-05
-8.51744e-08
1.92034e-05
-9.01958e-08
1.91909e-05
-9.68575e-08
1.91767e-05
-1.04767e-07
1.91605e-05
-1.13636e-07
1.9142e-05
-1.23071e-07
1.91204e-05
-1.32476e-07
1.90952e-05
-1.41041e-07
1.90654e-05
-1.47662e-07
1.90298e-05
-1.50803e-07
1.89867e-05
-1.48303e-07
1.89341e-05
-1.37113e-07
1.88691e-05
-1.12945e-07
1.87881e-05
-6.97092e-08
1.86861e-05
1.14034e-09
1.85551e-05
1.12829e-07
1.83862e-05
2.83862e-07
1.81659e-05
5.33283e-07
9.33786e-07
1.78734e-05
1.9248e-05
-2.97315e-09
1.92482e-05
-9.28398e-09
1.92475e-05
-1.32349e-08
1.92458e-05
-1.86289e-08
1.92445e-05
-3.1272e-08
1.92441e-05
-4.83044e-08
1.92432e-05
-6.16365e-08
1.92408e-05
-6.88212e-08
1.92369e-05
-7.24728e-08
1.92306e-05
-7.32382e-08
1.9222e-05
-7.33364e-08
1.92117e-05
-7.48485e-08
1.91998e-05
-7.8358e-08
1.91866e-05
-8.35818e-08
1.91718e-05
-8.99797e-08
1.91553e-05
-9.71278e-08
1.91367e-05
-1.04515e-07
1.91157e-05
-1.11436e-07
1.90916e-05
-1.16961e-07
1.90638e-05
-1.1985e-07
1.90314e-05
-1.18399e-07
1.89933e-05
-1.10235e-07
1.89482e-05
-9.19926e-08
1.88942e-05
-5.89727e-08
1.88296e-05
-5.07039e-09
1.87501e-05
8.06043e-08
1.86529e-05
2.09995e-07
1.85329e-05
4.0387e-07
1.83837e-05
6.82466e-07
1.11758e-06
1.82e-05
1.92481e-05
-2.96215e-09
1.92488e-05
-9.97836e-09
1.92487e-05
-1.30994e-08
1.92461e-05
-1.60345e-08
1.92431e-05
-2.83333e-08
1.92432e-05
-4.83076e-08
1.92438e-05
-6.22785e-08
1.9242e-05
-6.70011e-08
1.92377e-05
-6.81522e-08
1.92306e-05
-6.62327e-08
1.92213e-05
-6.39835e-08
1.921e-05
-6.35543e-08
1.91972e-05
-6.55536e-08
1.91831e-05
-6.95105e-08
1.91678e-05
-7.46807e-08
1.91512e-05
-8.04545e-08
1.91329e-05
-8.6217e-08
1.91126e-05
-9.11947e-08
1.909e-05
-9.43983e-08
1.90647e-05
-9.45381e-08
1.90362e-05
-8.98654e-08
1.90039e-05
-7.79581e-08
1.89674e-05
-5.54198e-08
1.8926e-05
-1.75851e-08
1.88785e-05
4.24241e-08
1.88248e-05
1.34281e-07
1.87642e-05
2.70633e-07
1.86967e-05
4.71338e-07
1.86223e-05
7.56873e-07
1.18993e-06
1.85499e-05
1.92482e-05
-3.0523e-09
1.92497e-05
-1.14116e-08
1.92482e-05
-1.16367e-08
1.92437e-05
-1.15582e-08
1.92423e-05
-2.68892e-08
1.9244e-05
-5.00525e-08
1.92447e-05
-6.29499e-08
1.92433e-05
-6.56516e-08
1.92391e-05
-6.38665e-08
1.92316e-05
-5.88115e-08
1.92215e-05
-5.38844e-08
1.92092e-05
-5.11731e-08
1.91953e-05
-5.17268e-08
1.91805e-05
-5.46853e-08
1.91648e-05
-5.8952e-08
1.9148e-05
-6.37286e-08
1.91302e-05
-6.83284e-08
1.91109e-05
-7.19436e-08
1.90901e-05
-7.35778e-08
1.90675e-05
-7.19832e-08
1.90432e-05
-6.54971e-08
1.9017e-05
-5.18122e-08
1.89893e-05
-2.77382e-08
1.89605e-05
1.12385e-08
1.89313e-05
7.16009e-08
1.89036e-05
1.62061e-07
1.88795e-05
2.94653e-07
1.88639e-05
4.8694e-07
1.8862e-05
7.58785e-07
1.15738e-06
1.88946e-05
1.92487e-05
-3.66841e-09
1.92525e-05
-1.51597e-08
1.92522e-05
-1.13222e-08
1.92428e-05
-2.13562e-09
1.92351e-05
-1.92411e-08
1.92396e-05
-5.45332e-08
1.92453e-05
-6.86859e-08
1.92449e-05
-6.5185e-08
1.92399e-05
-5.88679e-08
1.92331e-05
-5.20849e-08
1.92227e-05
-4.34754e-08
1.92093e-05
-3.77451e-08
1.91942e-05
-3.6587e-08
1.91784e-05
-3.88874e-08
1.91622e-05
-4.27657e-08
1.91455e-05
-4.70387e-08
1.91281e-05
-5.09832e-08
1.911e-05
-5.3819e-08
1.9091e-05
-5.46099e-08
1.90713e-05
-5.22464e-08
1.90511e-05
-4.52755e-08
1.90309e-05
-3.16582e-08
1.90118e-05
-8.64466e-09
1.89952e-05
2.78567e-08
1.89835e-05
8.33189e-08
1.89801e-05
1.65466e-07
1.89901e-05
2.84632e-07
1.90222e-05
4.54841e-07
1.9086e-05
6.95046e-07
1.03307e-06
1.92103e-05
1.92482e-05
-3.78135e-09
1.92509e-05
-1.78232e-08
1.92494e-05
-9.77234e-09
1.9236e-05
1.12693e-08
1.92324e-05
-1.56604e-08
1.92392e-05
-6.13982e-08
1.92384e-05
-6.78468e-08
1.92373e-05
-6.413e-08
1.92368e-05
-5.8288e-08
1.92326e-05
-4.79132e-08
1.9224e-05
-3.48815e-08
1.92103e-05
-2.40533e-08
1.9194e-05
-2.02857e-08
1.91772e-05
-2.20487e-08
1.91604e-05
-2.60058e-08
1.91437e-05
-3.02982e-08
1.91268e-05
-3.41239e-08
1.91097e-05
-3.67582e-08
1.90925e-05
-3.73807e-08
1.90754e-05
-3.51205e-08
1.9059e-05
-2.8847e-08
1.90442e-05
-1.69446e-08
1.90328e-05
2.75799e-09
1.90272e-05
3.3499e-08
1.90308e-05
7.96759e-08
1.90487e-05
1.47583e-07
1.90881e-05
2.45219e-07
1.91609e-05
3.82123e-07
1.92796e-05
5.76309e-07
8.33895e-07
1.94788e-05
1.92517e-05
-7.31082e-09
1.92582e-05
-2.436e-08
1.9264e-05
-1.55601e-08
1.92355e-05
3.97517e-08
1.91731e-05
4.67902e-08
1.91741e-05
-6.24143e-08
1.92227e-05
-1.16477e-07
1.92543e-05
-9.57113e-08
1.92549e-05
-5.8883e-08
1.92447e-05
-3.77045e-08
1.92303e-05
-2.05089e-08
1.92119e-05
-5.70537e-09
1.91924e-05
-7.77115e-10
1.91742e-05
-3.84318e-09
1.91573e-05
-9.0813e-09
1.9141e-05
-1.40075e-08
1.9125e-05
-1.81365e-08
1.91092e-05
-2.09702e-08
1.90938e-05
-2.18904e-08
1.9079e-05
-2.03815e-08
1.90659e-05
-1.56938e-08
1.90556e-05
-6.71334e-09
1.90505e-05
7.89968e-09
1.90539e-05
3.00729e-08
1.907e-05
6.35635e-08
1.91048e-05
1.12784e-07
1.91674e-05
1.82687e-07
1.92715e-05
2.77965e-07
1.94325e-05
4.15345e-07
5.78445e-07
1.96879e-05
1.92459e-05
-5.03391e-09
1.92485e-05
-2.7038e-08
1.92236e-05
9.39902e-09
1.91932e-05
7.01726e-08
1.92055e-05
3.4446e-08
1.92518e-05
-1.08712e-07
1.92776e-05
-1.42245e-07
1.92907e-05
-1.08874e-07
1.92786e-05
-4.67268e-08
1.92535e-05
-1.26509e-08
1.92282e-05
4.81043e-09
1.92055e-05
1.69678e-08
1.91855e-05
1.9228e-08
1.9168e-05
1.37248e-08
1.91523e-05
6.54559e-09
1.91375e-05
7.68885e-10
1.9123e-05
-3.63727e-09
1.91088e-05
-6.71243e-09
1.9095e-05
-8.12586e-09
1.90825e-05
-7.81097e-09
1.90722e-05
-5.43236e-09
1.90663e-05
-8.10821e-10
1.90666e-05
7.57653e-09
1.90759e-05
2.0816e-08
1.90997e-05
3.97306e-08
1.91458e-05
6.67116e-08
1.92237e-05
1.04798e-07
1.93461e-05
1.55568e-07
1.95337e-05
2.27712e-07
2.78678e-07
1.98335e-05
1.92431e-05
1.92161e-05
1.92255e-05
1.92956e-05
1.93301e-05
1.92214e-05
1.90791e-05
1.89702e-05
1.89235e-05
1.89109e-05
1.89157e-05
1.89326e-05
1.89519e-05
1.89656e-05
1.89721e-05
1.89729e-05
1.89693e-05
1.89626e-05
1.89544e-05
1.89466e-05
1.89412e-05
1.89404e-05
1.8948e-05
1.89688e-05
1.90085e-05
1.90752e-05
1.918e-05
1.93356e-05
1.95633e-05
1.9842e-05
2.05354e-05
-9.66878e-06
1.01407e-05
2.00638e-05
-9.74442e-06
1.0216e-05
1.95777e-05
-9.8183e-06
1.03043e-05
1.90753e-05
-9.88758e-06
1.039e-05
1.85592e-05
-9.95627e-06
1.04724e-05
1.8032e-05
-1.00262e-05
1.05534e-05
1.74953e-05
-1.00977e-05
1.06344e-05
1.69507e-05
-1.01716e-05
1.07162e-05
1.63991e-05
-1.02486e-05
1.08001e-05
1.58411e-05
-1.03292e-05
1.08873e-05
1.52767e-05
-1.04142e-05
1.09786e-05
1.47056e-05
-1.05039e-05
1.10751e-05
1.41271e-05
-1.05992e-05
1.11776e-05
1.35405e-05
-1.07007e-05
1.12873e-05
1.29448e-05
-1.08095e-05
1.14052e-05
1.23388e-05
-1.09269e-05
1.15328e-05
1.17213e-05
-1.10543e-05
1.16719e-05
1.10902e-05
-1.11934e-05
1.18244e-05
1.04434e-05
-1.13461e-05
1.19929e-05
9.77776e-06
-1.15145e-05
1.21801e-05
9.0893e-06
-1.17011e-05
1.23895e-05
8.37292e-06
-1.19089e-05
1.26252e-05
7.62193e-06
-1.21414e-05
1.28924e-05
6.82733e-06
-1.24038e-05
1.31984e-05
5.97699e-06
-1.27004e-05
1.35508e-05
5.05341e-06
-1.30415e-05
1.39651e-05
4.03584e-06
-1.34225e-05
1.44401e-05
2.87462e-06
-1.38824e-05
1.50436e-05
1.59014e-06
-1.43086e-05
1.55931e-05
-1.51551e-05
1.67452e-05
2.06036e-05
-9.18912e-06
2.01058e-05
-9.2466e-06
1.95938e-05
-9.30629e-06
1.90722e-05
-9.36597e-06
1.85431e-05
-9.42718e-06
1.80077e-05
-9.49072e-06
1.74666e-05
-9.55668e-06
1.69202e-05
-9.62525e-06
1.63685e-05
-9.69682e-06
1.58109e-05
-9.77169e-06
1.52469e-05
-9.8502e-06
1.46758e-05
-9.93282e-06
1.40968e-05
-1.00201e-05
1.35091e-05
-1.01129e-05
1.29117e-05
-1.02121e-05
1.23034e-05
-1.03186e-05
1.16829e-05
-1.04337e-05
1.10482e-05
-1.05587e-05
1.03968e-05
-1.06947e-05
9.72561e-06
-1.08433e-05
9.03067e-06
-1.10061e-05
8.30696e-06
-1.11851e-05
7.54805e-06
-1.13825e-05
6.74539e-06
-1.16012e-05
5.88778e-06
-1.18428e-05
4.95959e-06
-1.21133e-05
3.94082e-06
-1.24037e-05
2.80114e-06
-1.27427e-05
1.52662e-06
-1.3034e-05
-1.36285e-05
2.0549e-05
-8.68909e-06
2.004e-05
-8.7376e-06
1.95227e-05
-8.78897e-06
1.89997e-05
-8.84304e-06
1.8472e-05
-8.89949e-06
1.79393e-05
-8.95798e-06
1.74011e-05
-9.01849e-06
1.68571e-05
-9.08127e-06
1.6307e-05
-9.14663e-06
1.57501e-05
-9.21485e-06
1.51862e-05
-9.28624e-06
1.46146e-05
-9.36121e-06
1.40347e-05
-9.4403e-06
1.34459e-05
-9.52409e-06
1.28471e-05
-9.6133e-06
1.22371e-05
-9.7087e-06
1.16145e-05
-9.81108e-06
1.09771e-05
-9.92126e-06
1.03224e-05
-1.004e-05
9.64742e-06
-1.01683e-05
8.94814e-06
-1.03069e-05
8.21974e-06
-1.04567e-05
7.45606e-06
-1.06188e-05
6.64901e-06
-1.07941e-05
5.78829e-06
-1.09821e-05
4.8598e-06
-1.11848e-05
3.84608e-06
-1.139e-05
2.72308e-06
-1.16197e-05
1.46489e-06
-1.17759e-05
-1.21636e-05
2.04809e-05
-8.18337e-06
1.99691e-05
-8.22576e-06
1.94508e-05
-8.27073e-06
1.89273e-05
-8.31955e-06
1.83988e-05
-8.37093e-06
1.78647e-05
-8.42387e-06
1.73246e-05
-8.47846e-06
1.67785e-05
-8.53514e-06
1.62261e-05
-8.59421e-06
1.5667e-05
-8.65582e-06
1.5101e-05
-8.72015e-06
1.45272e-05
-8.7875e-06
1.39452e-05
-8.85826e-06
1.3354e-05
-8.93288e-06
1.27526e-05
-9.01186e-06
1.21396e-05
-9.09571e-06
1.15134e-05
-9.18491e-06
1.0872e-05
-9.27986e-06
1.02129e-05
-9.38093e-06
9.53299e-06
-9.48839e-06
8.82861e-06
-9.60247e-06
8.09511e-06
-9.72324e-06
7.32674e-06
-9.85045e-06
6.51611e-06
-9.98351e-06
5.65404e-06
-1.012e-05
4.72813e-06
-1.02589e-05
3.72403e-06
-1.03859e-05
2.62102e-06
-1.05167e-05
1.39422e-06
-1.05491e-05
-1.07694e-05
2.03826e-05
-7.67325e-06
1.98673e-05
-7.71044e-06
1.93463e-05
-7.7497e-06
1.88201e-05
-7.79336e-06
1.82888e-05
-7.83966e-06
1.77522e-05
-7.88725e-06
1.72099e-05
-7.93622e-06
1.66618e-05
-7.98704e-06
1.61076e-05
-8.03993e-06
1.55466e-05
-8.0949e-06
1.49785e-05
-8.15201e-06
1.44025e-05
-8.21149e-06
1.38179e-05
-8.27365e-06
1.32238e-05
-8.3388e-06
1.26192e-05
-8.40724e-06
1.20027e-05
-8.47921e-06
1.13727e-05
-8.55487e-06
1.07271e-05
-8.63428e-06
1.00635e-05
-8.71738e-06
9.37911e-06
-8.80399e-06
8.67036e-06
-8.89372e-06
7.93301e-06
-8.98589e-06
7.16183e-06
-9.07927e-06
6.35027e-06
-9.17194e-06
5.49033e-06
-9.26008e-06
4.57144e-06
-9.34001e-06
3.58204e-06
-9.39653e-06
2.50402e-06
-9.43867e-06
1.31889e-06
-9.36392e-06
-9.45047e-06
2.02525e-05
-7.15925e-06
1.97338e-05
-7.19169e-06
1.92097e-05
-7.22565e-06
1.86808e-05
-7.26438e-06
1.81469e-05
-7.30579e-06
1.76079e-05
-7.3482e-06
1.70632e-05
-7.39161e-06
1.65127e-05
-7.4365e-06
1.59558e-05
-7.483e-06
1.5392e-05
-7.53108e-06
1.48207e-05
-7.58076e-06
1.42414e-05
-7.63219e-06
1.36534e-05
-7.6856e-06
1.30557e-05
-7.74112e-06
1.24473e-05
-7.79882e-06
1.18268e-05
-7.85871e-06
1.11925e-05
-7.92065e-06
1.05427e-05
-7.98441e-06
9.87488e-06
-8.04959e-06
9.1865e-06
-8.11561e-06
8.47437e-06
-8.18159e-06
7.73467e-06
-8.2462e-06
6.9628e-06
-8.30741e-06
6.15311e-06
-8.36225e-06
5.29885e-06
-8.40583e-06
4.39133e-06
-8.43248e-06
3.42163e-06
-8.42683e-06
2.37466e-06
-8.3917e-06
1.23989e-06
-8.22915e-06
-8.21058e-06
2.00867e-05
-6.64121e-06
1.95643e-05
-6.66926e-06
1.9037e-05
-6.69833e-06
1.85049e-05
-6.73232e-06
1.7968e-05
-6.76888e-06
1.74259e-05
-6.80607e-06
1.68781e-05
-6.84382e-06
1.63242e-05
-6.88262e-06
1.57638e-05
-6.92261e-06
1.51965e-05
-6.96372e-06
1.46216e-05
-7.00592e-06
1.40387e-05
-7.04929e-06
1.3447e-05
-7.09389e-06
1.28456e-05
-7.13969e-06
1.22333e-05
-7.18656e-06
1.16089e-05
-7.23428e-06
1.09707e-05
-7.28251e-06
1.03171e-05
-7.33077e-06
9.64592e-06
-7.37841e-06
8.95482e-06
-7.4245e-06
8.24101e-06
-7.46777e-06
7.50118e-06
-7.50637e-06
6.73143e-06
-7.53765e-06
5.92704e-06
-7.55786e-06
5.08258e-06
-7.56137e-06
4.19124e-06
-7.54114e-06
3.24659e-06
-7.48218e-06
2.23697e-06
-7.38208e-06
1.15996e-06
-7.15214e-06
-7.05061e-06
1.98823e-05
-6.11904e-06
1.9356e-05
-6.14301e-06
1.88252e-05
-6.16746e-06
1.82896e-05
-6.19674e-06
1.77491e-05
-6.22837e-06
1.72033e-05
-6.26026e-06
1.66517e-05
-6.29229e-06
1.60941e-05
-6.32497e-06
1.55299e-05
-6.35846e-06
1.49589e-05
-6.39265e-06
1.43804e-05
-6.42743e-06
1.37939e-05
-6.46275e-06
1.31985e-05
-6.49854e-06
1.25934e-05
-6.53462e-06
1.19776e-05
-6.57068e-06
1.13496e-05
-6.60635e-06
1.07082e-05
-6.64113e-06
1.00518e-05
-6.67437e-06
9.37864e-06
-6.7052e-06
8.68659e-06
-6.73245e-06
7.97333e-06
-6.75451e-06
7.2361e-06
-6.76915e-06
6.47171e-06
-6.77326e-06
5.67643e-06
-6.76258e-06
4.84611e-06
-6.73105e-06
3.97579e-06
-6.67082e-06
3.06133e-06
-6.56772e-06
2.09447e-06
-6.41522e-06
1.07915e-06
-6.13682e-06
-5.97147e-06
1.96365e-05
-5.59257e-06
1.91062e-05
-5.61265e-06
1.85714e-05
-5.63268e-06
1.80319e-05
-5.65726e-06
1.74875e-05
-5.68393e-06
1.69377e-05
-5.7105e-06
1.63823e-05
-5.73687e-06
1.58209e-05
-5.76355e-06
1.52531e-05
-5.79067e-06
1.46785e-05
-5.81806e-06
1.40966e-05
-5.84552e-06
1.35067e-05
-5.87288e-06
1.29081e-05
-5.89995e-06
1.22999e-05
-5.92643e-06
1.16812e-05
-5.9519e-06
1.10507e-05
-5.97588e-06
1.04073e-05
-5.99778e-06
9.74979e-06
-6.01681e-06
9.07654e-06
-6.03195e-06
8.38591e-06
-6.04183e-06
7.67598e-06
-6.04458e-06
6.94455e-06
-6.03772e-06
6.18914e-06
-6.01785e-06
5.407e-06
-5.98044e-06
4.5952e-06
-5.91926e-06
3.75054e-06
-5.82615e-06
2.87088e-06
-5.68807e-06
1.95123e-06
-5.49556e-06
1.00049e-06
-5.18609e-06
-4.97097e-06
1.93485e-05
-5.06169e-06
1.88139e-05
-5.07806e-06
1.82752e-05
-5.09393e-06
1.77318e-05
-5.1139e-06
1.71835e-05
-5.13563e-06
1.663e-05
-5.15701e-06
1.60711e-05
-5.17789e-06
1.55062e-05
-5.19875e-06
1.49353e-05
-5.21968e-06
1.43577e-05
-5.24045e-06
1.37729e-05
-5.26076e-06
1.31803e-05
-5.28033e-06
1.25793e-05
-5.2989e-06
1.1969e-05
-5.31609e-06
1.13485e-05
-5.33143e-06
1.0717e-05
-5.34438e-06
1.00735e-05
-5.35428e-06
9.41691e-06
-5.36023e-06
8.74607e-06
-5.36112e-06
8.05965e-06
-5.3554e-06
7.35615e-06
-5.34108e-06
6.63393e-06
-5.31549e-06
5.89121e-06
-5.27513e-06