/*--------------------------------*- C++ -*----------------------------------*\
  =========                 |
  \\      /  F ield         | OpenFOAM: The Open Source CFD Toolbox
   \\    /   O peration     | Website:  https://openfoam.org
    \\  /    A nd           | Version:  11
     \\/     M anipulation  |
\*---------------------------------------------------------------------------*/
FoamFile
{
    format      ascii;
    class       volVectorField;
    location    "0.3";
    object      U;
}
// * * * * * * * * * * * * * * * * * * * * * * * * * * * * * * * * * * * * * //

dimensions      [0 1 -1 0 0 0 0];

internalField   nonuniform List<vector> 
12600
(
(0.400585 0.000102108 0)
(0.400704 0.000254532 0)
(0.399234 -0.000507035 0)
(0.399697 -0.00105861 0)
(0.402051 3.43855e-05 0)
(0.401093 0.00179497 0)
(0.396483 0.00176369 0)
(0.393006 0.000600263 0)
(0.392719 -0.000377016 0)
(0.393853 -0.000542329 0)
(0.394911 -0.000543589 0)
(0.395862 -0.000462456 0)
(0.396822 -0.000343821 0)
(0.397699 -0.00025476 0)
(0.398476 -0.000223509 0)
(0.399252 -0.000231048 0)
(0.400111 -0.000253636 0)
(0.401098 -0.000285104 0)
(0.402268 -0.000335622 0)
(0.403693 -0.000409066 0)
(0.405444 -0.000504788 0)
(0.407603 -0.000624565 0)
(0.410268 -0.000773015 0)
(0.413563 -0.000957825 0)
(0.417647 -0.00118771 0)
(0.422713 -0.00147415 0)
(0.429 -0.00183512 0)
(0.436776 -0.00223047 0)
(0.446377 -0.00294813 0)
(0.460122 -0.0025646 0)
(0.400205 0.000197092 0)
(0.401777 0.000374496 0)
(0.400718 -0.000436045 0)
(0.396681 -0.00114379 0)
(0.397407 -4.69007e-05 0)
(0.402095 0.00203744 0)
(0.402478 0.00204494 0)
(0.401964 0.00080997 0)
(0.401771 -6.53138e-05 0)
(0.401844 -0.000374664 0)
(0.401682 -0.000525142 0)
(0.401619 -0.000599176 0)
(0.401841 -0.000585633 0)
(0.402244 -0.000543996 0)
(0.402715 -0.000540291 0)
(0.403252 -0.00058615 0)
(0.403887 -0.000675174 0)
(0.404779 -0.000807147 0)
(0.405887 -0.00098079 0)
(0.407229 -0.00119845 0)
(0.408866 -0.00147038 0)
(0.410872 -0.00181094 0)
(0.413343 -0.00223655 0)
(0.416396 -0.00276823 0)
(0.420173 -0.00343112 0)
(0.424867 -0.00425766 0)
(0.430663 -0.00528399 0)
(0.437919 -0.00650416 0)
(0.446804 -0.00825521 0)
(0.458455 -0.00885753 0)
(0.400255 0.000137571 0)
(0.401908 0.000354323 0)
(0.401269 9.54902e-05 0)
(0.397783 -0.000538564 0)
(0.397284 -0.000334256 0)
(0.399311 0.000557974 0)
(0.401047 0.000652575 0)
(0.401113 0.000190569 0)
(0.40135 1.00535e-05 0)
(0.401866 -0.00013142 0)
(0.401836 -0.000409935 0)
(0.401742 -0.000623636 0)
(0.401889 -0.000690572 0)
(0.40224 -0.000713024 0)
(0.402687 -0.000772524 0)
(0.403241 -0.000882452 0)
(0.40394 -0.00105396 0)
(0.404793 -0.00129245 0)
(0.405829 -0.00158553 0)
(0.407102 -0.00193966 0)
(0.408677 -0.00237869 0)
(0.410621 -0.00292846 0)
(0.413022 -0.0036162 0)
(0.415993 -0.00447485 0)
(0.419669 -0.00554678 0)
(0.424239 -0.00687924 0)
(0.429883 -0.00854199 0)
(0.436999 -0.0105553 0)
(0.445577 -0.0132392 0)
(0.457355 -0.0153293 0)
(0.40024 7.85667e-05 0)
(0.401869 0.000258076 0)
(0.401265 -0.000116332 0)
(0.397843 -0.000353811 0)
(0.398178 0.000361804 0)
(0.401431 0.000843436 0)
(0.401313 0.000504748 0)
(0.400289 4.16833e-05 0)
(0.400693 -0.00016555 0)
(0.401454 -0.000334753 0)
(0.401692 -0.000555516 0)
(0.401704 -0.000718207 0)
(0.401871 -0.000811723 0)
(0.402201 -0.000900365 0)
(0.402621 -0.00102815 0)
(0.403148 -0.00120825 0)
(0.403815 -0.00145246 0)
(0.404636 -0.00176947 0)
(0.405635 -0.00216342 0)
(0.406861 -0.00265085 0)
(0.408375 -0.00325848 0)
(0.410244 -0.00401689 0)
(0.412552 -0.0049627 0)
(0.415406 -0.00614192 0)
(0.418939 -0.00761318 0)
(0.42333 -0.0094448 0)
(0.428757 -0.0117324 0)
(0.435618 -0.0145223 0)
(0.443853 -0.0181944 0)
(0.455336 -0.0216151 0)
(0.400232 4.43795e-05 0)
(0.40186 0.000154115 0)
(0.401148 7.03875e-05 0)
(0.397812 -9.33924e-05 0)
(0.398576 2.64561e-05 0)
(0.401748 0.000290788 0)
(0.401454 0.000234128 0)
(0.400453 -4.11528e-05 0)
(0.400706 -0.000273504 0)
(0.401435 -0.000444983 0)
(0.401569 -0.000627401 0)
(0.401606 -0.000793542 0)
(0.401799 -0.000932266 0)
(0.402129 -0.00107705 0)
(0.402528 -0.00126308 0)
(0.403024 -0.0015058 0)
(0.403653 -0.00181918 0)
(0.40443 -0.0022184 0)
(0.405379 -0.00271659 0)
(0.406544 -0.00333386 0)
(0.40798 -0.00410075 0)
(0.409752 -0.00505561 0)
(0.411938 -0.00624541 0)
(0.41464 -0.00772871 0)
(0.417984 -0.00957962 0)
(0.42214 -0.0118869 0)
(0.427276 -0.0147704 0)
(0.433791 -0.0183177 0)
(0.441582 -0.022911 0)
(0.452626 -0.0276427 0)
(0.40023 2.12478e-05 0)
(0.401842 0.00010265 0)
(0.401095 3.3902e-05 0)
(0.398065 -7.85693e-05 0)
(0.398758 3.48577e-06 0)
(0.401681 0.000191703 0)
(0.401405 0.000150111 0)
(0.400401 -0.000116745 0)
(0.400693 -0.000359683 0)
(0.401372 -0.000534809 0)
(0.401476 -0.000714969 0)
(0.401504 -0.000894702 0)
(0.401704 -0.00106173 0)
(0.402028 -0.00124831 0)
(0.402404 -0.00148523 0)
(0.402866 -0.00178634 0)
(0.403453 -0.00216648 0)
(0.404178 -0.00264434 0)
(0.405066 -0.00323918 0)
(0.406155 -0.00397661 0)
(0.407496 -0.00489244 0)
(0.409149 -0.00603183 0)
(0.411187 -0.00745068 0)
(0.413704 -0.0092191 0)
(0.416816 -0.011426 0)
(0.420683 -0.0141801 0)
(0.425458 -0.0176255 0)
(0.431538 -0.0218896 0)
(0.438777 -0.0273569 0)
(0.449237 -0.0333739 0)
(0.400227 6.08257e-06 0)
(0.401823 4.81132e-05 0)
(0.401017 9.72314e-06 0)
(0.397991 -5.46726e-05 0)
(0.398906 -2.0823e-05 0)
(0.401786 5.87351e-05 0)
(0.401363 -7.1696e-07 0)
(0.400338 -0.000220708 0)
(0.40063 -0.000439989 0)
(0.40128 -0.000616092 0)
(0.401379 -0.000795899 0)
(0.4014 -0.000986383 0)
(0.401596 -0.00118308 0)
(0.401905 -0.00141033 0)
(0.402253 -0.00169291 0)
(0.402677 -0.00204624 0)
(0.403216 -0.00248759 0)
(0.403883 -0.00303854 0)
(0.404699 -0.00372321 0)
(0.405699 -0.00457199 0)
(0.40693 -0.00562532 0)
(0.408445 -0.00693446 0)
(0.41031 -0.0085636 0)
(0.41261 -0.0105936 0)
(0.41545 -0.0131273 0)
(0.418977 -0.0162921 0)
(0.423325 -0.0202555 0)
(0.428881 -0.0251863 0)
(0.435465 -0.0314685 0)
(0.445183 -0.0387197 0)
(0.400227 -5.09711e-06 0)
(0.401813 1.22885e-05 0)
(0.400979 -1.14183e-05 0)
(0.398019 -6.89492e-05 0)
(0.398937 -8.66176e-05 0)
(0.401742 -5.98424e-05 0)
(0.401317 -0.000113672 0)
(0.400266 -0.000298853 0)
(0.400563 -0.000505754 0)
(0.401204 -0.000686263 0)
(0.401278 -0.000870542 0)
(0.401286 -0.00107483 0)
(0.401472 -0.00129874 0)
(0.401761 -0.00156061 0)
(0.402078 -0.00188291 0)
(0.40246 -0.00228297 0)
(0.402946 -0.00277996 0)
(0.403547 -0.00339767 0)
(0.404282 -0.00416396 0)
(0.405183 -0.00511337 0)
(0.406289 -0.00629061 0)
(0.407648 -0.00775245 0)
(0.409318 -0.0095704 0)
(0.411373 -0.0118349 0)
(0.413904 -0.0146612 0)
(0.417043 -0.0181941 0)
(0.420905 -0.0226231 0)
(0.425853 -0.0281576 0)
(0.43168 -0.0351812 0)
(0.440485 -0.0435982 0)
(0.400227 -1.25961e-05 0)
(0.401806 -1.5869e-05 0)
(0.400952 -4.45803e-05 0)
(0.397997 -9.84579e-05 0)
(0.39895 -0.000133027 0)
(0.401723 -0.000143771 0)
(0.401262 -0.0002117 0)
(0.400188 -0.000376926 0)
(0.400483 -0.00057114 0)
(0.401104 -0.000752612 0)
(0.401179 -0.000940449 0)
(0.401171 -0.00115685 0)
(0.401341 -0.00140417 0)
(0.401603 -0.00169611 0)
(0.401884 -0.0020532 0)
(0.402219 -0.00249438 0)
(0.402647 -0.00304061 0)
(0.403176 -0.00371764 0)
(0.403822 -0.00455626 0)
(0.404613 -0.00559445 0)
(0.405582 -0.00688063 0)
(0.406769 -0.00847625 0)
(0.408224 -0.010459 0)
(0.410009 -0.0129275 0)
(0.4122 -0.0160078 0)
(0.414909 -0.0198597 0)
(0.418229 -0.0246931 0)
(0.42249 -0.0307555 0)
(0.427464 -0.0384315 0)
(0.435178 -0.0479173 0)
(0.400228 -1.87213e-05 0)
(0.4018 -3.83591e-05 0)
(0.400935 -7.25434e-05 0)
(0.397986 -0.000127774 0)
(0.39894 -0.000178684 0)
(0.401685 -0.000219871 0)
(0.401209 -0.000301654 0)
(0.400109 -0.000451154 0)
(0.400404 -0.000630191 0)
(0.401013 -0.000810881 0)
(0.401072 -0.00100409 0)
(0.401048 -0.0012313 0)
(0.401197 -0.00149756 0)
(0.401431 -0.00181445 0)
(0.401672 -0.00220117 0)
(0.401956 -0.00267778 0)
(0.402321 -0.00326661 0)
(0.402773 -0.00399493 0)
(0.403323 -0.0048958 0)
(0.403995 -0.00600994 0)
(0.404817 -0.00738881 0)
(0.40582 -0.00909764 0)
(0.407043 -0.011219 0)
(0.408537 -0.0138581 0)
(0.410361 -0.0171496 0)
(0.412605 -0.0212659 0)
(0.415336 -0.0264341 0)
(0.418838 -0.0329359 0)
(0.422873 -0.0411577 0)
(0.429316 -0.05158 0)
(0.400228 -2.4155e-05 0)
(0.401795 -5.67042e-05 0)
(0.400921 -9.75274e-05 0)
(0.397966 -0.000156611 0)
(0.398925 -0.000220744 0)
(0.401652 -0.000285656 0)
(0.401158 -0.00037903 0)
(0.400034 -0.000517123 0)
(0.400325 -0.000683666 0)
(0.400915 -0.000862673 0)
(0.400965 -0.00105992 0)
(0.40092 -0.00129593 0)
(0.401045 -0.00157724 0)
(0.401247 -0.00191432 0)
(0.401444 -0.00232545 0)
(0.401675 -0.00283143 0)
(0.401974 -0.00345571 0)
(0.402343 -0.00422667 0)
(0.402792 -0.00517899 0)
(0.403339 -0.00635542 0)
(0.404004 -0.00780973 0)
(0.404812 -0.00960987 0)
(0.405791 -0.011842 0)
(0.406978 -0.0146158 0)
(0.408414 -0.0180725 0)
(0.410163 -0.0223935 0)
(0.412267 -0.0278195 0)
(0.414952 -0.0346603 0)
(0.417974 -0.0433026 0)
(0.422978 -0.0544913 0)
(0.400228 -2.83303e-05 0)
(0.40179 -7.13086e-05 0)
(0.400912 -0.000119487 0)
(0.397948 -0.000183851 0)
(0.398908 -0.000259653 0)
(0.401616 -0.00034333 0)
(0.401109 -0.000446668 0)
(0.399962 -0.000576496 0)
(0.400247 -0.000731192 0)
(0.400818 -0.000906941 0)
(0.400855 -0.00110686 0)
(0.400788 -0.00134912 0)
(0.400886 -0.00164152 0)
(0.401052 -0.00199416 0)
(0.401205 -0.00242448 0)
(0.401379 -0.00295367 0)
(0.401608 -0.00360597 0)
(0.401892 -0.00441049 0)
(0.402235 -0.00540295 0)
(0.402651 -0.00662744 0)
(0.403153 -0.00813917 0)
(0.403759 -0.0100078 0)
(0.404485 -0.0123215 0)
(0.405352 -0.0151926 0)
(0.406386 -0.0187659 0)
(0.407621 -0.0232283 0)
(0.409071 -0.0288286 0)
(0.410894 -0.0358974 0)
(0.412848 -0.0448179 0)
(0.416266 -0.0565641 0)
(0.400229 -3.19659e-05 0)
(0.401786 -8.35496e-05 0)
(0.400904 -0.000138289 0)
(0.397932 -0.000208294 0)
(0.398892 -0.000294615 0)
(0.401583 -0.000393482 0)
(0.401063 -0.000504866 0)
(0.399892 -0.00062812 0)
(0.400172 -0.000771759 0)
(0.400721 -0.00094297 0)
(0.400745 -0.00114389 0)
(0.400652 -0.00138963 0)
(0.400721 -0.00168917 0)
(0.40085 -0.00205285 0)
(0.400956 -0.00249716 0)
(0.401072 -0.00304331 0)
(0.401229 -0.00371598 0)
(0.401425 -0.00454468 0)
(0.401659 -0.00556561 0)
(0.40194 -0.00682352 0)
(0.402276 -0.00837424 0)
(0.402674 -0.0102879 0)
(0.403141 -0.0126533 0)
(0.403683 -0.0155833 0)
(0.404306 -0.0192232 0)
(0.405017 -0.0237611 0)
(0.4058 -0.0294482 0)
(0.406733 -0.0366257 0)
(0.407586 -0.0456677 0)
(0.409308 -0.0577274 0)
(0.400229 -3.51038e-05 0)
(0.401783 -9.35634e-05 0)
(0.400898 -0.000154041 0)
(0.397917 -0.000229927 0)
(0.398877 -0.000325711 0)
(0.401552 -0.000436726 0)
(0.40102 -0.000554354 0)
(0.399829 -0.000671812 0)
(0.4001 -0.00080458 0)
(0.400627 -0.000969916 0)
(0.400633 -0.00116992 0)
(0.400515 -0.00141636 0)
(0.400552 -0.00171929 0)
(0.400643 -0.00208956 0)
(0.4007 -0.00254264 0)
(0.400757 -0.00309943 0)
(0.400841 -0.00378473 0)
(0.400947 -0.00462808 0)
(0.40107 -0.00566566 0)
(0.401215 -0.00694221 0)
(0.401382 -0.00851333 0)
(0.401571 -0.0104486 0)
(0.401777 -0.0128357 0)
(0.401993 -0.015786 0)
(0.402205 -0.0194421 0)
(0.402391 -0.0239889 0)
(0.402506 -0.0296732 0)
(0.402545 -0.0368355 0)
(0.40229 -0.0458327 0)
(0.402257 -0.0579334 0)
(0.400229 -3.77571e-05 0)
(0.40178 -0.00010187 0)
(0.400893 -0.0001672 0)
(0.397905 -0.000248606 0)
(0.398862 -0.000352832 0)
(0.401523 -0.000473856 0)
(0.400981 -0.000596277 0)
(0.399769 -0.000707599 0)
(0.400033 -0.000828924 0)
(0.400535 -0.000987073 0)
(0.400523 -0.00118404 0)
(0.400378 -0.00142839 0)
(0.400382 -0.00173122 0)
(0.400433 -0.00210374 0)
(0.400441 -0.0025604 0)
(0.400438 -0.00312152 0)
(0.400448 -0.00381171 0)
(0.400463 -0.00466017 0)
(0.400476 -0.0057026 0)
(0.400484 -0.00698307 0)
(0.400483 -0.00855615 0)
(0.400463 -0.0104898 0)
(0.400411 -0.0128691 0)
(0.400305 -0.0158017 0)
(0.400111 -0.0194247 0)
(0.399783 -0.023915 0)
(0.399244 -0.0295076 0)
(0.398407 -0.0365307 0)
(0.397067 -0.0453133 0)
(0.395283 -0.0571661 0)
(0.400229 -3.9938e-05 0)
(0.401778 -0.000108815 0)
(0.40089 -0.000178247 0)
(0.397894 -0.000264459 0)
(0.398849 -0.000376081 0)
(0.401497 -0.000505391 0)
(0.400946 -0.000630873 0)
(0.399713 -0.000735297 0)
(0.39997 -0.00084474 0)
(0.400447 -0.00099429 0)
(0.400416 -0.00118567 0)
(0.400242 -0.00142487 0)
(0.400212 -0.00172425 0)
(0.400222 -0.00209499 0)
(0.400181 -0.00255019 0)
(0.400118 -0.00310942 0)
(0.400054 -0.00379686 0)
(0.39998 -0.00464103 0)
(0.399882 -0.00567668 0)
(0.399755 -0.00694664 0)
(0.399589 -0.0085037 0)
(0.399365 -0.0104132 0)
(0.399061 -0.0127562 0)
(0.398641 -0.0156347 0)
(0.398056 -0.0191773 0)
(0.397232 -0.0235486 0)
(0.396068 -0.028965 0)
(0.394396 -0.0357295 0)
(0.392025 -0.0441322 0)
(0.388564 -0.0554473 0)
(0.400229 -4.16808e-05 0)
(0.401776 -0.000114727 0)
(0.400887 -0.00018766 0)
(0.397885 -0.000277746 0)
(0.398838 -0.000395483 0)
(0.401475 -0.000531749 0)
(0.400916 -0.000659053 0)
(0.399664 -0.000755082 0)
(0.399913 -0.000851424 0)
(0.400364 -0.000990953 0)
(0.400311 -0.00117434 0)
(0.400109 -0.00140546 0)
(0.400045 -0.00169825 0)
(0.400014 -0.00206329 0)
(0.399924 -0.00251209 0)
(0.399801 -0.00306338 0)
(0.399665 -0.00374062 0)
(0.399502 -0.00457132 0)
(0.399297 -0.00558889 0)
(0.399038 -0.0068344 0)
(0.39871 -0.00835817 0)
(0.398289 -0.0102219 0)
(0.397741 -0.0125018 0)
(0.397021 -0.0152921 0)
(0.396064 -0.0187105 0)
(0.394775 -0.0229053 0)
(0.393027 -0.0280679 0)
(0.390586 -0.0344645 0)
(0.387269 -0.0423359 0)
(0.382279 -0.0528407 0)
(0.400229 -4.30684e-05 0)
(0.401775 -0.000119949 0)
(0.400886 -0.000195737 0)
(0.397878 -0.000288662 0)
(0.39883 -0.000411865 0)
(0.401456 -0.000553709 0)
(0.400889 -0.000681038 0)
(0.399617 -0.000767322 0)
(0.399862 -0.000849209 0)
(0.400287 -0.000976671 0)
(0.400211 -0.00114931 0)
(0.39998 -0.00136959 0)
(0.399881 -0.00165306 0)
(0.399809 -0.00200882 0)
(0.399671 -0.00244651 0)
(0.39949 -0.002984 0)
(0.399283 -0.00364387 0)
(0.399034 -0.00445227 0)
(0.398725 -0.00544094 0)
(0.398339 -0.00664872 0)
(0.397856 -0.00812289 0)
(0.397246 -0.00992088 0)
(0.396467 -0.0121127 0)
(0.395465 -0.0147837 0)
(0.394162 -0.0180385 0)
(0.392444 -0.0220061 0)
(0.390167 -0.0268475 0)
(0.387041 -0.032782 0)
(0.382893 -0.0399927 0)
(0.376588 -0.049451 0)
(0.400228 -4.42176e-05 0)
(0.401774 -0.000125016 0)
(0.400886 -0.000202796 0)
(0.397873 -0.000296969 0)
(0.39882 -0.000424621 0)
(0.401435 -0.000572042 0)
(0.400866 -0.00069744 0)
(0.399579 -0.000772131 0)
(0.399819 -0.000838873 0)
(0.400219 -0.000951935 0)
(0.400117 -0.00111059 0)
(0.399858 -0.00131725 0)
(0.399724 -0.00158874 0)
(0.399612 -0.00193182 0)
(0.399427 -0.00235399 0)
(0.399189 -0.0028722 0)
(0.398914 -0.00350789 0)
(0.398583 -0.00428563 0)
(0.398173 -0.00523516 0)
(0.397666 -0.00639277 0)
(0.397036 -0.00780218 0)
(0.396248 -0.00951594 0)
(0.395253 -0.0115971 0)
(0.39399 -0.0141213 0)
(0.39237 -0.0171785 0)
(0.390268 -0.0208763 0)
(0.387524 -0.0253416 0)
(0.383814 -0.0307403 0)
(0.378974 -0.0371902 0)
(0.371626 -0.0454195 0)
(0.400228 -4.52092e-05 0)
(0.401775 -0.000130673 0)
(0.40089 -0.000209489 0)
(0.397871 -0.000302552 0)
(0.398812 -0.000432959 0)
(0.401422 -0.000586247 0)
(0.40085 -0.000712375 0)
(0.399548 -0.000771845 0)
(0.399783 -0.000819692 0)
(0.400157 -0.00091533 0)
(0.400029 -0.00105714 0)
(0.399743 -0.0012483 0)
(0.399574 -0.0015056 0)
(0.399422 -0.00183283 0)
(0.399192 -0.00223542 0)
(0.3989 -0.00272925 0)
(0.39856 -0.00333441 0)
(0.398151 -0.00407365 0)
(0.397647 -0.00497451 0)
(0.397026 -0.00607042 0)
(0.396258 -0.00740125 0)
(0.395304 -0.00901415 0)
(0.394111 -0.0109648 0)
(0.39261 -0.0133186 0)
(0.390706 -0.0161502 0)
(0.388268 -0.0195445 0)
(0.385127 -0.0235934 0)
(0.380945 -0.0284053 0)
(0.375564 -0.0340304 0)
(0.367485 -0.0409174 0)
(0.400227 -4.61962e-05 0)
(0.401777 -0.000137507 0)
(0.400897 -0.000215748 0)
(0.397871 -0.000305571 0)
(0.398802 -0.000439984 0)
(0.401414 -0.000599795 0)
(0.40084 -0.000723457 0)
(0.399522 -0.000763077 0)
(0.399757 -0.000792391 0)
(0.400104 -0.000867839 0)
(0.39995 -0.000989446 0)
(0.399637 -0.00116298 0)
(0.399433 -0.00140423 0)
(0.399243 -0.00171282 0)
(0.39897 -0.00209207 0)
(0.398627 -0.00255679 0)
(0.398226 -0.00312552 0)
(0.397743 -0.003819 0)
(0.397151 -0.00466241 0)
(0.396424 -0.00568618 0)
(0.39553 -0.00692601 0)
(0.394424 -0.00842343 0)
(0.393051 -0.0102266 0)
(0.391337 -0.0123904 0)
(0.389185 -0.0149744 0)
(0.38646 -0.0180413 0)
(0.382994 -0.0216483 0)
(0.378454 -0.025847 0)
(0.372692 -0.0306232 0)
(0.364208 -0.0361327 0)
(0.400226 -4.76407e-05 0)
(0.40178 -0.000147648 0)
(0.40091 -0.000220983 0)
(0.397876 -0.000301334 0)
(0.398787 -0.000441446 0)
(0.401401 -0.00061673 0)
(0.400844 -0.000732664 0)
(0.399509 -0.000751879 0)
(0.399734 -0.000756712 0)
(0.400054 -0.000809089 0)
(0.399879 -0.00090783 0)
(0.39954 -0.00106137 0)
(0.399302 -0.00128483 0)
(0.399076 -0.00157259 0)
(0.398762 -0.00192535 0)
(0.398372 -0.00235676 0)
(0.397914 -0.00288369 0)
(0.397364 -0.00352479 0)
(0.396692 -0.00430279 0)
(0.395868 -0.00524504 0)
(0.394858 -0.00638297 0)
(0.393615 -0.00775228 0)
(0.392081 -0.00939364 0)
(0.39018 -0.011352 0)
(0.387815 -0.0136726 0)
(0.384853 -0.0163974 0)
(0.381134 -0.0195519 0)
(0.376346 -0.0231359 0)
(0.370359 -0.0270772 0)
(0.361783 -0.0312533 0)
(0.400225 -4.99941e-05 0)
(0.401784 -0.000161289 0)
(0.400934 -0.000230987 0)
(0.397885 -0.000294605 0)
(0.398748 -0.000437041 0)
(0.401385 -0.000630116 0)
(0.40085 -0.000739241 0)
(0.399502 -0.00073346 0)
(0.399724 -0.000711734 0)
(0.400018 -0.00074107 0)
(0.399819 -0.000813925 0)
(0.399453 -0.000944847 0)
(0.399182 -0.00114858 0)
(0.398921 -0.00141327 0)
(0.398571 -0.0017368 0)
(0.398137 -0.0021313 0)
(0.397628 -0.00261167 0)
(0.397017 -0.00319443 0)
(0.396271 -0.00389991 0)
(0.39536 -0.00475243 0)
(0.394247 -0.00577907 0)
(0.392884 -0.00700964 0)
(0.391209 -0.00847764 0)
(0.389147 -0.0102188 0)
(0.386602 -0.0122659 0)
(0.383452 -0.0146424 0)
(0.379544 -0.0173473 0)
(0.37461 -0.020337 0)
(0.368536 -0.0234936 0)
(0.360148 -0.026455 0)
(0.400226 -5.51756e-05 0)
(0.401794 -0.000183311 0)
(0.400966 -0.00022312 0)
(0.397837 -0.000263258 0)
(0.398699 -0.000443706 0)
(0.401375 -0.000678164 0)
(0.400866 -0.000762432 0)
(0.399509 -0.000704151 0)
(0.399716 -0.000653236 0)
(0.399986 -0.000658141 0)
(0.399772 -0.000703611 0)
(0.399382 -0.000812809 0)
(0.399075 -0.000997022 0)
(0.398781 -0.00123728 0)
(0.398397 -0.00152904 0)
(0.397925 -0.00188309 0)
(0.39737 -0.00231254 0)
(0.396705 -0.00283167 0)
(0.395894 -0.00345834 0)
(0.394906 -0.00421407 0)
(0.393702 -0.00512156 0)
(0.392234 -0.0062046 0)
(0.390439 -0.00749015 0)
(0.388241 -0.00900603 0)
(0.38555 -0.0107741 0)
(0.382253 -0.0128032 0)
(0.378215 -0.0150722 0)
(0.373219 -0.0175062 0)
(0.367173 -0.0199585 0)
(0.359192 -0.0218874 0)
(0.400229 -6.51741e-05 0)
(0.401812 -0.000222126 0)
(0.401042 -0.000220285 0)
(0.39791 -0.00019585 0)
(0.398537 -0.000399379 0)
(0.401261 -0.000723865 0)
(0.400862 -0.000790278 0)
(0.399498 -0.000694254 0)
(0.399709 -0.000605611 0)
(0.399962 -0.000572701 0)
(0.399739 -0.000581145 0)
(0.399324 -0.000662463 0)
(0.398982 -0.0008245 0)
(0.398657 -0.00104177 0)
(0.398243 -0.00130271 0)
(0.397737 -0.00161463 0)
(0.397143 -0.00198965 0)
(0.396431 -0.00244046 0)
(0.395563 -0.00298285 0)
(0.394508 -0.00363597 0)
(0.393228 -0.00441802 0)
(0.391671 -0.0053465 0)
(0.389775 -0.00644257 0)
(0.387466 -0.0077277 0)
(0.384658 -0.00921538 0)
(0.381253 -0.0109035 0)
(0.377131 -0.0127578 0)
(0.372136 -0.014686 0)
(0.366199 -0.0165336 0)
(0.358765 -0.0176571 0)
(0.40023 -8.13503e-05 0)
(0.401825 -0.000256979 0)
(0.40109 -0.000230537 0)
(0.397658 -0.000134164 0)
(0.398344 -0.000375105 0)
(0.401284 -0.000743256 0)
(0.400881 -0.000792757 0)
(0.399582 -0.000639723 0)
(0.399614 -0.000534875 0)
(0.399916 -0.000481758 0)
(0.399719 -0.000462347 0)
(0.399277 -0.000516551 0)
(0.3989 -0.000648679 0)
(0.398547 -0.000835303 0)
(0.398108 -0.00106173 0)
(0.397574 -0.00132914 0)
(0.396948 -0.00164668 0)
(0.396197 -0.00202503 0)
(0.395282 -0.00247812 0)
(0.394171 -0.0030237 0)
(0.392826 -0.00367544 0)
(0.391197 -0.00444413 0)
(0.389219 -0.00534591 0)
(0.386821 -0.00639732 0)
(0.383924 -0.00760578 0)
(0.38044 -0.00896243 0)
(0.376272 -0.0104278 0)
(0.371317 -0.0119064 0)
(0.365533 -0.0132558 0)
(0.358698 -0.0138175 0)
(0.400238 -0.000107457 0)
(0.401832 -0.000336933 0)
(0.401197 -1.4216e-05 0)
(0.397678 0.000169443 0)
(0.397923 -0.000612512 0)
(0.400951 -0.00119706 0)
(0.400723 -0.000928888 0)
(0.399322 -0.00056579 0)
(0.399531 -0.000488944 0)
(0.399921 -0.000387096 0)
(0.39975 -0.000285676 0)
(0.399269 -0.000309676 0)
(0.398844 -0.000438263 0)
(0.398456 -0.000611579 0)
(0.397994 -0.0008075 0)
(0.397438 -0.00102947 0)
(0.396787 -0.00128743 0)
(0.396005 -0.00159027 0)
(0.395052 -0.00195072 0)
(0.393895 -0.00238601 0)
(0.3925 -0.00290326 0)
(0.390816 -0.00350599 0)
(0.388775 -0.00420879 0)
(0.386309 -0.00502533 0)
(0.383346 -0.0059581 0)
(0.379811 -0.00699468 0)
(0.375621 -0.0080968 0)
(0.370725 -0.00917928 0)
(0.365103 -0.0101361 0)
(0.358814 -0.0103777 0)
(0.400253 -0.000158687 0)
(0.401874 -0.00042059 0)
(0.401198 -0.000173451 0)
(0.397589 0.000420631 0)
(0.397019 0.000159917 0)
(0.398913 -0.000823194 0)
(0.400408 -0.000973042 0)
(0.400202 -0.000566984 0)
(0.40014 -0.000490976 0)
(0.40015 -0.000429818 0)
(0.399861 -0.000243994 0)
(0.399256 -0.00014461 0)
(0.398764 -0.000220562 0)
(0.398361 -0.000378335 0)
(0.397894 -0.000547239 0)
(0.397329 -0.000721513 0)
(0.396663 -0.000915366 0)
(0.395862 -0.00113637 0)
(0.394884 -0.00139694 0)
(0.393698 -0.00172096 0)
(0.392272 -0.00210901 0)
(0.390552 -0.00254794 0)
(0.388468 -0.00304885 0)
(0.385957 -0.00362773 0)
(0.382954 -0.00428691 0)
(0.379392 -0.00501353 0)
(0.375201 -0.00577455 0)
(0.370363 -0.006501 0)
(0.364879 -0.0071361 0)
(0.358981 -0.00727546 0)
(0.400201 -0.000208957 0)
(0.401739 -0.000423144 0)
(0.400644 0.000382004 0)
(0.396492 0.0010561 0)
(0.397173 -9.19488e-05 0)
(0.401622 -0.00221942 0)
(0.401816 -0.00224151 0)
(0.401085 -0.00108742 0)
(0.400469 -0.000211767 0)
(0.400112 6.10188e-05 0)
(0.39952 0.000131959 0)
(0.39888 0.00013499 0)
(0.398457 3.57522e-05 0)
(0.398122 -0.000125018 0)
(0.397706 -0.000276654 0)
(0.397177 -0.000411303 0)
(0.396535 -0.000546822 0)
(0.39576 -0.000693527 0)
(0.394825 -0.000859559 0)
(0.393679 -0.00105594 0)
(0.392172 -0.00128765 0)
(0.390359 -0.00155421 0)
(0.388201 -0.00185956 0)
(0.385631 -0.00220917 0)
(0.382578 -0.00260276 0)
(0.378981 -0.00302903 0)
(0.374775 -0.00346642 0)
(0.369958 -0.00386576 0)
(0.364556 -0.00421326 0)
(0.358671 -0.00418747 0)
(0.400579 -0.000106681 0)
(0.400661 -0.000275524 0)
(0.399124 0.000496594 0)
(0.399492 0.00101949 0)
(0.4017 -5.41317e-05 0)
(0.400547 -0.00183549 0)
(0.395688 -0.00183078 0)
(0.391921 -0.000644213 0)
(0.391319 0.000303932 0)
(0.392094 0.000432826 0)
(0.39269 0.000415647 0)
(0.393072 0.000300351 0)
(0.393359 0.00014498 0)
(0.393426 1.81242e-05 0)
(0.393211 -6.95981e-05 0)
(0.392767 -0.000128325 0)
(0.392136 -0.000183461 0)
(0.391315 -0.000241788 0)
(0.390279 -0.000304321 0)
(0.389009 -0.00036664 0)
(0.387478 -0.000434684 0)
(0.385632 -0.000521146 0)
(0.383408 -0.000626567 0)
(0.38075 -0.000746869 0)
(0.377604 -0.000879294 0)
(0.373927 -0.00101863 0)
(0.369693 -0.00115854 0)
(0.364924 -0.00127274 0)
(0.359678 -0.00141584 0)
(0.35288 -0.00110303 0)
(0.464464 -0.0061661 1.32129e-20)
(0.468718 -0.00960628 -8.02276e-18)
(0.472657 -0.0135409 8.05665e-18)
(0.476066 -0.0178653 4.04089e-18)
(0.479219 -0.022526 3.047e-18)
(0.48223 -0.0275186 6.14873e-18)
(0.485114 -0.0328758 3.07422e-18)
(0.487889 -0.0386484 8.28309e-18)
(0.490589 -0.0448816 4.18106e-18)
(0.493236 -0.0516088 2.08995e-18)
(0.495835 -0.0588572 -2.11555e-18)
(0.498378 -0.0666612 4.22977e-18)
(0.500856 -0.0750712 2.17224e-18)
(0.503265 -0.0841581 2.17004e-18)
(0.50561 -0.0940139 4.35937e-18)
(0.507901 -0.10475 2.21864e-18)
(0.510149 -0.116493 6.6201e-18)
(0.512365 -0.129393 0)
(0.51456 -0.143621 0)
(0.516738 -0.159383 2.2084e-18)
(0.518893 -0.17693 -4.11882e-20)
(0.521021 -0.19658 2.24311e-18)
(0.523098 -0.218741 0)
(0.525118 -0.243944 4.34042e-18)
(0.527043 -0.272849 2.13545e-18)
(0.52869 -0.30661 -2.16746e-18)
(0.530983 -0.344884 2.02502e-18)
(0.529032 -0.397095 2.01323e-18)
(0.539842 -0.434012 5.49465e-18)
(0.509318 -0.557352 -1.64174e-18)
(0.466623 -0.0132283 -4.0549e-18)
(0.46973 -0.0167155 4.58136e-18)
(0.472394 -0.0209054 -4.61042e-18)
(0.47475 -0.0254546 0)
(0.477041 -0.0302922 -4.17139e-18)
(0.479331 -0.0354516 -4.17974e-18)
(0.481601 -0.0409912 -1.05278e-18)
(0.48384 -0.0469555 -7.4395e-18)
(0.486043 -0.0533706 -4.26903e-18)
(0.488195 -0.0602557 -4.33583e-18)
(0.490273 -0.0676366 2.17073e-18)
(0.492251 -0.0755539 -2.19966e-18)
(0.494118 -0.0840663 -4.40147e-18)
(0.495868 -0.0932509 -4.43666e-18)
(0.497503 -0.103202 -4.47214e-18)
(0.499022 -0.114028 -4.50742e-18)
(0.500422 -0.125854 -9.15248e-18)
(0.501695 -0.138823 2.29678e-18)
(0.502825 -0.153101 -2.33268e-18)
(0.503783 -0.168883 -7.05078e-18)
(0.504528 -0.186411 2.70861e-20)
(0.505009 -0.205988 -6.15572e-20)
(0.505144 -0.228002 -3.92597e-20)
(0.504867 -0.252942 -7.18953e-18)
(0.504004 -0.281448 -4.79101e-18)
(0.502434 -0.314457 -2.28117e-18)
(0.500291 -0.352203 1.07345e-19)
(0.494377 -0.400885 -1.48732e-19)
(0.497598 -0.4406 -6.25635e-18)
(0.46274 -0.55286 0)
(0.464723 -0.0201263 0)
(0.467017 -0.023623 0)
(0.469052 -0.0278175 0)
(0.471043 -0.0323887 -5.27705e-19)
(0.473054 -0.037265 4.78776e-18)
(0.475051 -0.0424758 -1.07251e-18)
(0.476988 -0.0480605 1.08584e-18)
(0.478845 -0.054044 4.35784e-18)
(0.480607 -0.0604472 -1.10066e-18)
(0.482258 -0.067298 5.54971e-18)
(0.48378 -0.0746349 2.24264e-18)
(0.485163 -0.0825068 -2.27431e-18)
(0.486399 -0.0909755 2.28711e-18)
(0.487481 -0.100118 -2.32114e-18)
(0.488399 -0.110026 -4.71272e-18)
(0.489141 -0.120806 4.76505e-18)
(0.489687 -0.132581 4.7439e-18)
(0.490011 -0.145487 0)
(0.490071 -0.159682 0)
(0.489812 -0.175353 4.87912e-18)
(0.489159 -0.192728 0)
(0.488021 -0.212091 7.5425e-18)
(0.486263 -0.233807 2.54065e-18)
(0.483757 -0.258324 5.00042e-18)
(0.480225 -0.286253 7.51818e-18)
(0.475537 -0.318355 2.62311e-18)
(0.469252 -0.355261 0)
(0.459601 -0.40083 9.91206e-18)
(0.454668 -0.442712 0)
(0.41705 -0.543278 4.60649e-18)
(0.462358 -0.0270143 0)
(0.46419 -0.030613 0)
(0.465788 -0.0348608 0)
(0.467437 -0.0394719 -4.34804e-18)
(0.469093 -0.0443821 0)
(0.470664 -0.0496157 0)
(0.47212 -0.0552088 0)
(0.473461 -0.0611892 4.52317e-18)
(0.474684 -0.0675837 0)
(0.475775 -0.0744238 0)
(0.476718 -0.0817465 0)
(0.477497 -0.0895977 -4.73219e-18)
(0.478096 -0.0980367 -4.79037e-18)
(0.478496 -0.107139 -2.40453e-18)
(0.478677 -0.116995 -5.97828e-20)
(0.478612 -0.127708 -4.89372e-18)
(0.478267 -0.139395 1.08522e-20)
(0.477597 -0.152183 7.65704e-18)
(0.476538 -0.166221 2.56116e-18)
(0.475011 -0.181681 -2.60962e-18)
(0.472911 -0.198774 -2.62691e-18)
(0.470107 -0.217761 -2.59421e-18)
(0.466423 -0.238975 -2.68958e-18)
(0.461673 -0.262818 8.31194e-18)
(0.455494 -0.289854 0)
(0.447739 -0.320687 -8.39381e-18)
(0.437523 -0.356139 -2.83117e-18)
(0.42423 -0.398541 3.29831e-19)
(0.411522 -0.440527 -8.42344e-18)
(0.372309 -0.529496 6.49566e-19)
(0.459216 -0.0335916 0)
(0.460584 -0.0372441 4.37162e-18)
(0.461706 -0.0414984 -5.49799e-19)
(0.462939 -0.0461061 9.45785e-18)
(0.464179 -0.0510156 0)
(0.465296 -0.0562487 0)
(0.466273 -0.0618367 4.61484e-18)
(0.467121 -0.0678036 -4.62744e-18)
(0.467834 -0.0741726 0)
(0.468391 -0.0809722 0)
(0.468767 -0.0882383 0)
(0.46894 -0.0960178 4.85707e-18)
(0.468887 -0.104372 4.92127e-18)
(0.468584 -0.113375 -2.50754e-18)
(0.468001 -0.123116 7.6092e-18)
(0.467102 -0.133693 0)
(0.465839 -0.145213 5.29811e-18)
(0.464148 -0.157794 -8.00938e-18)
(0.46195 -0.171569 -2.71512e-18)
(0.459139 -0.186697 0)
(0.455586 -0.203365 0)
(0.451126 -0.221809 0)
(0.445545 -0.242324 0)
(0.438606 -0.265265 -2.87574e-18)
(0.429885 -0.291133 -3.02117e-18)
(0.419199 -0.320402 2.96033e-18)
(0.40535 -0.353977 3.13277e-18)
(0.388604 -0.393055 -6.12096e-18)
(0.368752 -0.433918 6.17018e-18)
(0.328906 -0.511616 -5.9378e-18)
(0.455326 -0.0398351 -4.43492e-18)
(0.456253 -0.0435308 -4.17811e-18)
(0.456916 -0.0477929 -8.47718e-19)
(0.457739 -0.0523983 -3.41516e-18)
(0.458571 -0.0573006 -1.28977e-21)
(0.459248 -0.062517 -1.75584e-18)
(0.459753 -0.0680736 4.655e-20)
(0.460106 -0.0739924 -4.82706e-18)
(0.460299 -0.0802966 -3.67763e-18)
(0.460303 -0.087015 4.966e-18)
(0.460091 -0.0941847 0)
(0.459637 -0.101853 6.38698e-18)
(0.458914 -0.11008 -6.49076e-18)
(0.457891 -0.118937 -5.28538e-18)
(0.456528 -0.128507 8.04052e-18)
(0.454779 -0.13888 -8.18733e-18)
(0.452581 -0.150152 -2.71552e-18)
(0.449857 -0.16243 -2.92451e-18)
(0.446508 -0.175831 -2.86446e-18)
(0.442412 -0.190494 8.84738e-18)
(0.437412 -0.206585 0)
(0.431318 -0.224307 3.04778e-18)
(0.423882 -0.243917 -6.24532e-18)
(0.414828 -0.265717 6.51741e-18)
(0.403688 -0.290136 3.28783e-18)
(0.390233 -0.317539 6.86266e-18)
(0.373071 -0.348812 0)
(0.353097 -0.384343 7.27617e-18)
(0.326923 -0.422969 0)
(0.287224 -0.489787 -7.6111e-18)
(0.450692 -0.0456528 4.52248e-18)
(0.451186 -0.0493732 2.30526e-18)
(0.451396 -0.0536221 -2.33628e-18)
(0.451802 -0.0581971 1.7781e-18)
(0.452215 -0.0630576 9.92534e-22)
(0.452441 -0.0682191 8.94349e-22)
(0.452465 -0.0737061 -4.2673e-18)
(0.452315 -0.0795398 1.20499e-18)
(0.451979 -0.0857428 7.54749e-18)
(0.451424 -0.0923429 -6.38162e-18)
(0.45062 -0.0993756 1.30225e-18)
(0.449535 -0.106886 -6.58951e-18)
(0.448137 -0.114932 5.35378e-18)
(0.446387 -0.12358 5.44856e-18)
(0.444238 -0.132908 -2.72836e-18)
(0.441632 -0.142995 5.65527e-18)
(0.438496 -0.153927 0)
(0.43474 -0.165796 2.91625e-18)
(0.43025 -0.178703 3.04117e-18)
(0.424885 -0.192764 -6.15595e-18)
(0.41847 -0.20812 0)
(0.410793 -0.224941 -3.27399e-18)
(0.401582 -0.243442 4.48815e-21)
(0.390526 -0.263873 -6.82398e-18)
(0.377134 -0.286583 7.15944e-18)
(0.361125 -0.311843 -1.09771e-17)
(0.34102 -0.340447 0)
(0.318106 -0.372237 -7.66493e-18)
(0.286565 -0.40774 7.70076e-20)
(0.247663 -0.464209 8.32994e-18)
(0.445327 -0.0509523 2.34055e-18)
(0.445395 -0.0546738 -2.05883e-18)
(0.445159 -0.0588827 2.08781e-18)
(0.445149 -0.063398 -4.86298e-18)
(0.44514 -0.0681856 -2.4779e-18)
(0.444916 -0.0732604 -6.25197e-19)
(0.444462 -0.0786445 2.55532e-18)