/*--------------------------------*- C++ -*----------------------------------*\
  =========                 |
  \\      /  F ield         | OpenFOAM: The Open Source CFD Toolbox
   \\    /   O peration     | Website:  https://openfoam.org
    \\  /    A nd           | Version:  11
     \\/     M anipulation  |
\*---------------------------------------------------------------------------*/
FoamFile
{
    format      ascii;
    class       volVectorField;
    location    "0.3";
    object      U;
}
// * * * * * * * * * * * * * * * * * * * * * * * * * * * * * * * * * * * * * //

dimensions      [0 1 -1 0 0 0 0];

internalField   nonuniform List<vector> 
12600
(
(0.412788 9.35868e-05 0)
(0.412836 0.000278475 0)
(0.411588 -0.000347936 0)
(0.411897 -0.00100937 0)
(0.41422 -0.000208208 0)
(0.413788 0.00161039 0)
(0.4094 0.00188769 0)
(0.405376 0.000939901 0)
(0.404384 -0.000219778 0)
(0.405183 -0.00049588 0)
(0.406074 -0.000512349 0)
(0.406815 -0.000423374 0)
(0.407505 -0.000270391 0)
(0.408044 -0.000149286 0)
(0.408385 -8.94203e-05 0)
(0.408602 -6.1874e-05 0)
(0.408767 -4.72233e-05 0)
(0.408913 -3.99975e-05 0)
(0.409054 -3.89066e-05 0)
(0.409205 -4.24471e-05 0)
(0.409379 -4.94658e-05 0)
(0.409587 -5.97106e-05 0)
(0.409842 -7.34142e-05 0)
(0.410156 -9.17584e-05 0)
(0.410546 -0.000114174 0)
(0.411032 -0.000143288 0)
(0.411644 -0.000185165 0)
(0.412394 -0.000223197 0)
(0.413333 -0.000264514 0)
(0.41414 -0.00040724 0)
(0.412595 0.000175981 0)
(0.413769 0.000389554 0)
(0.413248 -0.000183744 0)
(0.409704 -0.00102395 0)
(0.409818 -0.000297097 0)
(0.413486 0.00186259 0)
(0.414402 0.00215932 0)
(0.414005 0.00126058 0)
(0.413732 0.00023773 0)
(0.413583 -0.000192627 0)
(0.413201 -0.000354012 0)
(0.412846 -0.000403345 0)
(0.412781 -0.00036128 0)
(0.412849 -0.000257324 0)
(0.41291 -0.000174954 0)
(0.412968 -0.000130493 0)
(0.413046 -0.000109184 0)
(0.413143 -0.000102434 0)
(0.413256 -0.000107496 0)
(0.413389 -0.000121932 0)
(0.41355 -0.000144189 0)
(0.413744 -0.000174358 0)
(0.413981 -0.000213473 0)
(0.414271 -0.000263148 0)
(0.414617 -0.000325622 0)
(0.415064 -0.000404818 0)
(0.415591 -0.000500062 0)
(0.416146 -0.000622484 0)
(0.41722 -0.000793425 0)
(0.417739 -0.000969361 0)
(0.412605 0.000113906 0)
(0.413855 0.000353759 0)
(0.413576 0.00021645 0)
(0.41101 -0.000344556 0)
(0.409919 -0.000323475 0)
(0.411125 0.000489416 0)
(0.412715 0.000787883 0)
(0.413092 0.000441123 0)
(0.413357 0.000254286 0)
(0.413621 0.000157204 0)
(0.413482 -7.86029e-05 0)
(0.413143 -0.000277992 0)
(0.412957 -0.000293994 0)
(0.412933 -0.000223989 0)
(0.412955 -0.000171948 0)
(0.412993 -0.000150113 0)
(0.413056 -0.000144086 0)
(0.413141 -0.000149235 0)
(0.413243 -0.000165869 0)
(0.413365 -0.000193365 0)
(0.413515 -0.000231383 0)
(0.413698 -0.000280957 0)
(0.413924 -0.000344189 0)
(0.414204 -0.000423133 0)
(0.414551 -0.000523654 0)
(0.414983 -0.000648045 0)
(0.415525 -0.000795319 0)
(0.416203 -0.00100454 0)
(0.41702 -0.00126673 0)
(0.418019 -0.00144512 0)
(0.412592 7.35403e-05 0)
(0.413802 0.000280394 0)
(0.413578 2.03418e-05 0)
(0.410895 -0.000264632 0)
(0.410719 0.000373541 0)
(0.413298 0.00101519 0)
(0.413446 0.00077101 0)
(0.412389 0.000310013 0)
(0.41257 0.000138875 0)
(0.413167 2.12364e-05 0)
(0.4133 -0.000165599 0)
(0.41308 -0.000252861 0)
(0.412979 -0.000240981 0)
(0.412971 -0.000206136 0)
(0.412977 -0.000187435 0)
(0.413001 -0.000180923 0)
(0.413056 -0.000182557 0)
(0.413134 -0.000195408 0)
(0.413229 -0.000221536 0)
(0.413345 -0.000260934 0)
(0.413488 -0.000314058 0)
(0.413663 -0.000382781 0)
(0.41388 -0.000470198 0)
(0.414149 -0.000580261 0)
(0.414482 -0.000719091 0)
(0.414898 -0.000892382 0)
(0.415415 -0.00110843 0)
(0.416069 -0.00138375 0)
(0.416861 -0.00173309 0)
(0.417908 -0.00200608 0)
(0.412588 5.01343e-05 0)
(0.413806 0.000192148 0)
(0.413517 0.000179076 0)
(0.410828 3.7314e-05 0)
(0.411042 0.000138551 0)
(0.413619 0.000435904 0)
(0.4136 0.000487139 0)
(0.412664 0.0003143 0)
(0.412642 0.000132783 0)
(0.413179 1.67147e-07 0)
(0.413207 -0.000130114 0)
(0.41302 -0.000204429 0)
(0.412964 -0.000213987 0)
(0.412975 -0.000202453 0)
(0.412984 -0.000196539 0)
(0.413004 -0.000200138 0)
(0.413051 -0.000212719 0)
(0.413121 -0.000236467 0)
(0.413209 -0.000273508 0)
(0.413318 -0.000325149 0)
(0.413452 -0.000393127 0)
(0.413618 -0.000480303 0)
(0.413823 -0.000590773 0)
(0.414076 -0.000729774 0)
(0.414391 -0.000904772 0)
(0.414784 -0.00112401 0)
(0.415273 -0.00139885 0)
(0.415894 -0.00174246 0)
(0.416648 -0.0021818 0)
(0.417687 -0.00259742 0)
(0.412588 3.53676e-05 0)
(0.413781 0.000151404 0)
(0.413476 0.000135064 0)
(0.411044 4.4589e-05 0)
(0.411221 0.000163906 0)
(0.413646 0.000426475 0)
(0.413582 0.000452857 0)
(0.41252 0.000278893 0)
(0.412689 0.000106824 0)
(0.413212 -1.33343e-05 0)
(0.413174 -0.000122979 0)
(0.412964 -0.000191471 0)
(0.41295 -0.000204813 0)
(0.412972 -0.000199424 0)
(0.412981 -0.000203705 0)
(0.412998 -0.000218071 0)
(0.41304 -0.000241034 0)
(0.413103 -0.000274545 0)
(0.413184 -0.000321689 0)
(0.413284 -0.000384929 0)
(0.413408 -0.000466944 0)
(0.413562 -0.000571452 0)
(0.413753 -0.000703502 0)
(0.413988 -0.000869642 0)
(0.41428 -0.0010787 0)
(0.414645 -0.00134117 0)
(0.415098 -0.00167126 0)
(0.415677 -0.00208341 0)
(0.41638 -0.00261204 0)
(0.417374 -0.00317078 0)
(0.412587 2.55051e-05 0)
(0.413765 0.000104059 0)
(0.413427 0.000114496 0)
(0.410954 9.65758e-05 0)
(0.411337 0.000183221 0)
(0.413749 0.000323272 0)
(0.413581 0.000347753 0)
(0.412525 0.000228162 0)
(0.41266 8.57729e-05 0)
(0.413143 -2.33564e-05 0)
(0.413137 -0.000112219 0)
(0.412959 -0.000170997 0)
(0.412932 -0.000192645 0)
(0.412958 -0.000199407 0)
(0.41297 -0.000211811 0)
(0.412985 -0.000234774 0)
(0.413023 -0.000266401 0)
(0.41308 -0.000308804 0)
(0.413153 -0.00036555 0)
(0.413244 -0.000439742 0)
(0.413357 -0.000534834 0)
(0.413497 -0.000655357 0)
(0.41367 -0.000807264 0)
(0.413885 -0.000998258 0)
(0.41415 -0.00123849 0)
(0.414481 -0.00154051 0)
(0.414893 -0.00192118 0)
(0.41542 -0.00239847 0)
(0.416058 -0.00301063 0)
(0.416981 -0.00370535 0)
(0.412587 1.90806e-05 0)
(0.413757 7.51729e-05 0)
(0.413396 9.75236e-05 0)
(0.41096 0.000101199 0)
(0.411375 0.000149822 0)
(0.413768 0.000244724 0)
(0.413553 0.000273586 0)
(0.412465 0.000191543 0)
(0.41263 7.39066e-05 0)
(0.413132 -2.59104e-05 0)
(0.413094 -0.000106449 0)
(0.412921 -0.000159548 0)
(0.412912 -0.000185273 0)
(0.412944 -0.000200023 0)
(0.412955 -0.000220239 0)
(0.412968 -0.000250044 0)
(0.413002 -0.00028898 0)
(0.413053 -0.000339355 0)
(0.413117 -0.000404842 0)
(0.413197 -0.000489022 0)
(0.413298 -0.000595981 0)
(0.413423 -0.000730943 0)
(0.413577 -0.000900651 0)
(0.413768 -0.00111382 0)
(0.414003 -0.00138183 0)
(0.414296 -0.00171913 0)
(0.414659 -0.00214499 0)
(0.415125 -0.00268151 0)
(0.415687 -0.00336933 0)
(0.416515 -0.00418974 0)
(0.412587 1.43336e-05 0)
(0.413751 5.35956e-05 0)
(0.413372 7.79152e-05 0)
(0.410944 8.78599e-05 0)
(0.411389 0.000126552 0)
(0.413755 0.000190784 0)
(0.413529 0.000213233 0)
(0.412436 0.000154609 0)
(0.412594 5.83423e-05 0)
(0.413095 -3.08217e-05 0)
(0.413064 -0.000102382 0)
(0.412899 -0.000151236 0)
(0.412894 -0.000180366 0)
(0.412929 -0.000201883 0)
(0.412939 -0.000227951 0)
(0.412948 -0.000263411 0)
(0.412977 -0.000308754 0)
(0.413021 -0.000366119 0)
(0.413076 -0.000439288 0)
(0.413146 -0.000532296 0)
(0.413233 -0.00064972 0)
(0.413341 -0.000797329 0)
(0.413475 -0.00098252 0)
(0.413639 -0.00121485 0)
(0.413841 -0.00150678 0)
(0.414091 -0.00187437 0)
(0.4144 -0.00233902 0)
(0.414796 -0.00292692 0)
(0.415271 -0.00368015 0)
(0.415983 -0.00461224 0)
(0.412588 1.04966e-05 0)
(0.413748 3.79286e-05 0)
(0.413357 5.7006e-05 0)
(0.410931 7.05306e-05 0)
(0.411392 0.000102104 0)
(0.413755 0.000145427 0)
(0.4135 0.000158377 0)
(0.412387 0.000116014 0)
(0.412559 4.17547e-05 0)
(0.413072 -3.59187e-05 0)
(0.413034 -0.000100496 0)
(0.412875 -0.0001457 0)
(0.412876 -0.000177194 0)
(0.412911 -0.00020388 0)
(0.41292 -0.000234607 0)
(0.412926 -0.000274614 0)
(0.41295 -0.000325244 0)
(0.412987 -0.000388586 0)
(0.413032 -0.000468431 0)
(0.41309 -0.000569081 0)
(0.413163 -0.000695465 0)
(0.413253 -0.000853766 0)
(0.413364 -0.0010519 0)
(0.413499 -0.00130008 0)
(0.413666 -0.00161163 0)
(0.41387 -0.00200389 0)
(0.41412 -0.00250002 0)
(0.41444 -0.0031298 0)
(0.414817 -0.00393608 0)
(0.415395 -0.00496241 0)
(0.412588 7.12295e-06 0)
(0.413744 2.53873e-05 0)
(0.413348 4.07958e-05 0)
(0.410922 5.38844e-05 0)
(0.411386 7.60287e-05 0)
(0.413735 0.000103087 0)
(0.413479 0.000109883 0)
(0.412353 7.98041e-05 0)
(0.412528 2.26768e-05 0)
(0.413047 -4.35041e-05 0)
(0.41301 -0.000100542 0)
(0.412857 -0.000142204 0)
(0.412859 -0.000174707 0)
(0.412894 -0.000205087 0)
(0.4129 -0.000239924 0)
(0.412902 -0.000283708 0)
(0.41292 -0.000338438 0)
(0.412948 -0.000406621 0)
(0.412984 -0.000492038 0)
(0.41303 -0.000599037 0)
(0.413088 -0.000732747 0)
(0.413159 -0.000899646 0)
(0.413246 -0.00110801 0)
(0.413352 -0.00136851 0)
(0.413481 -0.00169504 0)
(0.413637 -0.00210585 0)
(0.413824 -0.00262533 0)
(0.414061 -0.00328617 0)
(0.414333 -0.00413109 0)
(0.41476 -0.00523061 0)
(0.412588 4.27949e-06 0)
(0.413742 1.55161e-05 0)
(0.413342 2.53673e-05 0)
(0.410911 3.47994e-05 0)
(0.411379 5.06878e-05 0)
(0.413727 6.637e-05 0)
(0.413458 6.66816e-05 0)
(0.412322 4.48169e-05 0)
(0.412502 2.39862e-06 0)
(0.413025 -5.25207e-05 0)
(0.412988 -0.000102411 0)
(0.412839 -0.000140107 0)
(0.412842 -0.000172299 0)
(0.412876 -0.000205199 0)
(0.412878 -0.000243191 0)
(0.412875 -0.000289979 0)
(0.412887 -0.000348081 0)
(0.412908 -0.000420209 0)
(0.412934 -0.000510044 0)
(0.412967 -0.00062197 0)
(0.413009 -0.000761257 0)
(0.413061 -0.000934547 0)
(0.413124 -0.0011503 0)
(0.413199 -0.00141941 0)
(0.413288 -0.00175606 0)
(0.413394 -0.00217893 0)
(0.413517 -0.00271306 0)
(0.413667 -0.00339293 0)
(0.413828 -0.0042606 0)
(0.414092 -0.00540898 0)
(0.412588 1.57864e-06 0)
(0.413741 6.99729e-06 0)
(0.413339 1.16714e-05 0)
(0.410903 1.72083e-05 0)
(0.411373 2.63332e-05 0)
(0.413718 3.21072e-05 0)
(0.413443 2.72833e-05 0)
(0.412297 1.12848e-05 0)
(0.412481 -1.90954e-05 0)
(0.413007 -6.30668e-05 0)
(0.412969 -0.000105333 0)
(0.412822 -0.000138538 0)
(0.412825 -0.000169516 0)
(0.412856 -0.00020396 0)
(0.412855 -0.000244347 0)
(0.412847 -0.000293478 0)
(0.412853 -0.000354126 0)
(0.412866 -0.00042918 0)
(0.412881 -0.000522243 0)
(0.412902 -0.000637671 0)
(0.412928 -0.000780766 0)
(0.41296 -0.000958202 0)
(0.412998 -0.00117845 0)
(0.413043 -0.0014524 0)
(0.413092 -0.00179418 0)
(0.413147 -0.00222242 0)
(0.413203 -0.00276213 0)
(0.413266 -0.00344831 0)
(0.413314 -0.00432168 0)
(0.413406 -0.00549134 0)
(0.412588 -8.43266e-07 0)
(0.41374 -7.73879e-07 0)
(0.413337 -8.53508e-07 0)
(0.410897 1.46282e-07 0)
(0.411368 2.47413e-06 0)
(0.413711 -1.16393e-07 0)
(0.413431 -9.11802e-06 0)
(0.412278 -2.0771e-05 0)
(0.412465 -4.10757e-05 0)
(0.412992 -7.43511e-05 0)
(0.412952 -0.000108569 0)
(0.412806 -0.000136864 0)
(0.412808 -0.000165942 0)
(0.412837 -0.000201128 0)
(0.412832 -0.000243215 0)
(0.412818 -0.000294024 0)
(0.412817 -0.000356424 0)
(0.412822 -0.000433441 0)
(0.412827 -0.000528574 0)
(0.412835 -0.00064608 0)
(0.412845 -0.000791203 0)
(0.412858 -0.000970526 0)
(0.412871 -0.00119238 0)
(0.412884 -0.00146739 0)
(0.412895 -0.00180933 0)
(0.412899 -0.00223626 0)
(0.41289 -0.00277238 0)
(0.412865 -0.00345205 0)
(0.4128 -0.00431329 0)
(0.412718 -0.00547413 0)
(0.412588 -3.04376e-06 0)
(0.413739 -7.71198e-06 0)
(0.413335 -1.22482e-05 0)
(0.410892 -1.6607e-05 0)
(0.411366 -2.15193e-05 0)
(0.413709 -3.08445e-05 0)
(0.413423 -4.29874e-05 0)
(0.412265 -5.18035e-05 0)
(0.412453 -6.33869e-05 0)
(0.412982 -8.56537e-05 0)
(0.412939 -0.000111233 0)
(0.41279 -0.000134485 0)
(0.412793 -0.000161314 0)
(0.412817 -0.000196544 0)
(0.412808 -0.00023966 0)
(0.412789 -0.00029152 0)
(0.412781 -0.000354916 0)
(0.412778 -0.000432959 0)
(0.412773 -0.000529026 0)
(0.412767 -0.000647213 0)
(0.412762 -0.000792621 0)
(0.412755 -0.000971628 0)
(0.412745 -0.00119225 0)
(0.412727 -0.00146467 0)
(0.412699 -0.00180192 0)
(0.412654 -0.00222104 0)
(0.412583 -0.00274467 0)
(0.412473 -0.00340515 0)
(0.4123 -0.00423665 0)
(0.412047 -0.00535803 0)
(0.412588 -5.17372e-06 0)
(0.413739 -1.44464e-05 0)
(0.413335 -2.3134e-05 0)
(0.410891 -3.31368e-05 0)
(0.411366 -4.59042e-05 0)
(0.413708 -6.05657e-05 0)
(0.413418 -7.39e-05 0)
(0.412254 -8.15737e-05 0)
(0.412449 -8.67842e-05 0)
(0.412977 -9.70672e-05 0)
(0.412929 -0.000112506 0)
(0.412777 -0.000130533 0)
(0.412778 -0.000155089 0)
(0.412798 -0.000189938 0)
(0.412783 -0.000233566 0)
(0.412759 -0.000285892 0)
(0.412745 -0.000349567 0)
(0.412733 -0.000427746 0)
(0.412718 -0.000523651 0)
(0.4127 -0.000641167 0)
(0.41268 -0.000785175 0)
(0.412654 -0.000961752 0)
(0.41262 -0.00117847 0)
(0.412573 -0.00144482 0)
(0.412508 -0.00177288 0)
(0.412417 -0.00217814 0)
(0.412287 -0.002681 0)
(0.412097 -0.00331033 0)
(0.411825 -0.0040955 0)
(0.411413 -0.00514756 0)
(0.412588 -7.27779e-06 0)
(0.413739 -2.11403e-05 0)
(0.413335 -3.40699e-05 0)
(0.410893 -4.9564e-05 0)
(0.411365 -7.00219e-05 0)
(0.413707 -9.00129e-05 0)
(0.413419 -0.000104239 0)
(0.412257 -0.000110883 0)
(0.412448 -0.000109687 0)
(0.412973 -0.000107313 0)
(0.412922 -0.000112228 0)
(0.412766 -0.000124824 0)
(0.412763 -0.000146821 0)
(0.412778 -0.000181106 0)
(0.412759 -0.000224876 0)
(0.41273 -0.000277124 0)
(0.412709 -0.000340399 0)
(0.412689 -0.000417879 0)
(0.412664 -0.000512583 0)
(0.412634 -0.000628139 0)
(0.412598 -0.000769147 0)
(0.412554 -0.000941295 0)
(0.412498 -0.00115159 0)
(0.412424 -0.00140872 0)
(0.412325 -0.00172347 0)
(0.412191 -0.00210947 0)
(0.412006 -0.00258421 0)
(0.411746 -0.00317193 0)
(0.411385 -0.00389618 0)
(0.410833 -0.00485175 0)
(0.412588 -9.46787e-06 0)
(0.41374 -2.82832e-05 0)
(0.413337 -4.55224e-05 0)
(0.410897 -6.56666e-05 0)
(0.411366 -9.3171e-05 0)
(0.413707 -0.000120127 0)
(0.413425 -0.00013695 0)
(0.412268 -0.000140336 0)
(0.412453 -0.000130214 0)
(0.412974 -0.000114469 0)
(0.412918 -0.000109634 0)
(0.412753 -0.000117058 0)
(0.41275 -0.000136633 0)
(0.41276 -0.000170162 0)
(0.412736 -0.000213588 0)
(0.412701 -0.000265197 0)
(0.412673 -0.000327457 0)
(0.412645 -0.000403476 0)
(0.41261 -0.000496014 0)
(0.412569 -0.000608403 0)
(0.41252 -0.000744916 0)
(0.412458 -0.000910794 0)
(0.412381 -0.00111239 0)
(0.412281 -0.00135744 0)
(0.412151 -0.0016553 0)
(0.411978 -0.00201742 0)
(0.411746 -0.0024579 0)
(0.411424 -0.00299542 0)
(0.410988 -0.003647 0)
(0.410322 -0.00448392 0)
(0.412588 -1.18067e-05 0)
(0.413741 -3.61887e-05 0)
(0.41334 -5.79611e-05 0)
(0.410904 -8.16081e-05 0)
(0.411369 -0.000115678 0)
(0.413711 -0.000151519 0)
(0.413434 -0.000172162 0)
(0.412282 -0.000169713 0)
(0.412463 -0.000148036 0)
(0.412974 -0.000119655 0)
(0.412919 -0.00010391 0)
(0.412744 -0.000106512 0)
(0.412738 -0.000124217 0)
(0.412743 -0.000156852 0)
(0.412713 -0.000199557 0)
(0.412672 -0.000250096 0)
(0.412638 -0.000310833 0)
(0.412602 -0.000384715 0)
(0.412559 -0.000474202 0)
(0.412507 -0.000582311 0)
(0.412444 -0.000712959 0)
(0.412367 -0.000870891 0)
(0.41227 -0.00106177 0)
(0.412147 -0.00129228 0)
(0.411988 -0.00157025 0)
(0.411781 -0.00190478 0)
(0.411508 -0.00230633 0)
(0.411136 -0.00278736 0)
(0.410641 -0.00335808 0)
(0.409892 -0.0040608 0)
(0.412588 -1.43096e-05 0)
(0.413742 -4.51213e-05 0)
(0.413345 -7.1836e-05 0)
(0.410912 -9.83969e-05 0)
(0.411374 -0.000138179 0)
(0.413714 -0.000184435 0)
(0.41345 -0.000210156 0)
(0.412305 -0.00019915 0)
(0.412479 -0.000162978 0)
(0.412981 -0.000121167 0)
(0.412922 -9.53293e-05 0)
(0.412737 -9.29789e-05 0)
(0.412728 -0.000108983 0)
(0.412726 -0.000140885 0)
(0.412691 -0.00018272 0)
(0.412645 -0.000231873 0)
(0.412604 -0.000290673 0)
(0.412561 -0.00036183 0)
(0.412509 -0.000447464 0)
(0.412447 -0.000550284 0)
(0.412372 -0.000673835 0)
(0.41228 -0.000822341 0)
(0.412166 -0.00100073 0)
(0.412022 -0.00121465 0)
(0.411838 -0.00147036 0)
(0.411602 -0.00177461 0)
(0.411296 -0.00213413 0)
(0.410886 -0.0025551 0)
(0.410349 -0.0030407 0)
(0.40955 -0.00360169 0)
(0.412588 -1.72301e-05 0)
(0.413745 -5.65204e-05 0)
(0.413354 -8.60998e-05 0)
(0.41092 -0.000112549 0)
(0.411378 -0.000161064 0)
(0.413729 -0.000222124 0)
(0.413465 -0.000252404 0)
(0.41233 -0.000228433 0)
(0.412498 -0.000174372 0)
(0.412987 -0.000119264 0)
(0.41293 -8.34301e-05 0)
(0.412732 -7.61022e-05 0)
(0.412719 -9.1095e-05 0)
(0.412711 -0.000122308 0)
(0.41267 -0.000163014 0)
(0.412619 -0.000210543 0)
(0.412572 -0.000267126 0)
(0.412522 -0.000335086 0)
(0.412462 -0.000416172 0)
(0.412391 -0.000512795 0)
(0.412305 -0.000628145 0)
(0.4122 -0.000765951 0)
(0.412069 -0.000930419 0)
(0.411907 -0.00112615 0)
(0.411702 -0.0013579 0)
(0.411442 -0.00163012 0)
(0.41111 -0.00194607 0)
(0.410674 -0.00230601 0)
(0.410112 -0.00270646 0)
(0.409297 -0.00312721 0)
(0.412587 -2.06e-05 0)
(0.413748 -7.10752e-05 0)
(0.413368 -0.000104648 0)
(0.410932 -0.000125836 0)
(0.411373 -0.000181596 0)
(0.413724 -0.000262247 0)
(0.413489 -0.000300016 0)
(0.412369 -0.000258984 0)
(0.412523 -0.000182112 0)
(0.412998 -0.000113316 0)
(0.412944 -6.75372e-05 0)
(0.412733 -5.50365e-05 0)
(0.412711 -6.96967e-05 0)
(0.412697 -0.000100608 0)
(0.41265 -0.000140332 0)
(0.412594 -0.000186262 0)
(0.412541 -0.000240472 0)
(0.412485 -0.000304837 0)
(0.412419 -0.00038076 0)
(0.412339 -0.000470389 0)
(0.412243 -0.000576568 0)
(0.412126 -0.000702548 0)
(0.411982 -0.000851873 0)
(0.411803 -0.00102818 0)
(0.411581 -0.00123483 0)
(0.411302 -0.00147428 0)
(0.410951 -0.00174673 0)
(0.410499 -0.00204725 0)
(0.409928 -0.00236705 0)
(0.40913 -0.00265795 0)
(0.412587 -2.48421e-05 0)
(0.413754 -9.09564e-05 0)
(0.413391 -0.000122487 0)
(0.410947 -0.000135357 0)
(0.411356 -0.000199478 0)
(0.413732 -0.000309709 0)
(0.413509 -0.000351927 0)
(0.412391 -0.00028655 0)
(0.41255 -0.000187423 0)
(0.41302 -0.000105707 0)
(0.41296 -4.67772e-05 0)
(0.412733 -2.85541e-05 0)
(0.412705 -4.50862e-05 0)
(0.412685 -7.6359e-05 0)
(0.412632 -0.000114791 0)
(0.41257 -0.000159091 0)
(0.412512 -0.000210938 0)
(0.412451 -0.000271451 0)
(0.412378 -0.000341692 0)
(0.412291 -0.000423624 0)
(0.412186 -0.000519813 0)
(0.412059 -0.000633079 0)
(0.411903 -0.00076635 0)
(0.411711 -0.000922388 0)
(0.411474 -0.00110335 0)
(0.411181 -0.00131004 0)
(0.410817 -0.00154021 0)
(0.41036 -0.00178502 0)
(0.409793 -0.0020321 0)
(0.409039 -0.00221131 0)
(0.412587 -3.06563e-05 0)
(0.413763 -0.000118407 0)
(0.413421 -0.00013643 0)
(0.410938 -0.000126486 0)
(0.411316 -0.000227164 0)
(0.413709 -0.00038107 0)
(0.413533 -0.000417915 0)
(0.412445 -0.000313709 0)
(0.412573 -0.000188785 0)
(0.413022 -9.4776e-05 0)
(0.412991 -2.30932e-05 0)
(0.41276 3.14148e-06 0)
(0.412701 -1.56094e-05 0)
(0.412671 -4.83937e-05 0)
(0.412613 -8.60467e-05 0)
(0.412546 -0.000129156 0)
(0.412484 -0.000178879 0)
(0.412418 -0.000235418 0)
(0.412341 -0.00029954 0)
(0.412248 -0.000373126 0)
(0.412136 -0.000458582 0)
(0.412 -0.000558374 0)
(0.411834 -0.000674878 0)
(0.411631 -0.000810126 0)
(0.411383 -0.000965295 0)
(0.411079 -0.00113999 0)
(0.410708 -0.00133017 0)
(0.410252 -0.00152462 0)
(0.409698 -0.00170981 0)
(0.409007 -0.00180189 0)
(0.412588 -4.00574e-05 0)
(0.413777 -0.000163908 0)
(0.413471 -0.000155174 0)
(0.411028 -7.25582e-05 0)
(0.411199 -0.000201208 0)
(0.413603 -0.00047868 0)
(0.413532 -0.000509621 0)
(0.412438 -0.000352564 0)
(0.412595 -0.000197976 0)
(0.413078 -8.86113e-05 0)
(0.413015 7.8923e-06 0)
(0.412766 4.69642e-05 0)
(0.412691 2.40879e-05 0)
(0.412658 -1.53932e-05 0)
(0.412595 -5.51158e-05 0)
(0.412523 -9.76297e-05 0)
(0.412457 -0.000145074 0)
(0.412389 -0.000197311 0)
(0.412307 -0.000254861 0)
(0.41221 -0.000319533 0)
(0.412092 -0.000393621 0)
(0.411949 -0.000479311 0)
(0.411775 -0.000578519 0)
(0.411563 -0.000692683 0)
(0.411306 -0.000822233 0)
(0.410995 -0.000966032 0)
(0.41062 -0.00111902 0)
(0.410171 -0.00126939 0)
(0.409637 -0.00140505 0)
(0.409015 -0.00143882 0)
(0.412588 -5.41398e-05 0)
(0.413802 -0.000202933 0)
(0.41351 -0.000193766 0)
(0.41081 -6.11268e-05 0)
(0.41102 -0.000172489 0)
(0.413573 -0.000478625 0)
(0.413546 -0.00053896 0)
(0.412585 -0.000376188 0)
(0.41254 -0.000207943 0)
(0.413031 -8.73933e-05 0)
(0.413036 2.98715e-05 0)
(0.41281 8.39131e-05 0)
(0.41269 6.38325e-05 0)
(0.412641 2.13151e-05 0)
(0.412574 -2.0596e-05 0)
(0.412499 -6.40308e-05 0)
(0.412432 -0.00011021 0)
(0.412362 -0.000158074 0)
(0.412278 -0.000208445 0)
(0.412177 -0.000263528 0)
(0.412054 -0.000325652 0)
(0.411905 -0.000396749 0)
(0.411725 -0.000478337 0)
(0.411507 -0.000571369 0)
(0.411243 -0.00067575 0)
(0.410928 -0.00078994 0)
(0.410551 -0.000908619 0)
(0.410111 -0.0010208 0)
(0.409598 -0.00111853 0)
(0.409041 -0.00112264 0)
(0.412592 -7.67375e-05 0)
(0.4138 -0.000289012 0)
(0.413571 -3.40221e-05 0)
(0.410876 0.000246901 0)
(0.410695 -0.000396255 0)
(0.413251 -0.00104912 0)
(0.413389 -0.000811347 0)
(0.412299 -0.000358144 0)
(0.41246 -0.000199842 0)
(0.413023 -9.03502e-05 0)
(0.413116 8.65189e-05 0)
(0.412864 0.000156789 0)
(0.412694 0.000124884 0)
(0.412619 6.35851e-05 0)
(0.412546 1.4961e-05 0)
(0.412472 -2.85822e-05 0)
(0.412407 -7.34494e-05 0)
(0.412338 -0.000117399 0)
(0.412253 -0.000160569 0)
(0.41215 -0.000205648 0)
(0.412024 -0.000255345 0)
(0.411871 -0.000311442 0)
(0.411685 -0.000375131 0)
(0.411462 -0.000447011 0)
(0.411194 -0.000526814 0)
(0.410876 -0.000612647 0)
(0.4105 -0.000699972 0)
(0.410068 -0.000779787 0)
(0.409574 -0.000848063 0)
(0.409058 -0.000846634 0)
(0.412604 -0.000116304 0)
(0.41385 -0.000361073 0)
(0.413568 -0.000227798 0)
(0.410993 0.000332586 0)
(0.409891 0.00030906 0)
(0.411084 -0.000514303 0)
(0.412653 -0.000818618 0)
(0.413006 -0.000471441 0)
(0.413245 -0.000298615 0)
(0.413458 -0.000210219 0)
(0.413295 1.72099e-05 0)
(0.41291 0.000206415 0)
(0.412667 0.00020902 0)
(0.412575 0.000119503 0)
(0.412511 4.51209e-05 0)
(0.412445 -3.51687e-06 0)
(0.412383 -4.31601e-05 0)
(0.412317 -7.92305e-05 0)
(0.412233 -0.000112998 0)
(0.412128 -0.000146897 0)
(0.412 -0.000183522 0)
(0.411844 -0.000224328 0)
(0.411656 -0.000270075 0)
(0.411429 -0.000320989 0)
(0.411159 -0.000376624 0)
(0.41084 -0.00043528 0)
(0.410465 -0.000492923 0)
(0.410039 -0.000543792 0)
(0.409559 -0.000587171 0)
(0.40905 -0.000585794 0)
(0.412594 -0.000177264 0)
(0.413765 -0.000394634 0)
(0.41324 0.000178157 0)
(0.409684 0.00101554 0)
(0.409793 0.000284545 0)
(0.413444 -0.00188013 0)
(0.414332 -0.00217832 0)
(0.413919 -0.00128511 0)
(0.413611 -0.000264917 0)
(0.413422 0.000163357 0)
(0.412999 0.000316395 0)
(0.412588 0.000359888 0)
(0.412459 0.000309569 0)
(0.412455 0.000194152 0)
(0.412428 9.77534e-05 0)
(0.412379 3.68717e-05 0)
(0.412325 -4.73546e-06 0)
(0.412262 -3.73264e-05 0)
(0.412178 -6.33532e-05 0)
(0.412073 -8.66236e-05 0)
(0.411942 -0.000110122 0)
(0.411783 -0.000135366 0)
(0.411591 -0.000163037 0)
(0.411361 -0.000193245 0)
(0.411088 -0.000225697 0)
(0.41077 -0.000258117 0)
(0.410403 -0.000289168 0)
(0.409984 -0.00031168 0)
(0.409524 -0.000330792 0)
(0.408866 -0.000231571 0)
(0.412788 -9.41172e-05 0)
(0.412831 -0.000280734 0)
(0.411577 0.000347072 0)
(0.411878 0.0010057 0)
(0.414186 0.000205578 0)
(0.413735 -0.0016127 0)
(0.409325 -0.00189497 0)
(0.405274 -0.000945398 0)
(0.404253 0.000212616 0)
(0.405019 0.000484865 0)
(0.405867 0.000500161 0)
(0.406556 0.00040991 0)
(0.407185 0.000252365 0)
(0.407649 0.000128008 0)
(0.407898 6.37259e-05 0)
(0.408004 3.10121e-05 0)
(0.408034 9.67765e-06 0)
(0.408014 -7.01198e-06 0)
(0.407952 -1.87028e-05 0)
(0.407856 -2.77461e-05 0)
(0.407729 -3.63393e-05 0)
(0.407569 -4.51182e-05 0)
(0.407375 -5.44201e-05 0)
(0.407143 -6.43996e-05 0)
(0.40687 -7.48385e-05 0)
(0.406555 -8.50551e-05 0)
(0.4062 -9.35026e-05 0)
(0.405813 -9.57171e-05 0)
(0.405408 -0.000106733 0)
(0.404516 3.53518e-05 0)
(0.416095 -0.000778145 -1.12101e-18)
(0.417962 -0.00112371 -8.71817e-21)
(0.419349 -0.00151964 1.16527e-18)
(0.420208 -0.00200461 2.33808e-18)
(0.420801 -0.00260155 1.19147e-18)
(0.421285 -0.00329954 -1.18272e-18)
(0.421709 -0.00409206 1.2036e-18)
(0.422092 -0.00498339 0)
(0.422444 -0.00598025 1.2188e-18)
(0.42277 -0.00708708 -7.30027e-21)
(0.423066 -0.00830845 8.57051e-20)
(0.423327 -0.00965375 0)
(0.42355 -0.0111403 -1.44031e-18)
(0.423736 -0.0127942 0)
(0.423885 -0.0146492 0)
(0.423997 -0.0167473 -1.58955e-18)
(0.424064 -0.019141 -1.52354e-18)
(0.424077 -0.0218989 -6.19947e-23)
(0.424023 -0.0251141 1.52171e-18)
(0.423882 -0.0289155 2.26999e-19)
(0.423627 -0.0334826 -2.10911e-18)
(0.423224 -0.0390815 2.45285e-19)
(0.422628 -0.0460537 -1.27624e-19)
(0.421762 -0.0551321 1.96692e-18)
(0.420569 -0.0666171 2.75464e-19)
(0.418804 -0.0840656 -1.42345e-19)
(0.41657 -0.10372 0)
(0.413171 -0.148521 -2.07261e-18)
(0.408965 -0.182076 -2.1907e-18)
(0.40632 -0.342246 0)
(0.418843 -0.00124969 1.13175e-18)
(0.419634 -0.00158298 -2.67528e-20)
(0.420162 -0.00208213 2.17281e-20)
(0.420444 -0.00269716 -1.18559e-18)
(0.420687 -0.00339449 -3.78616e-20)
(0.420972 -0.00416485 1.27677e-18)
(0.421283 -0.00501629 1.19233e-18)
(0.421589 -0.00595981 1.62331e-19)
(0.421877 -0.00700149 -8.32795e-20)
(0.422138 -0.00814511 1.36056e-18)
(0.422365 -0.00939807 1.49401e-18)
(0.422551 -0.010775 1.35621e-18)
(0.422695 -0.0122981 1.58171e-18)
(0.422797 -0.0139965 1.43958e-18)
(0.422853 -0.0159047 1.58477e-18)
(0.422856 -0.0180648 3.36036e-18)
(0.422796 -0.0205295 1.59121e-18)
(0.422655 -0.0233684 -1.86909e-18)
(0.422413 -0.0266765 1.94204e-18)
(0.422039 -0.030585 -1.18132e-19)
(0.421492 -0.0352767 1.22812e-19)
(0.420719 -0.0410157 2.0762e-18)
(0.419633 -0.0481653 0)
(0.418129 -0.0573852 -1.40822e-19)
(0.415999 -0.0692118 2.54202e-18)
(0.412993 -0.0864995 0)
(0.408663 -0.107174 2.63302e-18)
(0.402207 -0.150152 -2.45731e-18)
(0.392077 -0.186073 -2.66774e-20)
(0.380384 -0.338355 1.02354e-18)
(0.418772 -0.00180413 -8.86262e-21)
(0.419188 -0.0022172 -8.99632e-21)
(0.419545 -0.00280832 -1.16178e-18)
(0.419835 -0.00348051 -3.76901e-20)
(0.420127 -0.00419914 3.86392e-20)
(0.420439 -0.00497695 -3.94238e-20)
(0.420736 -0.00583196 -1.24979e-18)
(0.420998 -0.00677378 0)
(0.421221 -0.00780833 0)
(0.421404 -0.00894338 0)
(0.421545 -0.0101907 -1.42986e-18)
(0.421643 -0.0115668 -7.98631e-20)
(0.421693 -0.0130941 -1.32519e-18)
(0.421693 -0.0148005 -1.56326e-18)
(0.421635 -0.0167204 -1.71626e-18)
(0.421509 -0.0188952 -1.67063e-18)
(0.421298 -0.0213778 1.31646e-19)
(0.420979 -0.0242383 1.68419e-18)
(0.420523 -0.0275723 -1.75128e-18)
(0.41989 -0.031511 -1.22566e-19)
(0.419023 -0.036238 0)
(0.417847 -0.0420136 -4.44165e-18)
(0.416244 -0.0492143 1.40812e-19)
(0.41405 -0.0584344 -2.41716e-18)
(0.41099 -0.0704202 8.74528e-20)
(0.406637 -0.0873087 0)
(0.400354 -0.108888 -5.68311e-18)
(0.39066 -0.149283 5.61937e-18)
(0.37505 -0.188541 -3.14888e-18)
(0.353535 -0.33087 -1.14535e-18)
(0.41868 -0.00254427 0)
(0.419001 -0.00301798 -1.19696e-18)
(0.419284 -0.00361803 4.46899e-23)
(0.419536 -0.00427847 1.92288e-20)
(0.419774 -0.00498739 0)
(0.42 -0.00576325 0)
(0.420201 -0.00662141 -1.32395e-18)
(0.420369 -0.00756848 0)
(0.420502 -0.0086095 8.68389e-20)
(0.420599 -0.00975209 -1.78671e-19)
(0.420655 -0.0110077 7.21219e-23)
(0.420664 -0.0123932 -1.41448e-18)
(0.420619 -0.0139316 9.77845e-20)
(0.420515 -0.0156516 1.52475e-18)
(0.420339 -0.0175877 1.04663e-19)
(0.420077 -0.0197812 1.63832e-18)
(0.419706 -0.0222848 -1.79039e-18)
(0.419199 -0.0251689 -1.89146e-18)
(0.418516 -0.0285288 0)
(0.417607 -0.0324957 1.93962e-18)
(0.416399 -0.0372522 1.33835e-19)
(0.414794 -0.0430561 2.37676e-18)
(0.412638 -0.0502825 -1.48377e-19)
(0.409719 -0.0594978 2.48946e-18)
(0.405657 -0.0715185 -2.63885e-18)
(0.399941 -0.0880879 0)
(0.391512 -0.110067 3.07419e-18)
(0.378726 -0.148109 -3.11591e-18)
(0.357276 -0.189478 3.2198e-18)
(0.326509 -0.320618 8.56524e-20)
(0.418425 -0.00323325 0)
(0.418656 -0.00372022 1.19389e-18)
(0.418847 -0.00431314 0)
(0.419034 -0.00497235 0)
(0.419212 -0.005691 0)
(0.419371 -0.00647955 0)
(0.419503 -0.00734738 1.34379e-18)
(0.419602 -0.00829969 4.32379e-20)
(0.419665 -0.00934234 -4.4491e-20)
(0.419685 -0.0104845 0)
(0.419657 -0.0117395 0)
(0.419573 -0.0131259 9.73658e-20)
(0.419426 -0.0146672 8.88113e-23)
(0.419208 -0.0163919 -1.7605e-18)
(0.418903 -0.0183335 0)
(0.418492 -0.0205326 -1.78228e-18)
(0.417947 -0.0230416 0)
(0.417234 -0.0259302 2.05555e-18)
(0.416305 -0.0292933 -2.54924e-19)
(0.415099 -0.0332607 -1.9853e-18)
(0.413526 -0.0380122 1.13853e-18)
(0.411462 -0.043801 0)
(0.408719 -0.0509952 0)
(0.405034 -0.0601372 0)
(0.39993 -0.0720625 1.46785e-18)
(0.392798 -0.0882444 -1.58468e-18)
(0.382175 -0.110224 0)
(0.366341 -0.145863 -1.84705e-18)
(0.339035 -0.188629 -2.04524e-18)
(0.29941 -0.307507 1.69847e-18)
(0.418059 -0.00387894 5.86867e-19)
(0.418221 -0.00438084 6.19427e-19)
(0.418339 -0.00497943 6.44111e-19)
(0.418469 -0.00564417 6.00087e-19)
(0.418592 -0.0063687 7.17379e-19)
(0.418687 -0.0071598 6.31298e-19)
(0.418748 -0.00802599 6.91589e-19)
(0.418772 -0.00897407 -7.11179e-19)
(0.418755 -0.0100114 4.55578e-20)
(0.41869 -0.0111481 6.60786e-19)
(0.41857 -0.0123986 7.78921e-19)
(0.418387 -0.0137818 7.55041e-19)
(0.418132 -0.0153209 1.03514e-19)
(0.417793 -0.0170434 -8.64581e-19)
(0.41735 -0.0189817 1.11734e-19)
(0.416779 -0.0211756 -2.32221e-19)
(0.416049 -0.0236764 -8.558e-19)
(0.415118 -0.0265531 -1.02219e-18)
(0.41393 -0.0298988 0)
(0.412409 -0.0338407 -1.40613e-19)
(0.41045 -0.0385544 2.52304e-20)
(0.407904 -0.0442857 1.5568e-19)
(0.404547 -0.051391 1.18798e-18)
(0.400063 -0.0603889 2.68209e-19)
(0.393885 -0.0720957 -3.68763e-20)
(0.385299 -0.0878019 1.75282e-18)
(0.372466 -0.109389 -1.13045e-19)
(0.353638 -0.142601 1.94029e-18)
(0.32058 -0.185578 2.29648e-18)
(0.272855 -0.291715 -1.97046e-18)
(0.417598 -0.00447315 -6.03762e-19)
(0.417696 -0.00498553 -6.08238e-19)
(0.417748 -0.00558596 -6.43013e-19)
(0.417818 -0.00624965 2.44507e-20)
(0.417881 -0.00697237 -1.31465e-18)
(0.417909 -0.00776001 -6.83203e-19)
(0.417898 -0.00862049 -1.49792e-18)
(0.417846 -0.00956099 8.44899e-20)
(0.417749 -0.0105895 -4.67009e-20)
(0.417597 -0.0117168 -1.54229e-18)
(0.417384 -0.0129577 8.38642e-21)
(0.417099 -0.0143312 -7.68128e-19)
(0.416731 -0.0158598 8.06256e-19)
(0.416263 -0.0175698 -1.15689e-20)
(0.415675 -0.0194923 1.15637e-19)
(0.414936 -0.0216657 -1.20023e-19)
(0.41401 -0.0241405 9.98204e-19)