/*--------------------------------*- C++ -*----------------------------------*\
  =========                 |
  \\      /  F ield         | OpenFOAM: The Open Source CFD Toolbox
   \\    /   O peration     | Website:  https://openfoam.org
    \\  /    A nd           | Version:  11
     \\/     M anipulation  |
\*---------------------------------------------------------------------------*/
FoamFile
{
    format      ascii;
    class       volScalarField;
    location    "6.3";
    object      p;
}
// * * * * * * * * * * * * * * * * * * * * * * * * * * * * * * * * * * * * * //

dimensions      [0 2 -2 0 0 0 0];

internalField   nonuniform List<scalar> 
12600
(
0.887652
0.887518
0.88745
0.887422
0.887393
0.887353
0.887305
0.88725
0.887188
0.887113
0.887025
0.88692
0.886794
0.886642
0.886459
0.886237
0.885966
0.885634
0.885227
0.884726
0.884109
0.883341
0.882386
0.88121
0.879745
0.877905
0.875589
0.872656
0.868946
0.864163
0.887581
0.88751
0.887453
0.887422
0.887392
0.887353
0.887306
0.887252
0.88719
0.887117
0.887029
0.886926
0.886802
0.886652
0.886471
0.886251
0.885983
0.885657
0.885256
0.884763
0.884158
0.8834
0.882455
0.881296
0.879854
0.878041
0.875755
0.872862
0.869179
0.864486
0.887547
0.887513
0.887463
0.887427
0.887395
0.887358
0.887312
0.887259
0.887198
0.887126
0.887041
0.886939
0.886817
0.886671
0.886493
0.886278
0.886017
0.885698
0.885307
0.884825
0.884232
0.883495
0.882581
0.881453
0.880047
0.878281
0.876051
0.873232
0.869613
0.86504
0.887526
0.887504
0.887463
0.887427
0.887396
0.88736
0.887317
0.887265
0.887206
0.887137
0.887054
0.886955
0.886837
0.886696
0.886524
0.886317
0.886064
0.885757
0.885379
0.884916
0.884345
0.883639
0.882763
0.881679
0.880327
0.87863
0.876486
0.873774
0.870274
0.865854
0.887512
0.887497
0.887465
0.887432
0.887402
0.887367
0.887326
0.887276
0.887219
0.887152
0.887073
0.886979
0.886866
0.88673
0.886566
0.886368
0.886127
0.885834
0.885475
0.885035
0.884493
0.883824
0.882995
0.881968
0.880688
0.879083
0.877052
0.874481
0.871146
0.866936
0.887503
0.887492
0.887467
0.887437
0.887407
0.887374
0.887335
0.887288
0.887233
0.88717
0.887095
0.887005
0.886898
0.88677
0.886616
0.886429
0.886203
0.885927
0.885591
0.885178
0.884672
0.884048
0.883276
0.882319
0.881128
0.879634
0.877742
0.875346
0.872222
0.868275
0.887499
0.88749
0.88747
0.887443
0.887414
0.887383
0.887346
0.887302
0.887251
0.887191
0.887121
0.887037
0.886938
0.886818
0.886675
0.886502
0.886292
0.886037
0.885726
0.885347
0.884881
0.884308
0.883602
0.882727
0.881638
0.880275
0.878548
0.876359
0.87349
0.869859
0.887497
0.88749
0.887473
0.887449
0.887423
0.887393
0.887359
0.887318
0.887271
0.887215
0.88715
0.887073
0.886981
0.886872
0.886741
0.886583
0.886392
0.88616
0.885879
0.885536
0.885116
0.884602
0.883968
0.883185
0.882213
0.880997
0.879459
0.877507
0.874936
0.871675
0.887498
0.887492
0.887477
0.887457
0.887432
0.887405
0.887373
0.887336
0.887293
0.887242
0.887183
0.887113
0.88703
0.886932
0.886814
0.886673
0.886502
0.886297
0.886048
0.885745
0.885375
0.884924
0.88437
0.883688
0.882844
0.881791
0.88046
0.878774
0.876541
0.873702
0.887501
0.887496
0.887483
0.887465
0.887443
0.887418
0.887389
0.887356
0.887316
0.887271
0.887218
0.887156
0.887083
0.886996
0.886893
0.88677
0.886622
0.886444
0.886229
0.88597
0.885654
0.885271
0.884802
0.884229
0.883521
0.882644
0.881538
0.880141
0.878282
0.875915
0.887506
0.887501
0.88749
0.887474
0.887455
0.887432
0.887406
0.887376
0.887342
0.887302
0.887256
0.887202
0.887139
0.887065
0.886977
0.886873
0.886749
0.886601
0.886423
0.886208
0.88595
0.885637
0.885259
0.884799
0.884236
0.883543
0.882676
0.881586
0.880132
0.87828
0.887512
0.887508
0.887499
0.887485
0.887467
0.887447
0.887424
0.887398
0.887368
0.887334
0.887295
0.88725
0.887198
0.887137
0.887066
0.886982
0.886883
0.886765
0.886625
0.886458
0.886258
0.886019
0.885733
0.88539
0.884976
0.884474
0.883854
0.883085
0.882059
0.880757
0.887519
0.887516
0.887508
0.887496
0.887481
0.887463
0.887444
0.887421
0.887396
0.887368
0.887336
0.8873
0.887259
0.887212
0.887158
0.887094
0.887021
0.886934
0.886833
0.886714
0.886575
0.886411
0.886219
0.885995
0.885731
0.885423
0.885053
0.884611
0.884026
0.883297
0.887528
0.887525
0.887518
0.887508
0.887495
0.88748
0.887463
0.887445
0.887425
0.887403
0.887379
0.887352
0.887322
0.887289
0.887252
0.887209
0.887162
0.887107
0.887046
0.886976
0.886897
0.886808
0.88671
0.886604
0.886491
0.886374
0.886254
0.886136
0.885994
0.885845
0.887538
0.887535
0.887529
0.88752
0.887509
0.887497
0.887483
0.887469
0.887454
0.887438
0.887422
0.887404
0.887386
0.887367
0.887347
0.887326
0.887304
0.887282
0.88726
0.887238
0.887219
0.887205
0.8872
0.88721
0.887243
0.887312
0.887434
0.887632
0.88792
0.888341
0.887548
0.887546
0.887541
0.887533
0.887524
0.887514
0.887504
0.887494
0.887483
0.887474
0.887465
0.887457
0.88745
0.887445
0.887442
0.887442
0.887446
0.887456
0.887473
0.887499
0.887539
0.887598
0.887683
0.887804
0.887978
0.888224
0.888574
0.889069
0.889764
0.890723
0.887559
0.887558
0.887553
0.887546
0.887539
0.887531
0.887524
0.887518
0.887513
0.887509
0.887507
0.887509
0.887513
0.887522
0.887536
0.887557
0.887587
0.887628
0.887683
0.887756
0.887853
0.887981
0.888152
0.88838
0.888685
0.889097
0.889657
0.890423
0.891485
0.89293
0.887571
0.88757
0.887566
0.88756
0.887554
0.887549
0.887545
0.887542
0.887542
0.887544
0.88755
0.88756
0.887575
0.887598
0.887629
0.88767
0.887724
0.887795
0.887887
0.888005
0.888156
0.888352
0.888603
0.88893
0.889357
0.889918
0.890666
0.89167
0.893049
0.89491
0.887584
0.887582
0.887579
0.887574
0.887569
0.887566
0.887564
0.887566
0.88757
0.887578
0.88759
0.887609
0.887636
0.887671
0.887718
0.887779
0.887857
0.887957
0.888084
0.888244
0.888447
0.888705
0.889032
0.889449
0.889985
0.890679
0.891589
0.892792
0.894428
0.896618
0.887597
0.887595
0.887592
0.887587
0.887584
0.887582
0.887584
0.887588
0.887597
0.88761
0.88763
0.887657
0.887694
0.887742
0.887804
0.887883
0.887984
0.888111
0.888271
0.888471
0.888722
0.889037
0.889433
0.889931
0.890564
0.891372
0.892416
0.893777
0.895604
0.898024
0.88761
0.887609
0.887605
0.8876
0.887598
0.887598
0.887602
0.88761
0.887622
0.887641
0.887667
0.887702
0.887749
0.887809
0.887885
0.887982
0.888104
0.888257
0.888447
0.888684
0.888979
0.889346
0.889804
0.890374
0.89109
0.891992
0.893142
0.894618
0.896568
0.899117
0.887625
0.887623
0.887618
0.887613
0.887611
0.887614
0.88762
0.88763
0.887647
0.88767
0.887702
0.887745
0.8878
0.887871
0.887961
0.888074
0.888215
0.888392
0.88861
0.888881
0.889216
0.88963
0.890142
0.890774
0.891559
0.892537
0.893765
0.895316
0.897324
0.899903
0.887639
0.887637
0.887631
0.887625
0.887624
0.887628
0.887636
0.887649
0.887669
0.887697
0.887734
0.887784
0.887847
0.887928
0.88803
0.888158
0.888317
0.888515
0.888759
0.88906
0.889431
0.889886
0.890445
0.89113
0.891972
0.893008
0.894288
0.895877
0.897885
0.900406
0.887655
0.887652
0.887643
0.887637
0.887636
0.887641
0.887651
0.887666
0.887689
0.887721
0.887763
0.887819
0.88789
0.88798
0.888093
0.888234
0.888409
0.888626
0.888893
0.88922
0.889622
0.890113
0.890712
0.891441
0.892328
0.893406
0.894717
0.896312
0.898275
0.900667
0.887673
0.887667
0.887655
0.887647
0.887646
0.887652
0.887664
0.887681
0.887707
0.887742
0.887789
0.88785
0.887927
0.888025
0.888148
0.8883
0.888489
0.888723
0.889009
0.88936
0.889788
0.890309
0.890942
0.891706
0.892627
0.893734
0.895059
0.896638
0.898522
0.900738
0.887692
0.887683
0.887665
0.887655
0.887656
0.887663
0.887676
0.887694
0.887722
0.887761
0.887811
0.887877
0.88796
0.888064
0.888195
0.888358
0.888558
0.888806
0.889109
0.889479
0.889929
0.890475
0.891135
0.891927
0.892874
0.893998
0.895324
0.896872
0.898661
0.900681
0.887715
0.887699
0.887673
0.887661
0.887663
0.887671
0.887684
0.887704
0.887734
0.887775
0.887829
0.887898
0.887985
0.888095
0.888233
0.888404
0.888614
0.888873
0.889189
0.889575
0.890043
0.890609
0.891289
0.892103
0.893067
0.894202
0.895521
0.897031
0.898726
0.900556
0.887744
0.887715
0.88768
0.887668
0.887671
0.887679
0.887692
0.887714
0.887745
0.887788
0.887844
0.887916
0.888006
0.888121
0.888264
0.88844
0.888658
0.888925
0.889252
0.88965
0.890131
0.890712
0.891408
0.892237
0.893214
0.894353
0.895662
0.897133
0.898748
0.900433
0.887782
0.887718
0.887677
0.88767
0.887674
0.887682
0.887696
0.887718
0.887751
0.887795
0.887852
0.887926
0.88802
0.888137
0.888284
0.888465
0.888688
0.888961
0.889295
0.8897
0.890191
0.890782
0.891488
0.892327
0.893311
0.894452
0.89575
0.897186
0.898731
0.900322
0.887856
0.887728
0.887676
0.887673
0.887678
0.887686
0.8877
0.887722
0.887755
0.8878
0.887858
0.887933
0.888028
0.888148
0.888296
0.888479
0.888705
0.888982
0.88932
0.88973
0.890227
0.890823
0.891536
0.892381
0.89337
0.894512
0.895802
0.897219
0.8987
0.900117
0.85977
0.857907
0.856476
0.855324
0.854114
0.852768
0.851344
0.849885
0.8484
0.846884
0.845335
0.843748
0.842112
0.840413
0.838628
0.83673
0.834682
0.832438
0.829938
0.827102
0.823824
0.819961
0.81532
0.809629
0.802526
0.793404
0.781866
0.764535
0.74993
0.702601
0.860821
0.859298
0.85799
0.856855
0.855678
0.854417
0.853132
0.851853
0.850573
0.849279
0.847962
0.846618
0.845237
0.843802
0.842297
0.840698
0.838974
0.837087
0.834984
0.832599
0.829839
0.826585
0.822669
0.817864
0.811851
0.804139
0.794272
0.780099
0.766047
0.72778
0.861155
0.859978
0.858949
0.857948
0.856911
0.855847
0.854784
0.853726
0.852664
0.85159
0.850501
0.849394
0.848261
0.847092
0.845872
0.844581
0.843196
0.841685
0.840003
0.838095
0.835887
0.833275
0.830122
0.826238
0.821354
0.815077
0.806955
0.795541
0.783044
0.752699
0.862022
0.861171
0.860418
0.859571
0.858672
0.857779
0.856903
0.856035
0.85517
0.854305
0.85344
0.852571
0.851692
0.850793
0.849864
0.84889
0.847851
0.846723
0.845471
0.84405
0.842401
0.84044
0.838055
0.835092
0.831326
0.826452
0.820033
0.811113
0.800576
0.77716
0.863224
0.862604
0.862059
0.861358
0.860606
0.85989
0.85921
0.858544
0.857887
0.857242
0.856607
0.855982
0.855361
0.854738
0.854107
0.853457
0.852775
0.852041
0.851231
0.85031
0.849231
0.847931
0.84632
0.844277
0.841618
0.83811
0.833347
0.82673
0.818302
0.800922
0.864729
0.86432
0.863978
0.863442
0.862853
0.862319
0.861832
0.861366
0.860914
0.860484
0.860079
0.859697
0.859336
0.858993
0.858665
0.858344
0.858024
0.85769
0.857327
0.856909
0.856403
0.855762
0.854917
0.853774
0.85219
0.849984
0.846799
0.842288
0.83596
0.823743
0.86653
0.866317
0.866168
0.865794
0.865367
0.865011
0.864715
0.864446
0.8642
0.863988
0.863815
0.863679
0.863581
0.863521
0.863498
0.863511
0.863555
0.863624
0.863708
0.863793
0.863854
0.863861
0.863763
0.86349
0.862931
0.86195
0.860242
0.857626
0.853308
0.845425
0.868614
0.868588
0.868621
0.868411
0.868147
0.867968
0.867861
0.867789
0.86775
0.867756
0.867813
0.867923
0.868088
0.86831
0.868592
0.868937
0.869343
0.869811
0.870337
0.870914
0.871529
0.872161
0.872778
0.873328
0.873728
0.873875
0.873519
0.87257
0.870108
0.865773
0.870968
0.871116
0.871322
0.871272
0.871171
0.871167
0.871246
0.871369
0.871533
0.871754
0.872039
0.872392
0.872817
0.873318
0.873902
0.874573
0.875335
0.876192
0.877147
0.878198
0.879342
0.880567
0.881854
0.883167
0.884444
0.885605
0.886452
0.88693
0.886126
0.884594
0.873566
0.873877
0.874244
0.874349
0.87441
0.874577
0.874837
0.87515
0.875513
0.875944
0.876453
0.877044
0.877722
0.878495
0.87937
0.880357
0.881461
0.882691
0.884053
0.885553
0.887191
0.888966
0.890866
0.892867
0.894926
0.896976
0.898859
0.900524
0.90115
0.901723
0.876374
0.876834
0.877346
0.877602
0.877821
0.878154
0.878588
0.879083
0.879639
0.880273
0.880996
0.881815
0.882736
0.883768
0.884922
0.886207
0.887633
0.889212
0.890953
0.892865
0.894954
0.897224
0.899669
0.902276
0.905008
0.907812
0.910558
0.91318
0.914995
0.917049
0.879344
0.879937
0.88058
0.880979
0.881349
0.88184
0.882439
0.883107
0.883845
0.88467
0.885596
0.886628
0.887777
0.889051
0.890462
0.892023
0.893745
0.895641
0.897724
0.900004
0.902492
0.905193
0.908108
0.911224
0.914515
0.91793
0.921361
0.924723
0.927479
0.930477
0.882416
0.883125
0.88388
0.884412
0.884926
0.885564
0.886315
0.887143
0.888049
0.88905
0.890161
0.89139
0.892746
0.894239
0.895883
0.89769
0.899675
0.90185
0.90423
0.906827
0.909654
0.912715
0.916013
0.919538
0.923263
0.927138
0.931066
0.934944
0.938352
0.941823
0.885518
0.886325
0.887173
0.887825
0.888471
0.889242
0.89013
0.891101
0.892157
0.893316
0.894592
0.895994
0.897531
0.899216
0.901061
0.903081
0.905288
0.907699
0.910326
0.913183
0.916281
0.919626
0.923218
0.927045
0.931078
0.935262
0.939497
0.943653
0.947371
0.950877
0.88857
0.889454
0.890376
0.891132
0.891896
0.892784
0.893789
0.894883
0.896068
0.897362
0.898778
0.900326
0.902015
0.903859
0.905869
0.908061
0.910448
0.913045
0.915864
0.918919
0.922218
0.925767
0.929561
0.933585
0.937806
0.942156
0.946532
0.950766
0.954527
0.957784
0.891485
0.892426
0.8934
0.894243
0.895106
0.896091
0.897192
0.898386
0.899676
0.901078
0.902605
0.904268
0.906076
0.908042
0.910179
0.9125
0.915019
0.917749
0.920702
0.923889
0.927318
0.93099
0.934896
0.939017
0.94331
0.947701
0.952077
0.956242
0.959914
0.962827
0.894177
0.895154
0.896159
0.897069
0.898012
0.899071
0.900244
0.901512
0.902878
0.904359
0.905967
0.907711
0.909601
0.91165
0.91387
0.916274
0.918874
0.921683
0.92471
0.927965
0.931451
0.935166
0.939097
0.943216
0.947474
0.951785
0.956027
0.959979
0.963385
0.965714
0.896567
0.897559
0.898576
0.899531
0.900529
0.901639
0.902858
0.904171
0.905586
0.907114
0.908767
0.910556
0.912491
0.914581
0.91684
0.919279
0.921909
0.924741
0.927782
0.931038
0.93451
0.93819
0.942059
0.946082
0.950199
0.95431
0.958279
0.96185
0.964758
0.966334
0.898589
0.899578
0.900587
0.901564
0.902594
0.903728
0.904965
0.906296
0.907726
0.909268
0.910933
0.91273
0.914668
0.916758
0.919011
0.921436
0.924044
0.926843
0.929838
0.933031
0.936419
0.939987
0.943712
0.947546
0.951418
0.955212
0.958768
0.961798
0.964059
0.964758
0.900199
0.901167
0.902152
0.903128
0.904163
0.905295
0.906522
0.90784
0.909255
0.910778
0.912418
0.914185
0.916087
0.918134
0.920335
0.922698
0.925233
0.927943
0.930833
0.9339
0.937135
0.940519
0.944018
0.947574
0.951103
0.954471
0.957507
0.959881
0.961417
0.960735
0.90138
0.902309
0.903254
0.904207
0.905221
0.906323
0.907513
0.908789
0.910158
0.911628
0.913209
0.914908
0.916735
0.918696
0.9208
0.923054
0.925465
0.928033
0.930761
0.93364
0.936656
0.939783
0.942979
0.946176
0.949276
0.952124
0.954541
0.956118
0.956848
0.954276
0.90214
0.903016
0.903906
0.904814
0.905782
0.906829
0.907956
0.909161
0.910453
0.911838
0.913325
0.914921
0.916632
0.918467
0.920431
0.92253
0.924767
0.927142
0.929651
0.932283
0.935018
0.937823
0.940644
0.943403
0.945987
0.948214
0.9499
0.950523
0.950398
0.945697
0.902517
0.903327
0.904148
0.904992
0.90589
0.906858
0.907896
0.909004
0.91019
0.911459
0.912819
0.914276
0.915836
0.917505
0.919287
0.921186
0.923202
0.925333
0.927571
0.9299
0.932293
0.934707
0.937081
0.939317
0.941291
0.942789
0.943638
0.943143
0.942061
0.934937
0.902575
0.903305
0.904047
0.904808
0.905616
0.906482
0.907408
0.908394
0.909447
0.910572
0.911775
0.913062
0.914436
0.915902
0.917463
0.91912
0.92087
0.922708
0.924621
0.926587
0.928572
0.930525
0.932372
0.934002
0.935273
0.93593
0.935815
0.934002
0.931775
0.921742
0.902393
0.903034
0.903685
0.904349
0.905049
0.905795
0.90659
0.907433
0.908329
0.909284
0.910301
0.911385
0.912539
0.913766
0.915067
0.916439
0.917879
0.919375
0.92091
0.922456
0.923972
0.925395
0.926639
0.927573
0.928037
0.927725
0.926498
0.923131
0.919532
0.906161
0.902069
0.902616
0.903162
0.903711
0.904285
0.904895
0.905542
0.906224
0.906945
0.907708
0.908516
0.909372
0.910277
0.911232
0.912234
0.91328
0.914363
0.915467
0.916569
0.917636
0.918617
0.919438
0.919997
0.920141
0.919687
0.918265
0.915767
0.910611
0.905438
0.888253
0.901703
0.902151
0.902585
0.903011
0.903454
0.903917
0.904398
0.904899
0.905422
0.905971
0.906546
0.907149
0.907779
0.908433
0.909107
0.909794
0.910482
0.91115
0.911771
0.912302
0.912682
0.912825
0.91261
0.911858
0.910363
0.907679
0.903743
0.89656
0.88963
0.86801
0.901444
0.90174
0.901995
0.902279
0.902596
0.90292
0.903239
0.903557
0.903878
0.904201
0.904527
0.904855
0.905179
0.905494
0.905798
0.906081
0.906325
0.906506
0.906587
0.906518
0.906228
0.905613
0.904535
0.902784
0.900128
0.896029
0.890492
0.881006
0.872197
0.845375
0.901611
0.901657
0.901629
0.901731
0.9019
0.902059
0.902194
0.902325
0.902438
0.902521
0.902601
0.902667
0.902688
0.902656
0.902574
0.902432
0.902207
0.901866
0.901364
0.90064
0.899609
0.89815
0.896103
0.893221
0.889244
0.883532
0.876194
0.863977
0.853269
0.820234
0.901764
0.901344
0.901111
0.901179
0.901285
0.901325
0.901301
0.901231
0.901116
0.900946
0.900705
0.900404
0.900051
0.899626
0.89911
0.898484
0.897723
0.896789
0.895631
0.894177
0.892328
0.889943
0.886838
0.882726
0.877312
0.869819
0.860637
0.845013
0.833052
0.792148
0.762564
0.729212
0.690703
0.648692
0.603636
0.554943
0.502246
0.446452
0.38885
0.330793
0.274329
0.220415
0.171261
0.133613
0.113957
0.112295
0.121191
0.132687
0.140509
0.143642
0.145591
0.148214
0.151232
0.155104
0.160176
0.166394
0.172636
0.179463
0.188341
0.198258
0.812285
0.783349
0.749284
0.712232
0.671734
0.627007
0.577001
0.522396
0.463459
0.401089
0.336997
0.272764
0.211083
0.158724
0.127257
0.11909
0.125411
0.135925
0.142938
0.145826
0.14879
0.152211
0.155332
0.159455
0.165161
0.172157
0.177535
0.181478
0.189222
0.207951
0.825112
0.798784
0.766872
0.731324
0.691954
0.647495
0.597747
0.543612
0.485174
0.423201
0.358814
0.293862
0.231157
0.176465
0.142311
0.132405
0.137406
0.146716
0.152648
0.154626
0.156297
0.158027
0.159681
0.163019
0.168503
0.175141
0.180104
0.184753
0.201144
0.24269
0.845292
0.821632
0.792765
0.760582
0.724112
0.681437
0.632577
0.577895
0.517759
0.453158
0.385863
0.318208
0.253112
0.196502
0.159772
0.147431
0.15098
0.15991
0.166822
0.170876
0.174746
0.179122
0.184396
0.191127
0.199215
0.207206
0.214423
0.226201
0.248635
0.271813
0.856716
0.836343
0.8106
0.781552
0.748234
0.708674
0.662249
0.609087
0.549459
0.484105
0.414794
0.344244
0.276034
0.216428
0.176336
0.161112
0.163259
0.172265
0.180583
0.186938
0.193383
0.20083
0.209502
0.219285
0.22959
0.239134
0.248843
0.258636
0.267413
0.256046
0.866408
0.848556
0.825496
0.798983
0.767993
0.73072
0.68625
0.634486
0.575572
0.510045
0.439474
0.366713
0.295889
0.233596
0.190684
0.173234
0.174548
0.184114
0.194005
0.202475
0.21124
0.221273
0.23255
0.244474
0.256152
0.266383
0.27517
0.279123
0.275079
0.249706
0.87357
0.857995
0.837575
0.813689
0.785208
0.750335
0.707955
0.65767
0.599437
0.533688
0.461919
0.387106
0.313818
0.249053
0.203732
0.184453
0.185196
0.195516
0.206943
0.217341
0.228263
0.240652
0.254203
0.267849
0.280368
0.290045
0.29601
0.293571
0.28425
0.251848
0.879121
0.865565
0.84751
0.826026
0.799953
0.767509
0.727426
0.678979
0.62182
0.556185
0.48346
0.406718
0.330942
0.263643
0.215977
0.194987
0.195303
0.206557
0.219578
0.231881
0.244923
0.259532
0.275045
0.289879
0.302486
0.310799
0.313927
0.306131
0.293189
0.255439
0.883428
0.871631
0.855684
0.836387
0.812556
0.78242
0.744605
0.69813
0.642332
0.577174
0.503846
0.425423
0.347245
0.277397
0.227445
0.204884
0.204964
0.217379
0.232076
0.24625
0.261316
0.27793
0.294987
0.310422
0.322713
0.330132
0.33272
0.32054
0.299151
0.249305
0.886821
0.876555
0.862467
0.845148
0.823405
0.795468
0.75986
0.715382
0.661079
0.59662
0.522955
0.443089
0.36265
0.290311
0.238189
0.214293
0.2143
0.228068
0.244473
0.260447
0.277408
0.295774
0.313943
0.329706
0.341854
0.348721
0.347325
0.331653
0.298672
0.234147
0.889523
0.880585
0.868137
0.852597
0.83278
0.806933
0.773484
0.731027
0.678327
0.614741
0.540947
0.459833
0.377257
0.302485
0.248288
0.223178
0.223397
0.238643
0.25675
0.274443
0.293173
0.313065
0.332172
0.348467
0.360412
0.365543
0.357521
0.332877
0.285079
0.215384
0.891704
0.883915
0.872909
0.858964
0.840911
0.817029
0.785667
0.745235
0.694228
0.631677
0.557949
0.475763
0.391158
0.313991
0.257787
0.231601
0.232273
0.2491
0.26889
0.288218
0.308602
0.33002
0.350482
0.367062
0.377611
0.377637
0.361614
0.322416
0.261181
0.196826
0.893485
0.886695
0.876952
0.864436
0.847989
0.825943
0.79658
0.758148
0.70889
0.647507
0.574021
0.49093
0.404396
0.324865
0.266712
0.239591
0.240927
0.25944
0.280881
0.30177
0.32372
0.346772
0.368711
0.383835
0.390943
0.383537
0.354934
0.300695
0.233033
0.182443
0.894956
0.88904
0.880415
0.869164
0.854176
0.833837
0.806379
0.769905
0.722427
0.662317
0.589225
0.505379
0.41701
0.335141
0.27509
0.247174
0.249377
0.26967
0.292714
0.315117
0.338611
0.362708
0.383894
0.398152
0.398906
0.380978
0.338797
0.274655
0.212802
0.184151
0.896182
0.891032
0.883396
0.873278
0.859609
0.840849
0.815198
0.780631
0.734946
0.676192
0.603626
0.519162
0.429044
0.344855
0.282949
0.254373
0.257639
0.279793
0.304386
0.328264
0.353298
0.377174
0.397844
0.408367
0.400255
0.371082
0.317391
0.253091
0.212457
0.214515
0.897209
0.892735
0.885977
0.876878
0.864409
0.847102
0.823151
0.790432
0.746539
0.689208
0.617287
0.532329
0.44054
0.354041
0.290315
0.26121
0.26573
0.289813
0.315903
0.341163
0.367354
0.391064
0.410431
0.412938
0.395716
0.355766
0.295685
0.242059
0.228005
0.25943
0.898074
0.8942
0.888224
0.880031
0.868667
0.852697
0.830343
0.799402
0.757288
0.701431
0.630259
0.544923
0.451535
0.36273
0.297208
0.267703
0.273668
0.299738
0.327272
0.353838
0.379866
0.404855
0.41837
0.412322
0.386748
0.337749
0.278961
0.243148
0.251989
0.29279
0.8988
0.895461
0.890189
0.882824
0.872455
0.857718
0.836863
0.807627
0.767269
0.712924
0.642591
0.556983
0.462062
0.370945
0.303648
0.273874
0.281467
0.309574
0.338505
0.366442
0.39194
0.415738
0.42165
0.40811
0.374169
0.320239
0.270117
0.25395
0.275463
0.308909
0.899411
0.896549
0.89191
0.885297
0.875838
0.862236
0.842786
0.815182
0.776548
0.723743
0.654328
0.568545
0.472151
0.378711
0.309651
0.279737
0.289137
0.319331
0.349599
0.378457
0.403757
0.422867
0.42106
0.401051
0.359602
0.305848
0.268791
0.268534
0.293186
0.317173
0.899924
0.897487
0.893419
0.887493
0.878871
0.866318
0.848179
0.822131
0.785186
0.733938
0.665512
0.579645
0.48183
0.386049
0.315234
0.28531
0.29669
0.329007
0.360443
0.388373
0.413999
0.426348
0.417956
0.391574
0.344997
0.295911
0.273207
0.282602
0.304778
0.320795
0.900352
0.898297
0.894744
0.889443
0.881598
0.870019
0.853103
0.828536
0.793238
0.743558
0.676182
0.590312
0.491127
0.392976
0.32041
0.290605
0.304142
0.338583
0.370666
0.397677
0.421464
0.42671
0.413094
0.380498
0.331592
0.291143
0.280745
0.294271
0.312504
0.321815
0.900704
0.898992
0.895905
0.891176
0.884041
0.873382
0.85761
0.834449
0.800754
0.752644
0.686373
0.600578
0.500067
0.399512
0.325196
0.295633
0.311511
0.348057
0.379688
0.407006
0.425648
0.425066
0.406686
0.368785
0.320619
0.29056
0.289158
0.303319
0.317538
0.321547
0.900984
0.899583
0.896921
0.892719
0.886246
0.87644
0.861741
0.839917
0.807777
0.761236
0.696116
0.610467
0.50867
0.405669
0.329601
0.300408
0.318811
0.357373
0.388143
0.414293
0.427129
0.42227
0.398908
0.35711
0.313036
0.292734
0.296717
0.309973
0.320354
0.32067
0.901204
0.900082
0.897807
0.894089
0.888234
0.87922
0.865535
0.84498
0.814347
0.769371
0.705448
0.620014
0.516969
0.41147
0.333658
0.304959
0.326044
0.366137
0.396313
0.41921
0.427021
0.4185
0.390151
0.34625
0.308294
0.296341
0.302898
0.314414
0.321228
0.319458
0.90137
0.9005
0.898576
0.895305
0.890022
0.881751
0.869027
0.849678
0.820496
0.777065
0.71437
0.629214
0.524954
0.416931
0.337289
0.309252
0.333191
0.37361
0.403617
0.421948
0.426104
0.413641
0.380954
0.336834
0.305848
0.30029
0.307798
0.317146
0.321138
0.317998
0.901486
0.900841
0.89924
0.896387
0.89163
0.884047
0.87224
0.85405
0.826297
0.784416
0.722985
0.638164
0.532716
0.422156
0.340814
0.313325
0.340185
0.380621
0.408929
0.423297
0.42464
0.40786
0.371923
0.329271
0.305032
0.304047
0.311677
0.318825
0.320713
0.316353
0.901551
0.901105
0.899802
0.897342
0.893104
0.886129
0.875164
0.858023
0.831607
0.791247
0.731113
0.646682
0.540072
0.426923
0.34321
0.316894
0.346829
0.387187
0.411879
0.424056
0.422668
0.401633
0.363423
0.323556
0.305133
0.307251
0.314675
0.319939
0.320057
0.314462
0.901586
0.901295
0.900258
0.898147
0.894404
0.888176
0.878074
0.862052
0.83696
0.798086
0.739282
0.655349
0.547746
0.432394
0.346767
0.320879
0.352604
0.392041
0.413598
0.424414
0.420125
0.39546
0.355294
0.318913
0.305999
0.309952
0.316982
0.320586
0.319024
0.31228
0.901637
0.901441
0.900643
0.898782
0.895318
0.889484
0.879968
0.86484
0.840972
0.803402
0.745646
0.661821
0.552815
0.434546
0.347082
0.322935
0.35718
0.395579
0.415173
0.424982
0.417954
0.38902
0.347168
0.314202
0.305663
0.312245
0.318676
0.320655
0.317457
0.30991
0.901715
0.901592
0.901096
0.899723
0.896888
0.891875
0.88342
0.869666
0.84751
0.811988
0.756417
0.67389
0.563958
0.442637
0.351786
0.326351
0.360914
0.398428
0.416709
0.425029
0.413625
0.379579
0.340193
0.312773
0.308206
0.31503
0.319808
0.319492
0.314633
0.307709
0.572059
0.553596
0.533509
0.512526
0.488594
0.465588
0.454414
0.474527
0.516558
0.555987
0.581257
0.59764
0.609305
0.619176
0.627515
0.634801
0.641681
0.648532
0.655407
0.662352
0.669781
0.677304
0.685461
0.693665
0.702562
0.711532
0.721595
0.73137
0.74415
0.750665
0.54342
0.525327
0.509355
0.499162
0.485866
0.467472
0.45707
0.469306
0.504794
0.542737
0.572573
0.590943
0.603848
0.614642
0.623111
0.630047
0.636433
0.642721
0.649156
0.655793
0.662814
0.670155
0.677943
0.686065
0.694627
0.70332
0.712611
0.72131
0.731472
0.739034
0.506815
0.492428
0.482157
0.479928
0.479883
0.47476
0.470037
0.477626
0.501225
0.533095
0.5629
0.584777
0.599406
0.609871
0.618318
0.625168
0.63117
0.636848
0.64249
0.648406
0.654753
0.661619
0.668964
0.6768
0.68511
0.693746
0.702867
0.712081
0.722149
0.732475
0.469805
0.461469
0.456356
0.459076
0.469795
0.479989
0.488056
0.497337
0.512784
0.536545
0.561741
0.583638
0.599569
0.610404
0.617639
0.623055
0.628167
0.633227
0.638208
0.643267
0.648824
0.655044
0.661894
0.669423
0.677649
0.686448
0.695813
0.705621
0.715898
0.726409
0.436472
0.433952
0.431857
0.43769
0.454158
0.477004
0.498741
0.516688
0.53366
0.549922
0.568805
0.586601
0.601155
0.611598
0.619022
0.624233
0.627644
0.630536
0.633939
0.638071
0.642693
0.64815
0.654128
0.660902
0.668614
0.677091
0.686233
0.695976
0.706196
0.716651
0.410913
0.410497
0.409131
0.417064
0.436501
0.464974
0.496741
0.526563
0.549662
0.567369
0.580747
0.594099
0.605208
0.614029
0.620465
0.625157
0.628586
0.630729
0.631649
0.6328
0.63571
0.63991
0.644649
0.650446
0.657411
0.665139
0.673711
0.683176
0.693421
0.704169
0.395399
0.39543
0.392883
0.401158
0.420419
0.450781
0.487246
0.522115
0.551341
0.574215
0.590217
0.600925
0.609848
0.616949
0.622394
0.625965
0.628154
0.629795
0.631056
0.63168
0.632061
0.63252
0.634387
0.638732
0.644761
0.65141
0.659271
0.668158
0.67811
0.68894
0.391387
0.392948
0.388247
0.393968
0.409825
0.437291
0.473875
0.51074
0.541996
0.566719
0.585878
0.600634
0.611145
0.617665
0.62222
0.625398
0.627393
0.628134
0.627485
0.626644
0.626431
0.626354
0.627334
0.62915
0.630873
0.635096
0.642014
0.649865
0.659096
0.66924
0.397848
0.403876
0.396496
0.396895
0.407203
0.428594
0.460714
0.495474
0.526397
0.551664
0.571594
0.587165
0.59956
0.60975
0.616801
0.621226
0.623602
0.624378
0.62369
0.622039
0.619877
0.61733
0.615832
0.616091
0.617078
0.619729
0.623651
0.628424
0.635495
0.64391
0.407146
0.41959
0.413458
0.409493
0.412923
0.426356
0.45106
0.4802
0.507752
0.531367
0.55087
0.566783
0.579786
0.59054
0.599518
0.606519
0.611513
0.614543
0.615636
0.614904
0.612693
0.609459
0.606003
0.603003
0.600754
0.600313
0.601863
0.605364
0.61079
0.618085
0.411397
0.430593
0.430376
0.426128
0.423943
0.429575
0.445699
0.467099
0.489179
0.509473
0.52723
0.542423
0.555293
0.566159
0.575259
0.582774
0.588782
0.593288
0.59622
0.597528
0.597227
0.595432
0.592461
0.58878
0.584935
0.581788
0.579919
0.579896
0.581731
0.586798
0.408665
0.432151
0.438705
0.438072
0.434254
0.434427
0.442443
0.456169
0.472259
0.488358
0.503347
0.516779
0.528531
0.538656
0.547263
0.554426
0.560156
0.564463
0.567392
0.56894
0.569157
0.568135
0.56605
0.563139
0.55969
0.556128
0.552955
0.550787
0.549943
0.55154
0.399127
0.423913
0.435746
0.440626
0.438339
0.436185
0.439021
0.446902
0.457417
0.469109
0.480757
0.491625
0.501348
0.5098
0.516964
0.52284
0.527397
0.530587
0.532363
0.532713
0.531686
0.529435
0.526156
0.52212
0.517644
0.513102
0.508906
0.505499
0.503162
0.502372
0.380893
0.406111
0.423184
0.432674
0.433554
0.432069
0.432572
0.436749
0.443376
0.451424
0.459823
0.467818
0.474974
0.481082
0.486053
0.489818
0.492288
0.493358
0.492933
0.490947
0.487395
0.482358
0.476033
0.468749
0.460952
0.4531
0.445613
0.438955
0.433623
0.430181
0.349859
0.37915
0.400423
0.414237
0.41867
0.419991
0.420978
0.423984
0.428697
0.434367
0.440184
0.445553
0.450108
0.453651
0.456079
0.457285
0.457122
0.455421
0.452018
0.446775
0.439619
0.430575
0.419811
0.407631
0.394463
0.380905
0.367683
0.355514
0.344791
0.336199
0.303812
0.340461
0.36477
0.383455
0.392954
0.398588
0.402609
0.407117
0.411974
0.416821
0.421168
0.424663
0.427087
0.428329
0.428332
0.426993
0.424124
0.419494
0.41286
0.404002
0.392761
0.379082
0.363075
0.345074
0.325457
0.304812
0.283973
0.263829
0.245378
0.229312
0.239783
0.28615
0.313632
0.337134
0.353199
0.365662
0.375582
0.384301
0.39173
0.397682
0.402079
0.404885
0.406086
0.405722
0.403848
0.400416
0.395236
0.388033
0.378488
0.366303
0.351226
0.333121
0.311977
0.288061
0.261855
0.233955
0.205245
0.176709
0.149742
0.124741
0.155353
0.211675
0.240935
0.269728
0.294321
0.317346
0.33721
0.353647
0.366611
0.376066
0.382428
0.38609
0.387327
0.386394
0.383518
0.378786
0.372049
0.363027
0.35136
0.336685
0.318675
0.297086
0.271812
0.242838
0.210921
0.176794
0.141094
0.104984
0.0702577
0.0368149
0.0521435
0.115759
0.14278
0.175917
0.210717
0.24903
0.284227
0.313127
0.335502
0.35142
0.362083
0.368462
0.371264
0.371018
0.368205
0.363151
0.3558
0.345937
0.333208
0.317236
0.297672
0.274169
0.246588
0.215022
0.179624
0.141034
0.100274
0.0584692
0.0169963
-0.023557
-0.0597499
0.00380141
0.0217641
0.0546418
0.0988133
0.156806
0.214058
0.261238
0.297763
0.32375
0.341439
0.352615
0.358632
0.360439
0.358819
0.354362
0.347318
0.337565
0.324814
0.30874
0.289026
0.265327
0.237396
0.205338
0.169154
0.129335
0.0868885
0.0426645
-0.00209297