/*--------------------------------*- C++ -*----------------------------------*\
  =========                 |
  \\      /  F ield         | OpenFOAM: The Open Source CFD Toolbox
   \\    /   O peration     | Website:  https://openfoam.org
    \\  /    A nd           | Version:  11
     \\/     M anipulation  |
\*---------------------------------------------------------------------------*/
FoamFile
{
    format      ascii;
    class       volVectorField;
    location    "6.3";
    object      U;
}
// * * * * * * * * * * * * * * * * * * * * * * * * * * * * * * * * * * * * * //

dimensions      [0 1 -1 0 0 0 0];

internalField   nonuniform List<vector> 
12600
(
(0.412286 6.15048e-05 0)
(0.412185 0.000119686 0)
(0.412004 0.00013527 0)
(0.411782 0.000140003 0)
(0.411558 0.000143672 0)
(0.411342 0.000145978 0)
(0.41113 0.000145784 0)
(0.410924 0.000142632 0)
(0.410729 0.000135585 0)
(0.410554 0.000124798 0)
(0.410408 0.000111214 0)
(0.410302 9.47424e-05 0)
(0.410247 7.7671e-05 0)
(0.410256 5.04912e-05 0)
(0.410345 1.04142e-05 0)
(0.410534 -4.68474e-05 0)
(0.410844 -0.00010217 0)
(0.411295 -0.000164651 0)
(0.411915 -0.000237745 0)
(0.412726 -0.000312133 0)
(0.413753 -0.000391097 0)
(0.415043 -0.000491952 0)
(0.416658 -0.000623064 0)
(0.41866 -0.000785339 0)
(0.421116 -0.000980011 0)
(0.424103 -0.00120617 0)
(0.427712 -0.00147625 0)
(0.43201 -0.00174383 0)
(0.437148 -0.00220841 0)
(0.443663 -0.00199053 0)
(0.412482 7.87595e-05 0)
(0.412573 0.000171757 0)
(0.412696 0.000166046 0)
(0.412774 0.000164948 0)
(0.412836 0.000167852 0)
(0.412903 0.00016658 0)
(0.412972 0.000160774 0)
(0.413046 0.000150738 0)
(0.413125 0.000135219 0)
(0.413217 0.000110329 0)
(0.413328 7.37492e-05 0)
(0.413465 2.47884e-05 0)
(0.413639 -3.90263e-05 0)
(0.413861 -0.000117567 0)
(0.414144 -0.00021025 0)
(0.414498 -0.000318675 0)
(0.414937 -0.000449952 0)
(0.415491 -0.000610256 0)
(0.416148 -0.000804548 0)
(0.416982 -0.00104111 0)
(0.418115 -0.00132652 0)
(0.419512 -0.00166228 0)
(0.421197 -0.00205263 0)
(0.423219 -0.00250849 0)
(0.425635 -0.00304382 0)
(0.428512 -0.00366818 0)
(0.431941 -0.0044003 0)
(0.43599 -0.00519012 0)
(0.44084 -0.00628117 0)
(0.44619 -0.00651744 0)
(0.412472 2.75242e-05 0)
(0.412521 5.32858e-05 0)
(0.412598 5.43604e-05 0)
(0.412674 5.58242e-05 0)
(0.412744 6.06857e-05 0)
(0.41281 6.18496e-05 0)
(0.412877 5.7026e-05 0)
(0.412945 4.66827e-05 0)
(0.413017 2.50677e-05 0)
(0.413097 -1.02751e-05 0)
(0.413193 -6.16484e-05 0)
(0.413313 -0.000130313 0)
(0.413469 -0.000218496 0)
(0.413674 -0.00033015 0)
(0.413943 -0.000470471 0)
(0.414292 -0.000644553 0)
(0.414741 -0.000855781 0)
(0.415314 -0.00110552 0)
(0.416036 -0.00140679 0)
(0.416924 -0.00178914 0)
(0.417994 -0.0022575 0)
(0.419285 -0.00279586 0)
(0.420851 -0.00341065 0)
(0.42275 -0.00412721 0)
(0.425038 -0.00497175 0)
(0.427791 -0.00596311 0)
(0.431078 -0.00712835 0)
(0.435045 -0.00842746 0)
(0.439645 -0.0100932 0)
(0.445535 -0.0109951 0)
(0.412468 3.77061e-06 0)
(0.412504 1.88275e-05 0)
(0.412566 2.72867e-05 0)
(0.412635 3.21173e-05 0)
(0.412699 4.16654e-05 0)
(0.412761 4.54811e-05 0)
(0.412823 3.99216e-05 0)
(0.412886 2.70539e-05 0)
(0.412953 3.95802e-06 0)
(0.413027 -3.73395e-05 0)
(0.413116 -0.000101491 0)
(0.413227 -0.000192664 0)
(0.413373 -0.000315147 0)
(0.413566 -0.000473206 0)
(0.413819 -0.00067093 0)
(0.414149 -0.000912875 0)
(0.414572 -0.00120519 0)
(0.415109 -0.00155633 0)
(0.41578 -0.00197909 0)
(0.416609 -0.00248907 0)
(0.417616 -0.00309471 0)
(0.418831 -0.00380387 0)
(0.420302 -0.00463667 0)
(0.422085 -0.00562054 0)
(0.424237 -0.00678451 0)
(0.42684 -0.00815435 0)
(0.429959 -0.00976991 0)
(0.433768 -0.011596 0)
(0.43819 -0.0138804 0)
(0.444055 -0.0155402 0)
(0.412466 -1.12611e-05 0)
(0.412493 -1.71995e-05 0)
(0.412543 -1.83316e-05 0)
(0.412602 -1.83966e-05 0)
(0.41266 -1.65524e-05 0)
(0.412717 -1.52135e-05 0)
(0.412774 -1.95039e-05 0)
(0.412832 -3.45459e-05 0)
(0.412893 -6.56195e-05 0)
(0.412961 -0.000118347 0)
(0.413044 -0.000197575 0)
(0.413147 -0.000309624 0)
(0.413282 -0.000460125 0)
(0.41346 -0.000654624 0)
(0.413693 -0.000899101 0)
(0.413995 -0.00120029 0)
(0.414382 -0.00156596 0)
(0.414872 -0.00200534 0)
(0.415483 -0.0025308 0)
(0.416237 -0.00315867 0)
(0.417154 -0.00390518 0)
(0.418265 -0.00478653 0)
(0.419612 -0.00582571 0)
(0.421245 -0.00705459 0)
(0.423221 -0.00851164 0)
(0.425622 -0.0102351 0)
(0.428513 -0.0122775 0)
(0.432091 -0.014625 0)
(0.436249 -0.0175171 0)
(0.441981 -0.0200139 0)
(0.412465 -2.28633e-05 0)
(0.412487 -4.62192e-05 0)
(0.412528 -5.5302e-05 0)
(0.412579 -5.72939e-05 0)
(0.412632 -5.44201e-05 0)
(0.412684 -5.11472e-05 0)
(0.412736 -5.47601e-05 0)
(0.412789 -7.0288e-05 0)
(0.412845 -0.000102711 0)
(0.412907 -0.000160058 0)
(0.41298 -0.000249937 0)
(0.413072 -0.000379884 0)
(0.413192 -0.000556475 0)
(0.41335 -0.0007861 0)
(0.413558 -0.00107542 0)
(0.413827 -0.00143169 0)
(0.414172 -0.0018635 0)
(0.414607 -0.00238153 0)
(0.415148 -0.00299957 0)
(0.415814 -0.00373493 0)
(0.416625 -0.00460714 0)
(0.417609 -0.005639 0)
(0.4188 -0.00686094 0)
(0.420245 -0.00831275 0)
(0.421998 -0.0100426 0)
(0.42414 -0.0121019 0)
(0.426735 -0.0145577 0)
(0.429998 -0.0174242 0)
(0.433797 -0.0209316 0)
(0.439286 -0.024304 0)
(0.412464 -3.24647e-05 0)
(0.412483 -6.99932e-05 0)
(0.412518 -8.68395e-05 0)
(0.412562 -9.20078e-05 0)
(0.412609 -9.07983e-05 0)
(0.412655 -8.88383e-05 0)
(0.4127 -9.31952e-05 0)
(0.412747 -0.000110383 0)
(0.412796 -0.000147139 0)
(0.412851 -0.000211944 0)
(0.412914 -0.00031371 0)
(0.412994 -0.000460744 0)
(0.413098 -0.000660639 0)
(0.413235 -0.000920759 0)
(0.413414 -0.00124858 0)
(0.413645 -0.00165223 0)
(0.413941 -0.00214125 0)
(0.414313 -0.00272735 0)
(0.414775 -0.0034253 0)
(0.415341 -0.00425377 0)
(0.416029 -0.0052356 0)
(0.416863 -0.00639908 0)
(0.417871 -0.00778093 0)
(0.419094 -0.00942824 0)
(0.420581 -0.0113994 0)
(0.422409 -0.0137607 0)
(0.424636 -0.0165972 0)
(0.427495 -0.019957 0)
(0.430827 -0.0240627 0)
(0.435936 -0.028341 0)
(0.412464 -4.06701e-05 0)
(0.412479 -9.01962e-05 0)
(0.412509 -0.000114197 0)
(0.412547 -0.000122866 0)
(0.412588 -0.000122897 0)
(0.412628 -0.000120918 0)
(0.412668 -0.000125453 0)
(0.412709 -0.000143593 0)
(0.412752 -0.00018213 0)
(0.412798 -0.000250804 0)
(0.412851 -0.000360461 0)
(0.412917 -0.000520611 0)
(0.413003 -0.000739506 0)
(0.413116 -0.00102496 0)
(0.413263 -0.00138488 0)
(0.413454 -0.00182788 0)
(0.413696 -0.00236398 0)
(0.413999 -0.00300554 0)
(0.414373 -0.00376821 0)
(0.41483 -0.004672 0)
(0.415382 -0.00574235 0)
(0.416047 -0.0070118 0)
(0.416848 -0.00852278 0)
(0.417818 -0.0103301 0)
(0.418995 -0.0125029 0)
(0.420453 -0.0151237 0)
(0.42224 -0.0182974 0)
(0.424594 -0.0221118 0)
(0.427339 -0.0267867 0)
(0.431891 -0.0319885 0)
(0.412463 -4.75664e-05 0)
(0.412476 -0.000107402 0)
(0.412502 -0.000137702 0)
(0.412535 -0.000149527 0)
(0.412569 -0.000150493 0)
(0.412604 -0.000148435 0)
(0.412638 -0.000153261 0)
(0.412672 -0.000172189 0)
(0.412708 -0.000212198 0)
(0.412745 -0.00028432 0)
(0.412787 -0.000400869 0)
(0.412839 -0.000572131 0)
(0.412906 -0.000806681 0)
(0.412994 -0.00111262 0)
(0.413108 -0.00149817 0)
(0.413255 -0.00197222 0)
(0.41344 -0.00254506 0)
(0.41367 -0.00322936 0)
(0.413951 -0.00404127 0)
(0.41429 -0.00500172 0)
(0.414695 -0.00613796 0)
(0.415177 -0.0074857 0)
(0.415751 -0.00909205 0)
(0.41644 -0.0110186 0)
(0.417272 -0.0133449 0)
(0.418307 -0.0161695 0)
(0.419582 -0.0196183 0)
(0.421328 -0.0238237 0)
(0.423353 -0.0290069 0)
(0.427129 -0.0351128 0)
(0.412463 -5.33819e-05 0)
(0.412474 -0.000122164 0)
(0.412496 -0.000157597 0)
(0.412523 -0.000172119 0)
(0.412552 -0.000173948 0)
(0.412581 -0.000171666 0)
(0.412609 -0.00017659 0)
(0.412637 -0.000195889 0)
(0.412666 -0.000236391 0)
(0.412694 -0.000310225 0)
(0.412725 -0.000431108 0)
(0.412763 -0.000610019 0)
(0.412811 -0.000855709 0)
(0.412873 -0.00117633 0)
(0.412953 -0.00158016 0)
(0.413054 -0.00207604 0)
(0.41318 -0.00267416 0)
(0.413335 -0.00338708 0)
(0.413519 -0.00423092 0)
(0.413736 -0.00522685 0)
(0.413987 -0.00640304 0)
(0.414277 -0.00779708 0)
(0.414609 -0.00945943 0)
(0.414996 -0.0114571 0)
(0.415451 -0.0138786 0)
(0.416018 -0.0168374 0)
(0.416715 -0.0204802 0)
(0.417749 -0.0249853 0)
(0.418917 -0.0305802 0)
(0.421665 -0.0375152 0)
(0.412462 -5.82262e-05 0)
(0.412471 -0.000134428 0)
(0.412489 -0.000174176 0)
(0.412512 -0.000190918 0)
(0.412535 -0.000193444 0)
(0.412559 -0.000190787 0)
(0.412582 -0.000195376 0)
(0.412604 -0.000214556 0)
(0.412625 -0.000254636 0)
(0.412645 -0.000328769 0)
(0.412665 -0.000451985 0)
(0.412689 -0.000635629 0)
(0.412718 -0.000888341 0)
(0.412754 -0.00121813 0)
(0.4128 -0.00163309 0)
(0.412856 -0.00214173 0)
(0.412923 -0.00275379 0)
(0.413002 -0.00348123 0)
(0.413089 -0.00433954 0)
(0.413182 -0.00534937 0)
(0.413277 -0.00653867 0)
(0.413369 -0.00794548 0)
(0.413452 -0.00962174 0)
(0.413524 -0.0116377 0)
(0.413583 -0.0140882 0)
(0.413647 -0.0170984 0)
(0.41371 -0.0208335 0)
(0.413939 -0.0255148 0)
(0.41412 -0.0313787 0)
(0.415564 -0.0389896 0)
(0.412462 -6.2147e-05 0)
(0.412469 -0.000144506 0)
(0.412484 -0.000187721 0)
(0.412501 -0.000205931 0)
(0.41252 -0.000209093 0)
(0.412538 -0.00020592 0)
(0.412556 -0.000209833 0)
(0.412572 -0.000228476 0)
(0.412587 -0.000267269 0)
(0.412599 -0.000340334 0)
(0.412609 -0.000463797 0)
(0.412619 -0.000649065 0)
(0.412629 -0.000904496 0)
(0.412641 -0.00123778 0)
(0.412653 -0.00165658 0)
(0.412666 -0.00216879 0)
(0.412676 -0.00278328 0)
(0.41268 -0.00351091 0)
(0.412672 -0.00436588 0)
(0.412643 -0.0053674 0)
(0.412584 -0.00654196 0)
(0.41248 -0.00792634 0)
(0.412315 -0.00957167 0)
(0.41207 -0.0115486 0)
(0.411723 -0.0139543 0)
(0.411266 -0.016921 0)
(0.410662 -0.0206265 0)
(0.41001 -0.0253274 0)
(0.409097 -0.0312676 0)
(0.408967 -0.0393053 0)
(0.412461 -6.51428e-05 0)
(0.412467 -0.000152345 0)
(0.412478 -0.000198292 0)
(0.412491 -0.000217606 0)
(0.412505 -0.000221269 0)
(0.412519 -0.000217449 0)
(0.412531 -0.000220297 0)
(0.412542 -0.000237853 0)
(0.412551 -0.000274562 0)
(0.412556 -0.000345331 0)
(0.412556 -0.000467061 0)
(0.412554 -0.000650999 0)
(0.412547 -0.000905062 0)
(0.412535 -0.00123644 0)
(0.412517 -0.0016521 0)
(0.412488 -0.00215906 0)
(0.412443 -0.00276492 0)
(0.412377 -0.00347894 0)
(0.412279 -0.00431335 0)
(0.412135 -0.00528496 0)
(0.411929 -0.00641747 0)
(0.411638 -0.00774451 0)
(0.411233 -0.00931385 0)
(0.410681 -0.0111928 0)
(0.409937 -0.0134762 0)
(0.40896 -0.0162964 0)
(0.40768 -0.0198346 0)
(0.406109 -0.0243687 0)
(0.404036 -0.0301437 0)
(0.402107 -0.0382541 0)
(0.412461 -6.72905e-05 0)
(0.412465 -0.000158093 0)
(0.412472 -0.000206434 0)
(0.412482 -0.000225815 0)
(0.412492 -0.000230226 0)
(0.412501 -0.000225157 0)
(0.412509 -0.000226998 0)
(0.412515 -0.000243244 0)
(0.412518 -0.000277191 0)
(0.412516 -0.000344562 0)
(0.412509 -0.000462717 0)
(0.412495 -0.000642532 0)
(0.412473 -0.000891352 0)
(0.412441 -0.0012157 0)
(0.412394 -0.00162168 0)
(0.412327 -0.00211509 0)
(0.412233 -0.00270194 0)
(0.412102 -0.00338943 0)
(0.411921 -0.00418711 0)
(0.411672 -0.00510847 0)
(0.411331 -0.00617308 0)
(0.410868 -0.00740945 0)
(0.410243 -0.0088592 0)
(0.409405 -0.0105824 0)
(0.40829 -0.0126656 0)
(0.406821 -0.0152327 0)
(0.404891 -0.018457 0)
(0.402411 -0.0226168 0)
(0.399174 -0.0279466 0)
(0.395319 -0.0356784 0)
(0.41246 -6.86319e-05 0)
(0.412463 -0.000161906 0)
(0.412467 -0.000211729 0)
(0.412473 -0.000231166 0)
(0.412479 -0.000236055 0)
(0.412484 -0.000229866 0)
(0.412489 -0.000230732 0)
(0.41249 -0.000245058 0)
(0.412488 -0.000275559 0)
(0.412481 -0.000338727 0)
(0.412467 -0.000451775 0)
(0.412444 -0.000624966 0)
(0.412409 -0.00086503 0)
(0.412358 -0.00117772 0)
(0.412287 -0.00156807 0)
(0.412187 -0.00204045 0)
(0.412049 -0.00259897 0)
(0.411862 -0.00324832 0)
(0.411608 -0.00399483 0)
(0.411267 -0.00484779 0)
(0.410808 -0.00582135 0)
(0.410195 -0.00693708 0)
(0.409377 -0.00822768 0)
(0.408291 -0.00974186 0)
(0.40685 -0.0115518 0)
(0.404943 -0.0137635 0)
(0.402428 -0.0165285 0)
(0.399111 -0.0201013 0)
(0.394786 -0.0246875 0)
(0.389027 -0.0315225 0)
(0.41246 -6.91785e-05 0)
(0.412461 -0.000163818 0)
(0.412462 -0.000214746 0)
(0.412465 -0.00023416 0)
(0.412467 -0.00023849 0)
(0.412469 -0.000233147 0)
(0.412471 -0.000231322 0)
(0.412469 -0.000243205 0)
(0.412463 -0.00027051 0)
(0.412451 -0.000328931 0)
(0.412432 -0.000435501 0)
(0.412402 -0.000599876 0)
(0.412356 -0.0008281 0)
(0.41229 -0.00112507 0)
(0.412198 -0.00149462 0)
(0.41207 -0.0019395 0)
(0.411897 -0.00246169 0)
(0.411662 -0.00306306 0)
(0.411348 -0.00374623 0)
(0.41093 -0.00451559 0)
(0.410375 -0.00537882 0)
(0.40964 -0.00634893 0)
(0.408667 -0.00744722 0)
(0.407379 -0.00870725 0)
(0.405675 -0.010181 0)
(0.403413 -0.0119474 0)
(0.400421 -0.0141221 0)
(0.396404 -0.0169092 0)
(0.391159 -0.0204647 0)
(0.383713 -0.0258734 0)
(0.41246 -6.90003e-05 0)
(0.412459 -0.000163841 0)
(0.412458 -0.000215563 0)
(0.412457 -0.00023469 0)
(0.412457 -0.000238848 0)
(0.412456 -0.000234253 0)
(0.412455 -0.000229738 0)
(0.412451 -0.000238918 0)
(0.412441 -0.000262699 0)
(0.412427 -0.000316085 0)
(0.412404 -0.000415221 0)
(0.412368 -0.000568992 0)
(0.412315 -0.000782798 0)
(0.412238 -0.00106067 0)
(0.412129 -0.00140515 0)
(0.41198 -0.00181726 0)
(0.411778 -0.00229669 0)
(0.411507 -0.00284231 0)
(0.411147 -0.00345272 0)
(0.410671 -0.00412696 0)
(0.410044 -0.00486546 0)
(0.409219 -0.00567145 0)
(0.408134 -0.00655294 0)
(0.406704 -0.00752533 0)
(0.404816 -0.00861542 0)
(0.402307 -0.00986745 0)
(0.398981 -0.0113489 0)
(0.394468 -0.013189 0)
(0.388563 -0.0154743 0)
(0.379849 -0.0189877 0)
(0.412459 -6.81631e-05 0)
(0.412457 -0.000162248 0)
(0.412454 -0.000214375 0)
(0.412451 -0.000233216 0)
(0.412448 -0.000237402 0)
(0.412445 -0.000233146 0)
(0.412442 -0.000226171 0)
(0.412435 -0.000233181 0)
(0.412425 -0.000253349 0)
(0.412408 -0.000301452 0)
(0.412383 -0.000392312 0)
(0.412344 -0.000534033 0)
(0.412286 -0.00073143 0)
(0.412201 -0.000987597 0)
(0.412081 -0.00130375 0)
(0.411917 -0.00167913 0)
(0.411695 -0.00211112 0)
(0.411398 -0.00259556 0)
(0.411007 -0.00312694 0)
(0.410493 -0.00369871 0)
(0.409821 -0.00430372 0)
(0.408943 -0.00493478 0)
(0.407795 -0.00558547 0)
(0.406288 -0.00625114 0)
(0.404306 -0.00693038 0)
(0.401676 -0.00762726 0)
(0.39819 -0.0083526 0)
(0.393435 -0.00914226 0)
(0.387207 -0.0100012 0)
(0.377825 -0.0112917 0)
(0.412459 -6.67321e-05 0)
(0.412456 -0.000159102 0)
(0.41245 -0.000211502 0)
(0.412445 -0.000230246 0)
(0.41244 -0.00023462 0)
(0.412436 -0.000230259 0)
(0.412431 -0.000221968 0)
(0.412424 -0.000226697 0)
(0.412412 -0.000243101 0)
(0.412396 -0.000285463 0)
(0.41237 -0.000367977 0)
(0.41233 -0.000496896 0)
(0.412269 -0.000676491 0)
(0.41218 -0.000909086 0)
(0.412054 -0.00119463 0)
(0.411881 -0.00153067 0)
(0.411647 -0.00191239 0)
(0.411337 -0.00233267 0)
(0.41093 -0.00278202 0)
(0.410398 -0.00324847 0)
(0.409709 -0.00371735 0)
(0.408814 -0.00417107 0)
(0.407653 -0.00458861 0)
(0.40614 -0.00494481 0)
(0.40416 -0.00520902 0)
(0.401543 -0.00534315 0)
(0.398086 -0.00529885 0)
(0.393373 -0.00501098 0)
(0.387204 -0.00438915 0)
(0.377869 -0.00332691 0)
(0.412459 -6.48213e-05 0)
(0.412454 -0.000154839 0)
(0.412447 -0.000207028 0)
(0.41244 -0.000226155 0)
(0.412435 -0.00023069 0)
(0.412429 -0.000226144 0)
(0.412423 -0.000216983 0)
(0.412416 -0.000219926 0)
(0.412405 -0.000233204 0)
(0.412389 -0.000269898 0)
(0.412364 -0.000343585 0)
(0.412325 -0.000459165 0)
(0.412264 -0.000620205 0)
(0.412174 -0.000828191 0)
(0.412046 -0.00108191 0)
(0.411871 -0.00137739 0)
(0.411634 -0.00170782 0)
(0.411321 -0.00206341 0)
(0.410912 -0.00243107 0)
(0.410383 -0.00279383 0)
(0.409702 -0.0031301 0)
(0.408828 -0.00341258 0)
(0.407703 -0.00360655 0)
(0.406251 -0.00366745 0)
(0.404369 -0.00353646 0)
(0.4019 -0.00313585 0)
(0.39866 -0.00235513 0)
(0.394278 -0.00104032 0)
(0.388562 0.000984966 0)
(0.379995 0.00428904 0)
(0.412459 -6.2461e-05 0)
(0.412454 -0.000149789 0)
(0.412445 -0.000201179 0)
(0.412437 -0.000221467 0)
(0.412431 -0.000225959 0)
(0.412424 -0.000221471 0)
(0.412419 -0.000213013 0)
(0.412412 -0.000212494 0)
(0.412402 -0.000223395 0)
(0.412388 -0.00025588 0)
(0.412366 -0.000320634 0)
(0.412329 -0.000422515 0)
(0.41227 -0.00056471 0)
(0.412183 -0.000747793 0)
(0.412057 -0.000969486 0)
(0.411885 -0.0012245 0)
(0.411652 -0.00150438 0)
(0.411346 -0.00179711 0)
(0.41095 -0.00208658 0)
(0.410441 -0.00235163 0)
(0.409794 -0.00256476 0)
(0.408972 -0.00269032 0)
(0.407929 -0.00268183 0)
(0.406601 -0.00247776 0)
(0.404902 -0.00199477 0)
(0.402706 -0.00111853 0)
(0.399858 0.000305334 0)
(0.396057 0.00251624 0)
(0.391138 0.00575681 0)
(0.383992 0.0109712 0)
(0.412459 -5.98806e-05 0)
(0.412453 -0.000144159 0)
(0.412444 -0.000194608 0)
(0.412435 -0.000216208 0)
(0.412429 -0.000220883 0)
(0.412423 -0.000216781 0)
(0.412417 -0.00020919 0)
(0.412412 -0.000206688 0)
(0.412404 -0.000215575 0)
(0.412393 -0.000243592 0)
(0.412374 -0.000299528 0)
(0.41234 -0.000388154 0)
(0.412286 -0.000511814 0)
(0.412204 -0.000670303 0)
(0.412085 -0.000860514 0)
(0.41192 -0.0010762 0)
(0.411698 -0.00130764 0)
(0.411408 -0.00154121 0)
(0.411035 -0.00175856 0)
(0.410562 -0.00193539 0)
(0.409969 -0.00203975 0)
(0.409228 -0.00202962 0)
(0.408305 -0.00184932 0)
(0.407153 -0.00142479 0)
(0.405711 -0.000652114 0)
(0.403886 0.000606208 0)
(0.401565 0.00253859 0)
(0.398559 0.00545003 0)
(0.394717 0.00963925 0)
(0.389473 0.0162695 0)
(0.412459 -5.71601e-05 0)
(0.412453 -0.000138537 0)
(0.412444 -0.000188119 0)
(0.412436 -0.000210797 0)
(0.41243 -0.00021576 0)
(0.412424 -0.000212521 0)
(0.41242 -0.000205644 0)
(0.412416 -0.000202589 0)
(0.412411 -0.000209993 0)
(0.412404 -0.000233582 0)
(0.412388 -0.000281686 0)
(0.41236 -0.00035787 0)
(0.412311 -0.000463852 0)
(0.412236 -0.000598807 0)
(0.412127 -0.000759077 0)
(0.411973 -0.000937845 0)
(0.411768 -0.00112466 0)
(0.4115 -0.00130489 0)
(0.411159 -0.0014589 0)
(0.410734 -0.00156053 0)
(0.41021 -0.00157507 0)
(0.409572 -0.00145643 0)
(0.408797 -0.00114353 0)
(0.407861 -0.000551658 0)
(0.406727 0.000428598 0)
(0.405345 0.00195271 0)
(0.403653 0.0042385 0)
(0.401581 0.00761546 0)
(0.398989 0.0124128 0)
(0.395921 0.0198577 0)
(0.412459 -5.45688e-05 0)
(0.412454 -0.000133586 0)
(0.412447 -0.000182156 0)
(0.41244 -0.000205717 0)
(0.412435 -0.000211129 0)
(0.41243 -0.000209155 0)
(0.412426 -0.000203419 0)
(0.412425 -0.00020035 0)
(0.412423 -0.000206191 0)
(0.412419 -0.000225629 0)
(0.412408 -0.00026602 0)
(0.412385 -0.000330107 0)
(0.412344 -0.000418986 0)
(0.412278 -0.000531258 0)
(0.412179 -0.000662964 0)
(0.41204 -0.000807139 0)
(0.411854 -0.000953105 0)
(0.411613 -0.00108603 0)
(0.411311 -0.00118606 0)
(0.410941 -0.00122663 0)
(0.410498 -0.00117218 0)
(0.409974 -0.000975416 0)
(0.409367 -0.000572309 0)
(0.408668 0.000122341 0)
(0.40787 0.00122143 0)
(0.406973 0.00289038 0)
(0.405962 0.00535076 0)
(0.404884 0.00893156 0)
(0.403615 0.0139732 0)
(0.40278 0.0216139 0)
(0.412459 -5.25559e-05 0)
(0.412456 -0.000130262 0)
(0.412452 -0.000177823 0)
(0.412448 -0.0002009 0)
(0.412444 -0.000207331 0)
(0.41244 -0.000206898 0)
(0.412438 -0.000203484 0)
(0.412439 -0.000201963 0)
(0.412441 -0.000207481 0)
(0.412441 -0.000225215 0)
(0.412435 -0.000259591 0)
(0.412419 -0.000313394 0)
(0.412385 -0.000387152 0)
(0.412329 -0.000479053 0)
(0.412242 -0.000585272 0)
(0.412119 -0.000699168 0)
(0.411954 -0.000810325 0)
(0.411743 -0.000904305 0)
(0.411482 -0.000962119 0)
(0.411171 -0.000958224 0)
(0.410811 -0.000858224 0)
(0.410409 -0.000616617 0)
(0.409972 -0.000171065 0)
(0.409515 0.000558727 0)
(0.409063 0.00168873 0)
(0.408656 0.00337447 0)
(0.408325 0.00582789 0)
(0.408228 0.00935373 0)
(0.408255 0.014289 0)
(0.409526 0.0215552 0)
(0.41246 -5.19166e-05 0)
(0.41246 -0.000130543 0)
(0.412463 -0.000176408 0)
(0.412463 -0.000196596 0)
(0.41246 -0.000202614 0)
(0.412457 -0.00020217 0)
(0.412456 -0.000199065 0)
(0.412459 -0.000198087 0)
(0.412464 -0.000202868 0)
(0.412468 -0.000215903 0)
(0.412467 -0.000243645 0)
(0.412457 -0.000287188 0)
(0.412432 -0.000346114 0)
(0.412385 -0.000418086 0)
(0.41231 -0.000499929 0)
(0.412203 -0.000585527 0)
(0.41206 -0.000665255 0)
(0.411878 -0.000726135 0)
(0.411658 -0.000751281 0)
(0.411405 -0.000717588 0)
(0.411127 -0.000593696 0)
(0.410841 -0.000337969 0)
(0.410568 0.000104539 0)
(0.410345 0.000809835 0)
(0.410221 0.00188182 0)
(0.410276 0.00346086 0)
(0.410583 0.0057376 0)
(0.411389 0.00897022 0)
(0.412603 0.0134788 0)
(0.415717 0.0198798 0)
(0.412462 -5.38058e-05 0)
(0.41247 -0.000135728 0)
(0.412483 -0.000180915 0)
(0.412489 -0.000202923 0)
(0.412488 -0.000211026 0)
(0.412486 -0.000213934 0)
(0.412487 -0.000215176 0)
(0.412493 -0.000216659 0)
(0.4125 -0.000222635 0)
(0.412508 -0.000236717 0)
(0.412512 -0.000260584 0)
(0.412507 -0.000296153 0)
(0.41249 -0.000342874 0)
(0.412453 -0.000397337 0)
(0.41239 -0.000458253 0)
(0.412298 -0.000521474 0)
(0.412175 -0.000576859 0)
(0.412021 -0.000613385 0)
(0.411839 -0.000617166 0)
(0.411638 -0.000569126 0)
(0.411435 -0.00044274 0)
(0.411253 -0.000203753 0)
(0.411128 0.00019457 0)
(0.411112 0.000816969 0)
(0.411279 0.00174906 0)
(0.411741 0.0031138 0)
(0.412605 0.00507238 0)
(0.414181 0.00781549 0)
(0.416405 0.0116356 0)
(0.421016 0.0167856 0)
(0.412465 -6.4548e-05 0)
(0.412486 -0.000138743 0)
(0.412513 -0.000166503 0)
(0.412524 -0.00017786 0)
(0.412524 -0.000183824 0)
(0.412524 -0.00018704 0)
(0.412528 -0.000189704 0)
(0.412535 -0.000194105 0)
(0.412545 -0.000201563 0)
(0.412556 -0.000212234 0)
(0.412565 -0.000230944 0)
(0.412569 -0.0002587 0)
(0.412552 -0.000293022 0)
(0.412522 -0.000331571 0)
(0.412472 -0.000372055 0)
(0.412396 -0.000410873 0)
(0.412291 -0.00044509 0)
(0.412161 -0.000460244 0)
(0.412012 -0.000450299 0)
(0.411857 -0.000398079 0)
(0.411718 -0.000283406 0)
(0.411625 -8.13597e-05 0)
(0.411626 0.000239427 0)
(0.411784 0.000730135 0)
(0.412196 0.0014485 0)
(0.412999 0.0024969 0)
(0.414319 0.00400912 0)
(0.4165 0.00610667 0)
(0.419513 0.00901276 0)
(0.425231 0.012641 0)
(0.412477 -0.000101453 0)
(0.412542 -0.000229055 0)
(0.412602 -0.00023212 0)
(0.41261 -0.000234311 0)
(0.412611 -0.000238019 0)
(0.412616 -0.000240172 0)
(0.412621 -0.000241295 0)
(0.412625 -0.000244369 0)
(0.412625 -0.000251618 0)
(0.412618 -0.000263651 0)
(0.412604 -0.000280143 0)
(0.412578 -0.000299456 0)
(0.412539 -0.000321553 0)
(0.412483 -0.000346928 0)
(0.412408 -0.000376983 0)
(0.412314 -0.000402224 0)
(0.412204 -0.000413799 0)
(0.412083 -0.000417367 0)
(0.411962 -0.000404011 0)
(0.411856 -0.000368072 0)
(0.411793 -0.000289105 0)
(0.411804 -0.000149073 0)
(0.41194 7.35691e-05 0)
(0.412256 0.000406852 0)
(0.412867 0.000893444 0)
(0.413755 0.00159473 0)
(0.415387 0.00258512 0)
(0.417956 0.00393963 0)
(0.421613 0.00585124 0)
(0.427545 0.00778335 0)
(0.412276 -6.95639e-05 0)
(0.412142 -0.000132735 0)
(0.411909 -0.000156074 0)
(0.411625 -0.000165393 0)
(0.411336 -0.000171794 0)
(0.411051 -0.00017627 0)
(0.410766 -0.000179481 0)
(0.410479 -0.000182171 0)
(0.410188 -0.000184815 0)
(0.409888 -0.000187994 0)
(0.409577 -0.000192845 0)
(0.40925 -0.000200217 0)
(0.408903 -0.000210228 0)
(0.408532 -0.000222181 0)
(0.408135 -0.00023405 0)
(0.407711 -0.000245547 0)
(0.407265 -0.000256877 0)
(0.406808 -0.000263887 0)
(0.406351 -0.000262441 0)
(0.405914 -0.000248669 0)
(0.40553 -0.000213509 0)
(0.405245 -0.000166946 0)
(0.405124 -9.17064e-05 0)
(0.405262 3.55011e-05 0)
(0.405798 0.00024252 0)
(0.406902 0.000507108 0)
(0.408781 0.000867849 0)
(0.411727 0.00134273 0)
(0.416114 0.00210266 0)
(0.423837 0.00247978 0)
(0.446923 -0.00424395 -6.93963e-20)
(0.450035 -0.00635588 -6.92072e-20)
(0.452586 -0.0088748 -9.87057e-19)
(0.454449 -0.0116287 -2.84409e-19)
(0.455955 -0.0145776 2.88981e-19)
(0.457252 -0.0177141 0)
(0.458372 -0.0210528 0)
(0.459348 -0.0246167 2.97686e-19)
(0.460231 -0.0284293 -3.03181e-19)
(0.461063 -0.0325139 -6.10772e-19)
(0.461861 -0.0368963 6.22607e-19)
(0.462621 -0.0416093 0)
(0.463334 -0.0466958 -6.36143e-19)
(0.463991 -0.0522106 6.49406e-19)
(0.464584 -0.0582222 0)
(0.465108 -0.0648152 1.32228e-18)
(0.465555 -0.0720933 6.7292e-19)
(0.465918 -0.0801846 6.69206e-19)
(0.466181 -0.0892483 6.90841e-19)
(0.466321 -0.0994848 6.82102e-19)
(0.466304 -0.11115 -7.05958e-19)
(0.466082 -0.12457 2.13667e-18)
(0.465576 -0.14018 0)
(0.464703 -0.15853 -1.41406e-18)
(0.463198 -0.180435 7.04826e-19)
(0.461075 -0.206756 -1.40523e-18)
(0.457134 -0.239258 -2.01529e-18)
(0.452104 -0.280243 0)
(0.443317 -0.324709 0)
(0.425498 -0.418168 -1.90182e-19)
(0.450483 -0.00928039 -1.13802e-18)
(0.452126 -0.0115253 0)
(0.453342 -0.0142118 0)
(0.454193 -0.0171035 -1.17585e-18)
(0.454916 -0.0201541 1.19106e-18)
(0.455622 -0.0233847 1.20685e-18)
(0.456292 -0.0268249 -3.0368e-19)
(0.456934 -0.0304955 3.09371e-19)
(0.457552 -0.0344125 9.47376e-19)
(0.458137 -0.038596 1.59757e-18)
(0.458672 -0.0430751 -6.4357e-19)
(0.459135 -0.0478893 1.32407e-18)
(0.459507 -0.0530882 6.67553e-19)
(0.459779 -0.058732 6.91588e-19)
(0.459939 -0.0648922 6.9043e-19)
(0.459977 -0.0716544 1.41717e-18)
(0.459875 -0.0791218 0)
(0.459606 -0.0874211 -7.23196e-19)
(0.459134 -0.0967094 -7.58698e-19)
(0.458409 -0.107183 0)
(0.457364 -0.119089 7.6051e-19)
(0.455907 -0.132743 8.06873e-19)
(0.4539 -0.148552 -1.61729e-18)
(0.451182 -0.16703 0)
(0.44739 -0.188925 7.93952e-19)
(0.442406 -0.214969 8.62703e-19)
(0.434742 -0.246926 -1.6854e-18)
(0.425589 -0.28557 7.47053e-19)
(0.409984 -0.330724 -7.83063e-19)
(0.387184 -0.413301 3.01988e-19)
(0.44916 -0.0139859 1.15943e-18)
(0.450055 -0.0162128 0)
(0.450756 -0.0188958 -1.48365e-19)
(0.451404 -0.0218094 2.56412e-18)
(0.452047 -0.0248981 -9.12853e-19)
(0.452675 -0.0281718 -1.85434e-18)
(0.453256 -0.0316484 1.58144e-18)
(0.453769 -0.0353444 -3.1884e-19)
(0.454198 -0.0392798 -9.65533e-19)
(0.454532 -0.0434834 -3.10128e-19)
(0.454758 -0.0479933 3.36319e-19)
(0.454867 -0.0528541 -2.03897e-18)
(0.45485 -0.0581168 1.39255e-18)
(0.454697 -0.0638396 -2.11731e-18)
(0.454392 -0.0700913 0)
(0.45391 -0.0769547 -1.46124e-18)
(0.453218 -0.0845309 0)
(0.452271 -0.0929437 0)
(0.451013 -0.102346 1.55298e-18)
(0.449371 -0.112927 0)
(0.447245 -0.124922 0)
(0.444505 -0.138628 -1.65418e-18)
(0.440962 -0.154423 1.68853e-18)
(0.43638 -0.17278 0)
(0.430323 -0.194366 0)
(0.422534 -0.219828 -1.77744e-18)
(0.411385 -0.250775 7.43379e-19)
(0.398212 -0.287204 -5.05711e-19)
(0.376024 -0.332054 -4.84322e-19)
(0.348916 -0.40401 0)
(0.447566 -0.0189442 -3.71357e-20)
(0.448167 -0.0212492 -3.75697e-20)
(0.448612 -0.0239715 1.15592e-18)
(0.449092 -0.026903 -2.4884e-18)
(0.449554 -0.0299965 1.58118e-19)
(0.449931 -0.033268 3.20309e-19)
(0.450207 -0.0367435 -3.08485e-19)
(0.450381 -0.0404467 0)
(0.450452 -0.0444032 1.7003e-18)
(0.450413 -0.0486442 -3.09959e-18)
(0.450253 -0.0532058 1.41763e-18)
(0.44996 -0.0581287 7.15332e-19)
(0.449516 -0.0634595 -2.21133e-18)
(0.448897 -0.0692537 0)
(0.448072 -0.0755785 0)
(0.447004 -0.0825157 1.58853e-18)
(0.445646 -0.0901641 1.63016e-18)
(0.443939 -0.098643 8.22653e-19)
(0.441809 -0.108098 -9.55453e-22)
(0.439158 -0.118705 -8.70044e-19)
(0.435858 -0.130685 0)
(0.431738 -0.144306 0)
(0.426565 -0.159911 -1.0086e-18)
(0.420041 -0.177918 -3.02161e-18)
(0.411664 -0.198903 0)
(0.401061 -0.223409 -1.15112e-18)
(0.386528 -0.252829 2.08172e-18)
(0.369443 -0.28673 -4.10777e-18)
(0.341091 -0.329523 5.95579e-19)
(0.311065 -0.39076 0)
(0.445278 -0.0237507 0)
(0.445571 -0.026067 1.25192e-18)
(0.445692 -0.0287706 -1.10093e-18)
(0.445901 -0.0316841 1.11836e-18)
(0.446095 -0.034774 1.63412e-19)
(0.446176 -0.0380559 -1.66654e-19)
(0.446137 -0.0415533 -1.34679e-18)
(0.445992 -0.0452867 0)
(0.445735 -0.0492784 2.6374e-20)
(0.445349 -0.0535563 1.42748e-18)
(0.444813 -0.0581537 -1.82573e-18)
(0.444105 -0.0631101 1.90126e-18)
(0.443199 -0.0684719 1.90999e-18)
(0.442064 -0.0742949 -3.95131e-19)
(0.440661 -0.0806452 2.45819e-18)
(0.438945 -0.0876015 -1.6158e-18)
(0.436858 -0.0952567 -1.719e-18)
(0.434327 -0.103722 -8.83002e-19)
(0.431258 -0.113131 0)
(0.427533 -0.123645 0)
(0.422994 -0.135462 0)
(0.417439 -0.14882 1.01722e-18)
(0.410595 -0.164017 3.18087e-18)
(0.402112 -0.181409 1.03813e-18)
(0.391445 -0.201476 2.31424e-18)
(0.378116 -0.224653 -1.40257e-18)
(0.360428 -0.252089 2.68436e-18)
(0.33964 -0.283095 -2.7275e-19)
(0.305954 -0.322623 2.34474e-18)
(0.274074 -0.373578 4.06049e-18)
(0.442317 -0.0283751 -1.2726e-18)
(0.442315 -0.0307122 -1.27924e-18)
(0.44212 -0.0334199 -1.32244e-18)
(0.442056 -0.0363392 0)
(0.441982 -0.0394393 0)
(0.441769 -0.042732 -1.40111e-18)
(0.44141 -0.0462374 0)
(0.440921 -0.049975 1.10102e-18)
(0.440296 -0.0539677 -2.59124e-18)
(0.439508 -0.0582436 1.53262e-18)
(0.438533 -0.0628368 1.18342e-18)
(0.437346 -0.0677862 -3.18493e-18)
(0.435915 -0.0731371 -6.69594e-22)
(0.434204 -0.0789419 -1.28674e-18)
(0.432167 -0.0852622 5.47373e-20)
(0.429747 -0.09217 -1.75561e-18)
(0.426874 -0.0997501 -6.68351e-20)
(0.423461 -0.108103 1.9473e-18)
(0.419396 -0.117348 -1.03078e-18)
(0.414542 -0.127629 -1.02629e-18)
(0.408718 -0.139116 2.20192e-18)
(0.401694 -0.152013 0)
(0.393167 -0.166566 -2.294e-18)
(0.382746 -0.183067 0)
(0.36986 -0.20189 -2.72725e-18)
(0.353948 -0.223367 2.70507e-18)
(0.333381 -0.248374 2.49214e-19)
(0.309199 -0.276088 3.10709e-18)
(0.271184 -0.31134 -4.23847e-18)
(0.238339 -0.352558 1.45575e-18)
(0.438628 -0.0327401 1.25965e-18)
(0.438317 -0.0350883 -4.1817e-20)
(0.43779 -0.0377867 1.60922e-18)
(0.437424 -0.0406914 5.28947e-19)
(0.437049 -0.0437748 0)
(0.436508 -0.0470482 1.43748e-18)
(0.43579 -0.050531 1.1222e-18)
(0.434919 -0.0542431 -1.88315e-18)
(0.433885 -0.058207 7.50769e-19)
(0.432659 -0.0624498 -7.68545e-19)
(0.431209 -0.0670032 -1.62021e-18)
(0.429508 -0.0719031 1.66512e-18)
(0.427517 -0.0771909 -4.48137e-19)
(0.425192 -0.0829143 1.31862e-18)
(0.42248 -0.0891289 -4.15005e-19)
(0.419313 -0.0958993 -4.78496e-19)
(0.41561 -0.103301 2.97036e-18)
(0.411273 -0.111422 -3.08788e-18)
(0.406175 -0.120365 2.11364e-18)
(0.400163 -0.130252 5.89782e-19)
(0.393038 -0.141222 -1.72302e-18)
(0.38455 -0.153442 1.28337e-18)
(0.374372 -0.167104 0)
(0.36209 -0.18243 -7.07796e-19)
(0.34712 -0.19969 3.65567e-18)
(0.328844 -0.219109 0)
(0.305754 -0.24129 -6.10717e-18)
(0.278601 -0.265373 9.59832e-19)
(0.237414 -0.295613 0)
(0.204284 -0.327841 -4.60167e-18)
(0.434145 -0.0367073 -6.87309e-19)
(0.433512 -0.039054 -8.70859e-20)