/*--------------------------------*- C++ -*----------------------------------*\
  =========                 |
  \\      /  F ield         | OpenFOAM: The Open Source CFD Toolbox
   \\    /   O peration     | Website:  https://openfoam.org
    \\  /    A nd           | Version:  11
     \\/     M anipulation  |
\*---------------------------------------------------------------------------*/
FoamFile
{
    format      ascii;
    class       volScalarField;
    location    "5.7";
    object      p;
}
// * * * * * * * * * * * * * * * * * * * * * * * * * * * * * * * * * * * * * //

dimensions      [0 2 -2 0 0 0 0];

internalField   nonuniform List<scalar> 
12600
(
0.0846677
0.084531
0.0844676
0.0844497
0.0844344
0.0844135
0.0843905
0.0843671
0.084343
0.0843172
0.084289
0.0842577
0.0842226
0.0841828
0.0841373
0.0840847
0.0840235
0.0839515
0.0838662
0.0837648
0.0836437
0.083498
0.0833216
0.0831072
0.0828468
0.0825282
0.0821365
0.0816496
0.0810359
0.0802077
0.0845913
0.0845222
0.0844701
0.0844487
0.0844323
0.0844122
0.0843897
0.0843666
0.0843427
0.0843172
0.0842892
0.0842581
0.0842233
0.0841839
0.0841387
0.0840866
0.084026
0.0839547
0.0838704
0.0837702
0.0836505
0.0835067
0.0833328
0.0831219
0.0828647
0.0825501
0.0821658
0.0816914
0.0811402
0.0805295
0.0845561
0.0845233
0.084478
0.0844506
0.0844327
0.0844134
0.0843915
0.0843686
0.0843448
0.0843195
0.0842918
0.0842611
0.0842267
0.0841878
0.0841434
0.0840923
0.0840328
0.0839632
0.0838809
0.0837829
0.0836656
0.0835247
0.0833548
0.0831489
0.0828981
0.0825921
0.0822192
0.0817647
0.0812304
0.0805871
0.0845311
0.0845106
0.0844751
0.084448
0.0844297
0.0844115
0.0843906
0.0843682
0.084345
0.0843203
0.0842932
0.0842632
0.0842296
0.0841917
0.0841484
0.0840986
0.0840406
0.0839732
0.0838935
0.0837986
0.0836851
0.0835489
0.083385
0.0831865
0.0829451
0.082651
0.0822928
0.0818571
0.081331
0.0806909
0.0845128
0.0844995
0.0844731
0.0844486
0.0844302
0.0844125
0.0843924
0.0843706
0.0843479
0.0843237
0.0842973
0.084268
0.0842354
0.0841987
0.084157
0.0841089
0.0840531
0.0839878
0.0839112
0.0838203
0.0837119
0.0835819
0.0834256
0.0832365
0.0830069
0.0827275
0.082387
0.0819723
0.0814637
0.0808436
0.0844992
0.08449
0.0844699
0.084448
0.0844296
0.0844121
0.0843928
0.0843719
0.0843497
0.0843262
0.0843006
0.0842723
0.0842409
0.0842055
0.0841653
0.0841194
0.0840664
0.0840043
0.0839316
0.0838456
0.0837432
0.0836208
0.0834736
0.083296
0.0830807
0.0828189
0.0824996
0.0821099
0.0816276
0.0810367
0.084489
0.0844822
0.0844663
0.0844472
0.0844295
0.0844125
0.0843942
0.0843742
0.0843529
0.0843302
0.0843055
0.0842784
0.0842484
0.0842147
0.0841765
0.084133
0.0840829
0.0840246
0.0839564
0.0838761
0.0837807
0.0836669
0.0835305
0.0833662
0.0831674
0.082926
0.0826314
0.0822713
0.0818228
0.0812715
0.0844813
0.0844759
0.084463
0.0844463
0.0844297
0.0844133
0.0843958
0.0843767
0.0843562
0.0843343
0.0843106
0.0842847
0.0842561
0.0842243
0.0841884
0.0841476
0.0841009
0.0840468
0.0839838
0.0839098
0.0838223
0.0837183
0.083594
0.0834447
0.0832645
0.0830462
0.0827797
0.082454
0.0820465
0.0815443
0.0844755
0.0844711
0.0844603
0.0844457
0.0844301
0.0844144
0.0843977
0.0843794
0.0843599
0.084339
0.0843165
0.084292
0.0842651
0.0842353
0.0842019
0.0841642
0.0841212
0.0840718
0.0840145
0.0839475
0.0838687
0.0837755
0.0836645
0.0835318
0.0833721
0.0831792
0.0829442
0.0826571
0.0822973
0.0818533
0.0844713
0.0844676
0.0844583
0.0844453
0.0844308
0.0844158
0.0843999
0.0843826
0.0843639
0.0843441
0.0843228
0.0842998
0.0842747
0.0842471
0.0842164
0.084182
0.0841431
0.0840986
0.0840474
0.083988
0.0839186
0.083837
0.0837404
0.0836255
0.083488
0.0833228
0.0831221
0.0828778
0.0825716
0.082194
0.0844684
0.0844652
0.084457
0.0844453
0.0844319
0.0844176
0.0844024
0.084386
0.0843684
0.0843496
0.0843297
0.0843082
0.0842851
0.0842598
0.084232
0.0842011
0.0841665
0.0841273
0.0840827
0.0840313
0.0839719
0.0839025
0.0838212
0.0837253
0.0836114
0.0834755
0.0833117
0.0831135
0.0828662
0.0825624
0.0844667
0.0844638
0.0844565
0.0844458
0.0844333
0.0844197
0.0844052
0.0843897
0.0843731
0.0843555
0.0843369
0.0843171
0.0842959
0.0842731
0.0842483
0.0842211
0.084191
0.0841574
0.0841196
0.0840767
0.0840276
0.0839712
0.0839057
0.0838296
0.0837403
0.0836352
0.0835102
0.0833609
0.0831766
0.0829526
0.084466
0.0844633
0.0844567
0.0844468
0.084435
0.0844221
0.0844083
0.0843936
0.084378
0.0843616
0.0843444
0.0843264
0.0843073
0.084287
0.0842653
0.0842419
0.0842165
0.0841886
0.0841579
0.0841237
0.0840854
0.0840421
0.0839931
0.0839372
0.0838733
0.0837999
0.0837149
0.0836164
0.0834981
0.0833585
0.0844662
0.0844637
0.0844575
0.0844482
0.0844371
0.0844248
0.0844117
0.0843978
0.0843832
0.084368
0.0843522
0.0843359
0.0843189
0.0843012
0.0842827
0.0842632
0.0842426
0.0842206
0.0841971
0.0841717
0.0841443
0.0841145
0.0840821
0.0840469
0.0840087
0.0839674
0.083923
0.0838761
0.0838252
0.0837726
0.0844673
0.084465
0.084459
0.0844502
0.0844395
0.0844278
0.0844153
0.0844022
0.0843886
0.0843745
0.0843602
0.0843456
0.0843307
0.0843157
0.0843004
0.0842848
0.084269
0.084253
0.0842367
0.0842203
0.0842039
0.0841876
0.0841719
0.0841573
0.0841447
0.0841355
0.0841316
0.0841361
0.0841525
0.084187
0.0844693
0.084467
0.0844612
0.0844526
0.0844423
0.084431
0.0844191
0.0844068
0.084394
0.0843811
0.0843682
0.0843553
0.0843426
0.0843302
0.0843181
0.0843065
0.0842955
0.0842854
0.0842764
0.0842689
0.0842634
0.0842605
0.0842613
0.084267
0.0842797
0.0843019
0.0843375
0.0843922
0.084474
0.0845934
0.084472
0.0844697
0.084464
0.0844554
0.0844453
0.0844344
0.0844231
0.0844114
0.0843995
0.0843877
0.0843762
0.084365
0.0843545
0.0843446
0.0843357
0.084328
0.0843218
0.0843176
0.0843157
0.084317
0.0843221
0.0843324
0.0843493
0.0843749
0.084412
0.0844645
0.0845381
0.0846405
0.0847843
0.0849836
0.0844755
0.0844732
0.0844673
0.0844587
0.0844486
0.084438
0.0844271
0.084416
0.084405
0.0843943
0.0843841
0.0843746
0.0843661
0.0843588
0.084353
0.0843492
0.0843476
0.0843491
0.0843542
0.0843639
0.0843795
0.0844025
0.084435
0.0844796
0.0845401
0.0846214
0.0847307
0.0848775
0.0850782
0.08535
0.0844799
0.0844774
0.0844712
0.0844623
0.0844521
0.0844417
0.0844312
0.0844207
0.0844104
0.0844007
0.0843918
0.084384
0.0843775
0.0843726
0.0843698
0.0843697
0.0843727
0.0843796
0.0843914
0.0844094
0.084435
0.0844701
0.0845174
0.08458
0.0846625
0.0847707
0.0849128
0.0851001
0.0853513
0.085686
0.0844852
0.0844825
0.0844757
0.0844662
0.0844557
0.0844454
0.0844353
0.0844253
0.0844157
0.0844069
0.0843992
0.0843929
0.0843884
0.0843859
0.084386
0.0843893
0.0843966
0.0844088
0.0844271
0.0844528
0.0844879
0.0845345
0.0845957
0.0846752
0.0847781
0.0849108
0.0850827
0.0853058
0.0856002
0.085987
0.0844915
0.0844883
0.0844807
0.0844703
0.0844595
0.0844492
0.0844393
0.0844297
0.0844208
0.0844128
0.0844063
0.0844015
0.0843987
0.0843984
0.0844013
0.0844079
0.0844193
0.0844365
0.0844607
0.0844938
0.0845376
0.084595
0.0846691
0.0847641
0.0848855
0.0850405
0.0852386
0.0854925
0.0858224
0.0862497
0.0844988
0.0844951
0.0844863
0.0844746
0.0844632
0.084453
0.0844433
0.084434
0.0844255
0.0844184
0.084413
0.0844095
0.0844084
0.0844102
0.0844156
0.0844254
0.0844405
0.0844623
0.0844921
0.0845319
0.084584
0.0846511
0.084737
0.0848461
0.0849842
0.0851587
0.0853796
0.0856592
0.0860172
0.0864736
0.0845075
0.0845029
0.0844922
0.0844789
0.0844669
0.0844567
0.0844471
0.084438
0.08443
0.0844236
0.0844191
0.0844169
0.0844173
0.0844209
0.0844287
0.0844413
0.0844599
0.0844858
0.0845207
0.0845667
0.0846261
0.0847021
0.0847985
0.0849201
0.0850729
0.0852644
0.0855045
0.0858052
0.0861843
0.0866595
0.0845178
0.0845119
0.0844984
0.0844829
0.0844704
0.0844602
0.0844507
0.0844417
0.0844341
0.0844284
0.0844248
0.0844237
0.0844255
0.0844309
0.0844407
0.0844559
0.0844776
0.0845073
0.0845468
0.0845982
0.0846643
0.0847481
0.0848538
0.0849863
0.0851518
0.0853577
0.0856136
0.085931
0.0863253
0.0868111
0.0845303
0.0845221
0.0845045
0.0844867
0.0844738
0.0844636
0.0844539
0.0844448
0.0844375
0.0844323
0.0844295
0.0844293
0.0844323
0.0844392
0.0844508
0.0844682
0.0844927
0.0845257
0.0845692
0.0846254
0.0846971
0.0847878
0.0849015
0.0850433
0.0852194
0.0854371
0.0857057
0.086036
0.0864413
0.0869322
0.0845458
0.0845336
0.08451
0.0844897
0.0844772
0.0844673
0.0844573
0.0844482
0.0844411
0.0844365
0.0844343
0.0844349
0.0844389
0.0844471
0.0844603
0.0844796
0.0845064
0.0845422
0.084589
0.0846492
0.0847258
0.0848221
0.0849425
0.085092
0.0852766
0.0855037
0.0857822
0.0861221
0.0865356
0.0870296
0.0845658
0.0845465
0.0845138
0.0844911
0.084479
0.0844691
0.0844587
0.0844495
0.0844428
0.0844386
0.0844369
0.0844382
0.0844432
0.0844524
0.0844669
0.0844878
0.0845165
0.0845547
0.0846043
0.0846678
0.0847483
0.0848492
0.0849748
0.0851305
0.0853219
0.085556
0.0858415
0.086188
0.086609
0.0871066
0.084592
0.0845605
0.084518
0.0844952
0.0844837
0.084473
0.0844618
0.0844526
0.084446
0.084442
0.0844407
0.0844424
0.0844479
0.0844579
0.0844733
0.0844954
0.0845255
0.0845654
0.084617
0.0846831
0.0847666
0.0848709
0.0850003
0.0851604
0.0853566
0.0855955
0.0858853
0.0862348
0.0866632
0.0871735
0.0846281
0.0845603
0.0845111
0.0844944
0.0844846
0.0844731
0.0844617
0.0844526
0.0844463
0.0844426
0.0844417
0.0844438
0.0844498
0.0844604
0.0844766
0.0844995
0.0845307
0.0845717
0.0846249
0.0846927
0.0847781
0.0848849
0.0850174
0.0851803
0.0853795
0.0856211
0.0859122
0.0862602
0.0866855
0.0872272
0.084705
0.0845695
0.0845091
0.084496
0.0844873
0.0844751
0.0844632
0.0844541
0.0844478
0.0844442
0.0844432
0.0844455
0.0844517
0.0844626
0.0844791
0.0845025
0.084534
0.0845756
0.0846296
0.0846983
0.0847846
0.0848929
0.0850271
0.0851914
0.0853919
0.0856347
0.0859253
0.0862687
0.0866533
0.0870622
0.0801157
0.0793532
0.0789657
0.0788932
0.0787972
0.0785993
0.0783635
0.0781307
0.0779078
0.0776926
0.0774845
0.0772845
0.0770926
0.0769077
0.0767285
0.0765535
0.0763811
0.076209
0.0760342
0.0758519
0.0756551
0.0754291
0.0751648
0.0747623
0.074378
0.0729761
0.072944
0.0650382
0.0686641
0.0187535
0.080578
0.0798756
0.07939
0.0792231
0.0790719
0.0788568
0.0786236
0.0784145
0.0782254
0.0780461
0.077875
0.0777136
0.0775624
0.0774212
0.0772897
0.0771683
0.0770571
0.0769563
0.076866
0.0767857
0.0767139
0.0766466
0.0765765
0.0764652
0.0763505
0.075707
0.0757765
0.0704881
0.0732664
0.0327907
0.0801881
0.0797799
0.0794849
0.0793637
0.0792399
0.0790603
0.0788725
0.0787072
0.0785573
0.0784142
0.0782793
0.0781561
0.0780462
0.0779502
0.0778692
0.0778048
0.0777592
0.0777349
0.0777352
0.0777642
0.0778263
0.0779265
0.078068
0.078245
0.0784657
0.0784867
0.0789065
0.0758938
0.0783272
0.0468668
0.0801931
0.0799762
0.0797946
0.0796559
0.0795161
0.0793572
0.0792032
0.0790691
0.0789499
0.0788408
0.0787435
0.0786615
0.0785963
0.0785495
0.0785234
0.0785211
0.0785469
0.078606
0.078705
0.0788526
0.0790597
0.0793405
0.0797105
0.0801885
0.0807879
0.0814367
0.0823787
0.0813885
0.083905
0.0607572
0.0803202
0.0801719
0.080043
0.0799168
0.0797937
0.0796732
0.0795619
0.0794651
0.0793816
0.0793105
0.0792541
0.0792157
0.0791979
0.0792034
0.0792359
0.0793004
0.079403
0.0795517
0.0797568
0.0800316
0.0803938
0.0808667
0.0814793
0.0822715
0.0832793
0.0845349
0.0861281
0.0869326
0.0899149
0.0743833
0.0805236
0.0804238
0.0803424
0.080244
0.0801449
0.080056
0.0799791
0.0799157
0.0798667
0.0798337
0.0798191
0.0798263
0.0798584
0.0799195
0.0800147
0.0801504
0.0803352
0.0805796
0.0808976
0.0813078
0.0818344
0.0825101
0.0833775
0.0844965
0.085932
0.0877876
0.0901126
0.0925208
0.0962567
0.0876398
0.0807867
0.080724
0.0806791
0.0806076
0.0805342
0.0804766
0.0804351
0.0804081
0.0803971
0.0804049
0.0804346
0.0804899
0.0805749
0.0806949
0.0808564
0.0810676
0.0813392
0.0816849
0.0821222
0.0826748
0.0833737
0.0842611
0.0853931
0.086849
0.0887238
0.0911751
0.0942758
0.0981206
0.10285
0.10034
0.0810986
0.0810687
0.0810568
0.0810143
0.08097
0.080945
0.0809389
0.0809488
0.0809764
0.0810259
0.0811011
0.0812062
0.0813464
0.081528
0.0817589
0.0820493
0.082412
0.0828634
0.0834253
0.084126
0.0850035
0.0861091
0.0875124
0.089311
0.0916296
0.0946698
0.0985593
0.103692
0.109587
0.112313
0.0814559
0.081456
0.0814748
0.0814615
0.0814472
0.0814548
0.0814839
0.0815311
0.0815986
0.0816912
0.0818136
0.0819705
0.0821679
0.0824134
0.0827164
0.0830887
0.0835456
0.0841063
0.0847963
0.0856491
0.086709
0.0880366
0.0897139
0.0918562
0.0946157
0.0982313
0.102897
0.109182
0.116343
0.123401
0.0818532
0.0818816
0.0819295
0.0819457
0.0819621
0.0820026
0.0820672
0.0821522
0.0822603
0.0823968
0.0825672
0.0827769
0.0830328
0.0833436
0.0837202
0.0841763
0.0847291
0.085401
0.0862211
0.0872274
0.0884709
0.0900205
0.0919701
0.0944512
0.0976409
0.101809
0.107217
0.11452
0.12297
0.133425
0.0822863
0.0823413
0.0824164
0.0824617
0.082509
0.0825824
0.0826822
0.082805
0.0829538
0.0831345
0.0833532
0.0836161
0.0839309
0.0843075
0.0847582
0.0852984
0.0859475
0.0867306
0.0876802
0.088839
0.0902638
0.0920314
0.0942465
0.0970547
0.100656
0.105344
0.111439
0.119631
0.129299
0.14217
0.0827483
0.0828282
0.0829287
0.0830025
0.0830806
0.0831864
0.0833208
0.0834809
0.08367
0.0838944
0.0841609
0.0844763
0.0848495
0.0852911
0.0858149
0.0864379
0.0871817
0.0880737
0.0891498
0.0904567
0.0920568
0.0940338
0.0965018
0.0996188
0.103603
0.108767
0.115479
0.124425
0.135155
0.149463
0.0832317
0.0833346
0.0834581
0.0835595
0.0836676
0.0838049
0.0839727
0.0841689
0.084397
0.0846638
0.0849765
0.085343
0.0857725
0.086277
0.0868714
0.0875741
0.0884086
0.0894048
0.0906014
0.0920488
0.0938141
0.095987
0.0986895
0.10209
0.10642
0.112006
0.119253
0.128811
0.140393
0.155372
0.0837269
0.0838506
0.0839948
0.0841222
0.0842592
0.0844264
0.0846258
0.084856
0.085121
0.0854279
0.0857844
0.0861988
0.0866815
0.0872451
0.0879056
0.088683
0.0896022
0.0906952
0.0920032
0.0935798
0.0954959
0.0978462
0.100759
0.10441
0.10904
0.114985
0.122672
0.132697
0.144921
0.160148
0.0842234
0.0843655
0.0845278
0.0846791
0.084843
0.0850379
0.0852662
0.0855277
0.0858265
0.0861702
0.0865667
0.087025
0.087556
0.0881733
0.0888939
0.0897386
0.090734
0.0919137
0.0933209
0.0950118
0.0970603
0.0995647
0.102658
0.10652
0.111398
0.117628
0.125651
0.135993
0.148658
0.163566
0.0847099
0.0848679
0.0850452
0.0852179
0.085406
0.0856257
0.0858796
0.0861686
0.0864974
0.0868733
0.0873049
0.0878016
0.0883748
0.0890389
0.0898114
0.0907143
0.0917751
0.0930288
0.0945201
0.096307
0.0984656
0.101096
0.104335
0.108362
0.11343
0.119865
0.128111
0.138615
0.151469
0.165418
0.0851748
0.0853459
0.0855355
0.0857263
0.0859354
0.086176
0.0864516
0.0867637
0.0871174
0.0875203
0.0879809
0.0885093
0.0891172
0.0898194
0.0906342
0.0915841
0.0926974
0.0940101
0.0955678
0.0974296
0.0996726
0.102398
0.105743
0.109887
0.115078
0.121633
0.129981
0.140473
0.153185
0.165847
0.0856076
0.0857889
0.0859876
0.0861929
0.0864189
0.0866763
0.0869687
0.0872987
0.0876717
0.0880952
0.088578
0.0891302
0.0897641
0.0904947
0.0913407
0.0923249
0.0934762
0.094831
0.0964352
0.0983484
0.100648
0.103434
0.106843
0.11105
0.116297
0.122881
0.131206
0.141498
0.153743
0.164908
0.0859989
0.0861875
0.0863922
0.0866081
0.0868464
0.0871158
0.0874199
0.0877621
0.088148
0.0885852
0.0890824
0.0896499
0.0903002
0.0910484
0.0919133
0.0929181
0.0940916
0.0954701
0.0970997
0.0990394
0.101365
0.104177
0.107605
0.111821
0.117053
0.123574
0.131749
0.141658
0.15326
0.162464
0.086342
0.0865348
0.0867426
0.086965
0.0872108
0.0874869
0.0877972
0.0881455
0.0885376
0.0889809
0.0894843
0.090058
0.0907144
0.0914689
0.09234
0.0933508
0.0945299
0.0959133
0.0975463
0.0994867
0.101809
0.104609
0.108013
0.112184
0.117334
0.123703
0.131613
0.140965
0.151853
0.158392
0.0866328
0.0868269
0.0870347
0.0872592
0.0875075
0.0877852
0.0880959
0.0884441
0.0888355
0.0892775
0.0897787
0.0903493
0.0910017
0.0917509
0.0926153
0.0936177
0.094786
0.0961554
0.0977702
0.0996863
0.101976
0.10473
0.108068
0.112142
0.117146
0.123278
0.130825
0.139459
0.149582
0.153001
0.0868715
0.0870641
0.087269
0.0874914
0.0877373
0.0880111
0.0883168
0.0886587
0.0890426
0.0894756
0.0899663
0.0905247
0.0911629
0.0918956
0.0927408
0.0937205
0.0948622
0.0961996
0.0977755
0.0996436
0.101872
0.104548
0.107781
0.111709
0.116508
0.122325
0.129425
0.137194
0.146518
0.146478
0.0870597
0.087248
0.0874472
0.0876636
0.0879024
0.0881676
0.0884631
0.088793
0.0891632
0.0895804
0.0900529
0.0905904
0.0912047
0.0919102
0.0927241
0.0936679
0.0947678
0.0960562
0.0975739
0.0993716
0.101513
0.10408
0.107172
0.110911
0.115453
0.120887
0.127476
0.134244
0.142754
0.13853
0.0872051
0.0873863
0.0875765
0.0877826
0.0880098
0.0882617
0.0885417
0.0888539
0.089204
0.0895988
0.0900459
0.0905549
0.0911368
0.0918055
0.0925775
0.0934734
0.094518
0.0957422
0.0971844
0.098892
0.100924
0.103355
0.106275
0.109788
0.11403
0.119026
0.125055
0.130682
0.138397
0.129208
0.0873149
0.0874864
0.0876637
0.0878559
0.0880689
0.0883049
0.088566
0.0888562
0.0891811
0.0895472
0.089962
0.0904347
0.090976
0.0915989
0.0923193
0.0931565
0.094134
0.0952809
0.0966328
0.0982337
0.100138
0.102411
0.105134
0.108391
0.1123
0.11681
0.122244
0.12658
0.133559
0.118787
0.0874057
0.0875633
0.0877192
0.0878907
0.0880849
0.0883006
0.0885386
0.0888033
0.0891
0.0894343
0.0898127
0.090244
0.0907384
0.0913085
0.091969
0.0927384
0.0936387
0.0946969
0.0959459
0.0974261
0.0991865
0.101285
0.103791
0.106769
0.11032
0.114305
0.119131
0.122054
0.128345
0.10746
0.0874962
0.087635
0.0877585
0.08791
0.0880908
0.0882852
0.088494
0.088726
0.0889878
0.089284
0.0896202
0.0900049
0.0904472
0.0909585
0.091553
0.0922478
0.0930635
0.0940248
0.095162
0.0965115
0.098117
0.100028
0.102304
0.104986
0.108164
0.111593
0.115817
0.117155
0.12287
0.0954816
0.0876294
0.0876953
0.0877422
0.0878651
0.0880379
0.0882206
0.0884085
0.0886136
0.0888424
0.0890985
0.0893888
0.0897229
0.0901081
0.090555
0.0910772
0.0916905
0.0924139
0.0932701
0.0942868
0.0954966
0.0969379
0.0986519
0.100689
0.103064
0.105864
0.10871
0.112376
0.111946
0.117303
0.0830717
0.0880238
0.0879326
0.0878313
0.0878968
0.0880383
0.0881891
0.0883464
0.088523
0.0887189
0.0889329
0.0891766
0.0894606
0.0897873
0.0901678
0.0906164
0.0911474
0.0917776
0.0925279
0.0934232
0.0944922
0.0957679
0.0972835
0.0990786
0.101145
0.103568
0.105804
0.108979
0.106592
0.111784
0.070457
0.0879746
0.087654
0.0875517
0.0877006
0.0879
0.0880666
0.0882095
0.0883506
0.0885053
0.0886761
0.0888691
0.0890944
0.0893569
0.0896645
0.0900296
0.0904662
0.0909905
0.0916217
0.0923824
0.0932982
0.0943977
0.0957064
0.0972565
0.0990072
0.101076
0.102659
0.105509
0.100921
0.106215
0.0578836
0.0468683
0.0352942
0.0222768
0.00888359
-0.00412002
-0.0164044
-0.0276695
-0.0375133
-0.0454189
-0.0507928
-0.053091
-0.0520203
-0.0480634
-0.0425352
-0.0371787
-0.0328637
-0.0298219
-0.0279575
-0.0259036
-0.0240109
-0.0238649
-0.0247937
-0.0251357
-0.0247189
-0.0240827
-0.023531
-0.0229174
-0.0222993
-0.0217749
-0.0218963
0.100481
0.0919984
0.0828582
0.073876
0.0645485
0.0546831
0.0446241
0.0346921
0.0251027
0.0161525
0.00812811
0.00181047
-0.00254586
-0.00544585
-0.00786488
-0.010905
-0.0141598
-0.0174179
-0.0204564
-0.022746
-0.0247676
-0.025431
-0.0234468
-0.0197852
-0.015805
-0.0123599
-0.00968508
-0.00719564
-0.00461711
-0.00325416
0.0963564
0.0908328
0.084362
0.0771667
0.0690658
0.0601416
0.0505639
0.040713
0.0313023
0.0229202
0.015688
0.00965114
0.00502452
0.00153528
-0.00164248
-0.00520739
-0.00915858
-0.0130456
-0.0162549
-0.0182853
-0.0193014
-0.0190034
-0.0169731
-0.0138444
-0.0106431
-0.00790661
-0.00596884
-0.00520499
-0.0069118
-0.0109303
0.102826
0.0991064
0.0942951
0.088801
0.082513
0.0753019
0.0672428
0.0585728
0.0496112
0.0407114
0.0322082
0.0245523
0.0180666
0.0127591
0.00827935
0.00422857
0.000595217
-0.00227329
-0.00420394
-0.00527938
-0.00563607
-0.0055348
-0.00512584
-0.00492941
-0.00564285
-0.00753591
-0.0109942
-0.0163871
-0.0242652
-0.0333192
0.100517
0.0981325
0.0951805
0.0913934
0.0867179
0.0811517
0.0746788
0.0673345
0.0592912
0.050886
0.04254
0.0346907
0.027693
0.0217219
0.0166996
0.0124166
0.00881584
0.00600896
0.0039891
0.00260584
0.00177213
0.00119097
0.000495389
-0.000723278
-0.00283808
-0.00605642
-0.0104936
-0.0160667
-0.0225449
-0.0287598
0.0995359
0.097984
0.095858
0.0929484
0.0892065
0.0845848
0.0790366
0.0725642
0.0652777
0.0574281
0.0493833
0.0415633
0.0343651
0.028061
0.0227141
0.0182306
0.0145429
0.0116522
0.00950751
0.0079769
0.00686593
0.00584397
0.0045653
0.00274214
0.000215935
-0.00298621
-0.00664698
-0.0104091
-0.0137991
-0.0166395
0.0977979
0.0967603
0.0952917
0.0931765
0.0902996
0.0865902
0.0819709
0.0763988
0.0699189
0.0627
0.0550447
0.0473581
0.0400708
0.0335299
0.027906
0.0232027
0.0193738
0.0163809
0.0141409
0.0124866
0.0111672
0.00987813
0.00836139
0.00649374
0.00433211
0.0021056
0.000187199
-0.000998931
-0.00102185
0.0002249
0.0963132
0.0956437
0.0946295
0.0930241
0.0907416
0.0877058
0.0838139
0.0789859
0.073217
0.0666123
0.0594117
0.0519821
0.0447558
0.0381245
0.0323382
0.0274806
0.0235391
0.0204617
0.0181389
0.0163826
0.0149475
0.0135969
0.0121929
0.0107449
0.00943123
0.00855436
0.00846683
0.00941403
0.0115479
0.0144362
0.0949547
0.0945149
0.0937984
0.0925698
0.090748
0.0882449
0.084939
0.0807259
0.0755659
0.0695169
0.0627655
0.0556363
0.0485492
0.0419215
0.0360606
0.0311134
0.0271027
0.023977
0.0216168
0.0198381
0.0184316
0.0172306
0.0161812
0.0153806
0.0150518
0.01545
0.0167744
0.0190051
0.0220438
0.0251265
0.0937958
0.0935119
0.093001
0.0920455
0.0905673
0.0884751
0.085638
0.0819359
0.0773015
0.0717524
0.0654273
0.0586093
0.0516991
0.0451277
0.0392454
0.0342516
0.0302045
0.0270636
0.0247135
0.0229882
0.0217173
0.0207908
0.0202174
0.02013
0.0207195
0.0221251
0.0243689
0.027236
0.0305431
0.0334616
0.092815
0.0926328
0.0922582
0.0914978
0.0902829
0.0885136
0.0860546
0.0827768
0.0785928
0.0734872
0.0675574
0.0610471
0.0543334
0.0478521
0.041985
0.0369763
0.0329195
0.0297925
0.027494
0.0258807
0.0248183
0.0242411
0.0241901
0.0247853
0.0261405
0.0282675
0.0310495
0.0341792
0.0374913
0.0401822
0.0919957
0.0918819
0.0916003
0.0909836
0.0899666
0.0884494
0.0862942
0.0833668
0.0795652
0.0748477
0.0692767
0.0630593
0.0565477
0.0501756
0.0443489
0.0393499
0.0353067
0.0322204
0.0300095
0.0285533
0.0277483
0.0275554
0.0280187
0.0292143
0.0311646
0.0337735
0.0368352
0.040025
0.0432201
0.0456595
0.0913149
0.0912474
0.0910294
0.0905181
0.0896529
0.0883343
0.0864247
0.0837875
0.0803107
0.0759319
0.0706832
0.0647388
0.0584259
0.0521723
0.0464018
0.04143
0.0374187
0.0343952
0.0322985
0.0310304
0.0305083
0.0307036
0.0316412
0.0333383
0.0357296
0.0386401
0.0418164
0.0449605
0.047981
0.0501943
0.0907511
0.0907162
0.0905427
0.0901103
0.0893632
0.0882022
0.0864917
0.0840953
0.0808944
0.0768099
0.0718485
0.0661549
0.0600318
0.053899
0.0481936
0.0432607
0.0392945
0.0363501
0.0343865
0.0333259
0.0330963
0.0336651
0.0350232
0.0371242
0.0398286
0.0429106
0.0461002
0.0491498
0.051984
0.054044
0.0902845
0.0902738
0.0901327
0.089761
0.0891073
0.088073
0.0865252
0.0843293
0.0813628
0.0775336
0.0728268
0.0673608
0.0614152
0.0554003
0.0497637
0.0448768
0.040965
0.0381115
0.0362943
0.0354514
0.0355125
0.0364288
0.0381487
0.0405647
0.0434804
0.0466431
0.0497888
0.0527333
0.0554066
0.0574101
0.0898981
0.0899067
0.0897906
0.0894672
0.0888888
0.0879585
0.0865452
0.0845173
0.0817503
0.0781423
0.0736599
0.0683985
0.062616
0.0567126
0.0511445
0.0463068
0.0424552
0.0397005
0.0380378
0.0374158
0.037758
0.0389901
0.0410142
0.0436684
0.0467164
0.0498988
0.0529749
0.055829
0.0583917
0.0604305
0.0895775
0.0896026
0.0895071
0.0892239
0.0887088
0.0878651
0.0865642
0.0846783
0.0820821
0.0786656
0.0743804
0.0693012
0.0636662
0.0578656
0.0523624
0.0475741
0.043785
0.0411333
0.0396299
0.0392272
0.0398359
0.0413499
0.0436244
0.0464523
0.0495729
0.0527362
0.0557391
0.0585312
0.0610364
0.0631729
0.0893106
0.0893507
0.0892734
0.0890252
0.0885652
0.0877954
0.0865905
0.0848262
0.0823769
0.0791264
0.0750138
0.0700956
0.0645917
0.0588831
0.053439
0.0486976
0.0449706
0.0424244
0.0410811
0.0408927
0.0417507
0.0435127
0.0459891
0.0489373
0.0520868
0.0552095
0.0581487
0.0609083
0.0633899
0.0656516
0.0890868
0.0891416
0.0890811
0.0888649
0.0884544
0.0877502
0.0866291
0.0849703
0.0826485
0.0795424
0.0755804
0.0708031
0.0654138
0.0597849
0.054392
0.0496932
0.0460249
0.0435852
0.0424003
0.0424194
0.0435079
0.0454851
0.048121
0.0511468
0.0542943
0.0573677
0.0602577
0.0630014
0.0654818
0.0678943
0.0888981
0.0889669
0.0889225
0.0887368
0.0883728
0.0877288
0.0866824
0.0851169
0.0829068
0.079927
0.0760964
0.0714412
0.0661499
0.0605873
0.0552361
0.0505738
0.0469587
0.044624
0.0435953
0.0438136
0.0451136
0.0472753
0.0500334
0.0531042
0.0562313
0.0592541
0.0621065
0.0648434
0.0673847
0.0699138
0.0887391
0.0888205
0.088791
0.0886348
0.0883155
0.0877289
0.0867518
0.0852707
0.08316
0.0802912
0.0765749
0.0720244
0.0668144
0.0613038
0.0559832
0.0513503
0.0478078
0.045548
0.0446729
0.0450815
0.0465742
0.048893
0.051742
0.0548322
0.0579315
0.0609119
0.0637449
0.0665091
0.0690872
0.0716409
0.0886047
0.0886976
0.088681
0.0885535
0.0882781
0.0877452
0.0868364
0.0854337
0.0834134
0.0806434
0.0770266
0.0725648
0.0674196
0.0619458
0.0566436
0.0520302
0.04853
0.0463657
0.0456399
0.0462292
0.0478961
0.0503473
0.0532647
0.0563593
0.0594261
0.0623767
0.0652167
0.0680238
0.0705905
0.0730497
0.0884904
0.0885943
0.0885885
0.0884887
0.0882572
0.0877791
0.0869345
0.0856066
0.0836707
0.0809902
0.0774606
0.0730725
0.0679755
0.0625221
0.0572247
0.0526191
0.0491547
0.0470835
0.0465029
0.0472638
0.0490869
0.0516451
0.0546099
0.0577121
0.060761
0.0636801
0.0665508
0.0694032
0.0718824
0.0740791
0.0883936
0.0885079
0.0885098
0.0884363
0.0882481
0.0878249
0.0870451
0.0857899
0.0839343
0.0813363
0.0778843
0.0735578
0.0684939
0.0630455
0.0577388
0.0531272
0.0496926
0.0477091
0.0472675
0.0481892
0.0501558
0.0528072
0.0557965
0.0588902
0.0619508
0.0648838
0.0678067
0.0706481
0.0729289
0.0746342
0.08831
0.0884365
0.0884431
0.0883944
0.0882472
0.0878778
0.087167
0.0859851
0.0842058
0.0816825
0.0782971
0.0740183
0.0689695
0.0635078
0.0581814
0.0535445
0.0501163
0.0482237
0.0479289
0.0490061
0.0511013
0.0538431
0.0568824
0.0599734
0.0629874
0.0659397
0.0689758
0.0717214
0.0736921
0.0746217
0.0882331
0.0883753
0.0883861
0.0883623
0.0882535
0.0879307
0.087291
0.0861946
0.0844987
0.0820538
0.0787337
0.0744971
0.0694508
0.063956
0.0585945
0.05396
0.0505289
0.048693
0.048523
0.0497338
0.0519273
0.0547141
0.0577976
0.0610072
0.0640933
0.0670432
0.0701069
0.0725835
0.0740901
0.0739126
0.0881572
0.0883137
0.0883348
0.0883403
0.0882709
0.0879957
0.087384
0.0863761
0.0847519
0.082376
0.0791069
0.0748955
0.0698349
0.0642897
0.0588407
0.0541044
0.0507418
0.0490065
0.0489903
0.0503587
0.0526779
0.0555208
0.0585489
0.0616428
0.0646704
0.0680297
0.0710843
0.0732139
0.0742034
0.0725715
0.0880925
0.088238
0.0882766
0.0883157
0.088289
0.0880914
0.0876129
0.0866709
0.0851258
0.0828436
0.0796479
0.0754628
0.0703654
0.0647774
0.0593273
0.0545802
0.0509969
0.0493221
0.0494297
0.0509302
0.0533734
0.0563811
0.059637
0.0628485
0.0659148
0.0691936
0.0720054
0.073421
0.0733252
0.069965
0.0880702
0.0881579
0.0882123
0.0882702
0.088251
0.0880639
0.0875992
0.0867241
0.0852912
0.0830795
0.0799021
0.0756881
0.0705042
0.064821
0.0593584
0.0545505
0.0510501
0.0494848
0.0497083
0.0512876
0.0537227
0.0566052
0.059709
0.0629638
0.0665404
0.0700207
0.0726361
0.0737527
0.0730992
0.0677772
0.0881383
0.0881381
0.0882057
0.0882939
0.0883238
0.0882261
0.0878897
0.0871538
0.0858404
0.08375
0.0807113
0.0765401
0.0712928
0.0654501
0.0597298
0.0546551
0.0511013
0.0496168
0.0500586
0.0519216
0.0546551
0.0577802
0.0611613
0.0646092
0.0680385
0.0711629
0.0731492
0.0727191
0.0688656
0.0617954
-0.0878717
-0.0873803
-0.0131055
0.0282853
0.0502625
0.0609622
0.0643807
0.0647089
0.0639823
0.0631913
0.0626615
0.0624511
0.0625622
0.0629374
0.0634907
0.0641504
0.0648635
0.0655915
0.0663122
0.0670097
0.0676895
0.0683373
0.0689899
0.0696005
0.0702813
0.0709057
0.0717201
0.0724285
0.0736745
0.072806
-0.0891785
-0.0866693
-0.0185826
0.029641
0.0534852
0.0639547
0.0671463
0.0670435
0.0657696
0.0644743
0.0635091
0.0629202
0.0627286
0.0628809
0.0632798
0.0638378
0.064489
0.0651829
0.0658887
0.0665833
0.067267
0.0679212
0.0685733
0.0691788
0.0698107
0.0703711
0.0710233
0.0714915
0.0722043
0.0720499
-0.0904111
-0.0901207
-0.0260548
0.0296322
0.0565012
0.067394
0.0705079
0.069974
0.0680345
0.0661064
0.0645884
0.0635199
0.0629422
0.0628106
0.0630169
0.0634529
0.0640336
0.0646938
0.0653898
0.0660914
0.0667885
0.0674646
0.0681295
0.0687611
0.069386
0.0699625
0.0705592
0.0710734
0.0717022
0.0721974
-0.09091
-0.0946902
-0.0331094
0.0296901
0.0605426
0.0721816
0.0748402
0.0734763
0.0705571
0.0678337
0.0656856
0.0641145
0.0631622
0.0627784
0.0628351
0.0631934
0.0637429
0.0644011
0.0651114
0.0658367
0.0665597
0.0672662
0.0679576
0.0686264
0.0692837
0.069919
0.0705604
0.071183
0.0718437
0.0724622
-0.0901283
-0.0978314
-0.0398947
0.0289875
0.0648063
0.0779374
0.0801137
0.0776894
0.0734861
0.0698117
0.0669241
0.0647619
0.0633705
0.0626916
0.0625811
0.0628602
0.0633839
0.0640476
0.0647795
0.0655344
0.0662884
0.0670267
0.0677459
0.0684434
0.0691241
0.0697873
0.0704432
0.0710873
0.0717283
0.0723697
-0.0876643
-0.0996002
-0.0466413
0.0264986
0.0681105
0.0840861
0.0862809
0.082818
0.0769679
0.0720937
0.0683351
0.0654618
0.0635107
0.0624381
0.06211
0.0622939
0.0627944
0.0634753
0.0642442
0.065045
0.0658464
0.0666304
0.0673895
0.0681214
0.0688278
0.0695109
0.0701758
0.0708292
0.0714651
0.0721395
-0.0831889
-0.100352
-0.0527959
0.021678
0.0692777
0.0897432
0.0929707
0.0882786
0.0811872
0.0746066
0.0697269
0.0660971
0.0635209
0.0619397
0.0613347
0.0614187
0.0619201
0.0626526
0.063493
0.0643713
0.0652491
0.0661038
0.0669255
0.0677113
0.0684625
0.0691826
0.0698758
0.0705546
0.0712026
0.0718946
-0.0780225
-0.0994451
-0.0586752
0.0142895
0.0669659
0.0931437
0.0993381
0.0940628
0.0855769
0.0773818
0.0708868
0.0663575
0.0632272
0.0610848
0.0601374
0.0601122
0.0606486
0.0614876
0.062454
0.0634583
0.0644552
0.0654165
0.0663304
0.0671954
0.0680126
0.0687874
0.069523
0.0702352
0.070902
0.0716096
-0.0722711
-0.0967855
-0.0646007
0.00358516
0.0591948
0.0905292
0.101638
0.0986672
0.0898747
0.0801451
0.0716518
0.0659775
0.0620555
0.0594779
0.0582044
0.0581273
0.0587806
0.0598159
0.0609851
0.0621823
0.0633593
0.0644787
0.0655273
0.0665059
0.0674175
0.068269