/*--------------------------------*- C++ -*----------------------------------*\
  =========                 |
  \\      /  F ield         | OpenFOAM: The Open Source CFD Toolbox
   \\    /   O peration     | Website:  https://openfoam.org
    \\  /    A nd           | Version:  11
     \\/     M anipulation  |
\*---------------------------------------------------------------------------*/
FoamFile
{
    format      ascii;
    class       volVectorField;
    location    "5.7";
    object      U;
}
// * * * * * * * * * * * * * * * * * * * * * * * * * * * * * * * * * * * * * //

dimensions      [0 1 -1 0 0 0 0];

internalField   nonuniform List<vector> 
12600
(
(0.399659 0.000103356 0)
(0.399413 0.000175534 0)
(0.399044 0.000178467 0)
(0.398634 0.000176127 0)
(0.39825 0.000175366 0)
(0.397899 0.000172052 0)
(0.397575 0.000166538 0)
(0.397282 0.000158604 0)
(0.397027 0.000148305 0)
(0.396821 0.00013518 0)
(0.396676 0.000118849 0)
(0.396606 0.000100533 0)
(0.396628 7.41638e-05 0)
(0.396765 3.84801e-05 0)
(0.397045 -5.80581e-06 0)
(0.397502 -6.07889e-05 0)
(0.398179 -0.000123621 0)
(0.399125 -0.000203072 0)
(0.400404 -0.000303687 0)
(0.402089 -0.000424496 0)
(0.404263 -0.000569499 0)
(0.407041 -0.000751462 0)
(0.41057 -0.000976619 0)
(0.415018 -0.00125028 0)
(0.420592 -0.00158499 0)
(0.427547 -0.0019924 0)
(0.436156 -0.00250042 0)
(0.446768 -0.00304188 0)
(0.459769 -0.00401737 0)
(0.477795 -0.00353122 0)
(0.400037 0.000146453 0)
(0.400182 0.000249739 0)
(0.40037 0.000221327 0)
(0.400491 0.000198793 0)
(0.400618 0.000183169 0)
(0.400773 0.000164766 0)
(0.400956 0.000141241 0)
(0.401168 0.000114093 0)
(0.401414 8.12019e-05 0)
(0.401703 4.00776e-05 0)
(0.402047 -1.04326e-05 0)
(0.402458 -7.38064e-05 0)
(0.402951 -0.000151954 0)
(0.403545 -0.000247568 0)
(0.404263 -0.000365132 0)
(0.405133 -0.000509521 0)
(0.406182 -0.000687856 0)
(0.407459 -0.000907477 0)
(0.409004 -0.00117751 0)
(0.41086 -0.00151143 0)
(0.413231 -0.0019236 0)
(0.416128 -0.0024273 0)
(0.419664 -0.00304353 0)
(0.424006 -0.00380122 0)
(0.42934 -0.00472994 0)
(0.435885 -0.00585768 0)
(0.443907 -0.00723188 0)
(0.453736 -0.00883503 0)
(0.465771 -0.0110808 0)
(0.480456 -0.0119527 0)
(0.400024 7.024e-05 0)
(0.400114 0.000113227 0)
(0.40024 8.71909e-05 0)
(0.400361 6.32023e-05 0)
(0.400485 4.64357e-05 0)
(0.40063 2.2057e-05 0)
(0.400803 -1.28377e-05 0)
(0.401006 -5.75408e-05 0)
(0.401242 -0.000111811 0)
(0.40152 -0.000176736 0)
(0.401849 -0.000256161 0)
(0.402241 -0.000354425 0)
(0.40271 -0.000476219 0)
(0.403276 -0.000626937 0)
(0.403962 -0.000812888 0)
(0.404798 -0.00104157 0)
(0.40582 -0.00132249 0)
(0.407072 -0.00166733 0)
(0.408609 -0.00208884 0)
(0.410495 -0.00261625 0)
(0.412798 -0.00327192 0)
(0.415617 -0.00406786 0)
(0.419076 -0.00504185 0)
(0.42332 -0.00624309 0)
(0.428521 -0.00771575 0)
(0.434911 -0.00950954 0)
(0.442729 -0.011702 0)
(0.452428 -0.0143095 0)
(0.463995 -0.0177489 0)
(0.47941 -0.0202974 0)
(0.400016 3.7148e-05 0)
(0.400082 7.73797e-05 0)
(0.400191 6.96712e-05 0)
(0.400306 4.44474e-05 0)
(0.400425 1.59345e-05 0)
(0.400564 -1.94447e-05 0)
(0.400729 -6.6566e-05 0)
(0.400925 -0.000125311 0)
(0.401154 -0.000196771 0)
(0.401423 -0.000284588 0)
(0.401741 -0.000392626 0)
(0.40212 -0.000526084 0)
(0.402574 -0.000691656 0)
(0.403122 -0.000896975 0)
(0.403786 -0.001151 0)
(0.404594 -0.00146437 0)
(0.405582 -0.0018502 0)
(0.406791 -0.00232508 0)
(0.408274 -0.00290958 0)
(0.410091 -0.00363348 0)
(0.412314 -0.00452593 0)
(0.415034 -0.00561725 0)
(0.41837 -0.0069548 0)
(0.422465 -0.00859711 0)
(0.427484 -0.0106107 0)
(0.433655 -0.0130727 0)
(0.441203 -0.0160928 0)
(0.450607 -0.0197036 0)
(0.461791 -0.0243804 0)
(0.476941 -0.0285006 0)
(0.400011 1.6301e-05 0)
(0.40006 3.26551e-05 0)
(0.40015 1.37985e-05 0)
(0.400256 -2.65296e-05 0)
(0.400371 -7.09989e-05 0)
(0.400505 -0.000121309 0)
(0.400663 -0.000182367 0)
(0.400851 -0.000257524 0)
(0.40107 -0.000348737 0)
(0.401328 -0.000459909 0)
(0.401633 -0.000596143 0)
(0.401996 -0.000764258 0)
(0.40243 -0.000972608 0)
(0.402954 -0.00123086 0)
(0.403589 -0.00155039 0)
(0.404361 -0.00194478 0)
(0.405304 -0.00243066 0)
(0.406458 -0.00302874 0)
(0.407871 -0.00376451 0)
(0.409602 -0.00467116 0)
(0.41172 -0.00578643 0)
(0.414312 -0.0071531 0)
(0.417489 -0.008829 0)
(0.421387 -0.0108876 0)
(0.426167 -0.0134153 0)
(0.43205 -0.0165118 0)
(0.439246 -0.0203133 0)
(0.448246 -0.0248969 0)
(0.458918 -0.0307401 0)
(0.473619 -0.0365023 0)
(0.400009 1.06796e-06 0)
(0.400047 -4.173e-06 0)
(0.400123 -3.10315e-05 0)
(0.400221 -7.42264e-05 0)
(0.400331 -0.000125221 0)
(0.400458 -0.000184221 0)
(0.400608 -0.00025608 0)
(0.400785 -0.000344557 0)
(0.400993 -0.000452373 0)
(0.401238 -0.000583815 0)
(0.401526 -0.00074511 0)
(0.401869 -0.00094444 0)
(0.40228 -0.00119177 0)
(0.402774 -0.00149877 0)
(0.403373 -0.00187913 0)
(0.404101 -0.00234923 0)
(0.40499 -0.00292898 0)
(0.406075 -0.00364293 0)
(0.407404 -0.00452134 0)
(0.409029 -0.00560215 0)
(0.411018 -0.00693063 0)
(0.413452 -0.00856061 0)
(0.416434 -0.0105611 0)
(0.420091 -0.0130185 0)
(0.424576 -0.0160374 0)
(0.430101 -0.0197417 0)
(0.436859 -0.0242962 0)
(0.445346 -0.0298235 0)
(0.455379 -0.0367971 0)
(0.469458 -0.0441713 0)
(0.400007 -1.03228e-05 0)
(0.400038 -3.41799e-05 0)
(0.400104 -7.16565e-05 0)
(0.400192 -0.000123086 0)
(0.400295 -0.0001845 0)
(0.400414 -0.000255926 0)
(0.400554 -0.000341352 0)
(0.40072 -0.000444956 0)
(0.400914 -0.000570436 0)
(0.401143 -0.000722849 0)
(0.401412 -0.000909471 0)
(0.401732 -0.00113974 0)
(0.402115 -0.00142513 0)
(0.402575 -0.00177916 0)
(0.403132 -0.00221769 0)
(0.403808 -0.00275962 0)
(0.404632 -0.00342781 0)
(0.405638 -0.0042503 0)
(0.406868 -0.00526158 0)
(0.408371 -0.00650443 0)
(0.410209 -0.00803093 0)
(0.412458 -0.00990432 0)
(0.415212 -0.0122041 0)
(0.418588 -0.0150299 0)
(0.422726 -0.0185037 0)
(0.427827 -0.0227725 0)
(0.434066 -0.0280276 0)
(0.441931 -0.0344412 0)
(0.451203 -0.0424806 0)
(0.464473 -0.0514213 0)
(0.400006 -1.95705e-05 0)
(0.400032 -5.94952e-05 0)
(0.400089 -0.000108171 0)
(0.400168 -0.000168253 0)
(0.400263 -0.000238597 0)
(0.400373 -0.0003199 0)
(0.400503 -0.000416145 0)
(0.400656 -0.000532054 0)
(0.400835 -0.000672172 0)
(0.401046 -0.000842299 0)
(0.401294 -0.0010506 0)
(0.401587 -0.00130771 0)
(0.401938 -0.00162659 0)
(0.40236 -0.00202241 0)
(0.402868 -0.00251295 0)
(0.403486 -0.00311936 0)
(0.404237 -0.00386722 0)
(0.405152 -0.00478779 0)
(0.40627 -0.00591954 0)
(0.407635 -0.00730992 0)
(0.409303 -0.00901722 0)
(0.411342 -0.0111129 0)
(0.413835 -0.0136863 0)
(0.416891 -0.0168491 0)
(0.420634 -0.0207395 0)
(0.425249 -0.0255266 0)
(0.43089 -0.0314279 0)
(0.438029 -0.0386656 0)
(0.446416 -0.0477018 0)
(0.458675 -0.0581486 0)
(0.400005 -2.72441e-05 0)
(0.400027 -8.13863e-05 0)
(0.400077 -0.000140901 0)
(0.400147 -0.000209404 0)
(0.400233 -0.000287938 0)
(0.400334 -0.000378462 0)
(0.400452 -0.000485171 0)
(0.400591 -0.000613044 0)
(0.400754 -0.000767239 0)
(0.400944 -0.000954276 0)
(0.401168 -0.00118315 0)
(0.401433 -0.00146552 0)
(0.401749 -0.00181554 0)
(0.402127 -0.00224985 0)
(0.402582 -0.00278796 0)
(0.403134 -0.00345309 0)
(0.403804 -0.00427319 0)
(0.40462 -0.00528238 0)
(0.405614 -0.00652255 0)
(0.406827 -0.00804535 0)
(0.408306 -0.00991443 0)
(0.410113 -0.0122084 0)
(0.412319 -0.0150253 0)
(0.415019 -0.0184877 0)
(0.418323 -0.0227489 0)
(0.422394 -0.0279978 0)
(0.427365 -0.0344771 0)
(0.433678 -0.0424569 0)
(0.441061 -0.0523973 0)
(0.452096 -0.0642558 0)
(0.400004 -3.38063e-05 0)
(0.400023 -0.000100111 0)
(0.400066 -0.000169646 0)
(0.400128 -0.000246279 0)
(0.400205 -0.00033255 0)
(0.400295 -0.000431504 0)
(0.400401 -0.000547599 0)
(0.400525 -0.000686025 0)
(0.40067 -0.000852463 0)
(0.400839 -0.00105408 0)
(0.401037 -0.00130059 0)
(0.401271 -0.00160455 0)
(0.401548 -0.00198123 0)
(0.401879 -0.00244863 0)
(0.402277 -0.00302779 0)
(0.402758 -0.00374365 0)
(0.40334 -0.0046262 0)
(0.404048 -0.00571203 0)
(0.404908 -0.00704599 0)
(0.405956 -0.0086834 0)
(0.407231 -0.0106925 0)
(0.408785 -0.013158 0)
(0.41068 -0.0161854 0)
(0.412994 -0.0199069 0)
(0.415819 -0.0244885 0)
(0.419296 -0.0301367 0)
(0.423532 -0.037117 0)
(0.428924 -0.0457448 0)
(0.435192 -0.0564802 0)
(0.444784 -0.0696218 0)
(0.400004 -3.93655e-05 0)
(0.40002 -0.000116178 0)
(0.400057 -0.000194755 0)
(0.400111 -0.000278928 0)
(0.400178 -0.000372177 0)
(0.400257 -0.000478477 0)
(0.40035 -0.000602687 0)
(0.400458 -0.00075023 0)
(0.400584 -0.000927194 0)
(0.40073 -0.00114131 0)
(0.400901 -0.00140294 0)
(0.401101 -0.00172543 0)
(0.401337 -0.002125 0)
(0.401618 -0.00262074 0)
(0.401954 -0.00323492 0)
(0.402359 -0.00399394 0)
(0.402848 -0.0049295 0)
(0.403441 -0.00608018 0)
(0.404159 -0.0074933 0)
(0.40503 -0.00922713 0)
(0.406088 -0.0113537 0)
(0.407374 -0.0139625 0)
(0.408936 -0.0171651 0)
(0.410838 -0.0211014 0)
(0.413152 -0.0259479 0)
(0.41599 -0.0319258 0)
(0.419435 -0.0393201 0)
(0.423822 -0.0484862 0)
(0.428875 -0.0598847 0)
(0.436813 -0.0741381 0)
(0.400003 -4.40729e-05 0)
(0.400017 -0.000129863 0)
(0.400048 -0.000216357 0)
(0.400094 -0.000307256 0)
(0.400152 -0.000406633 0)
(0.40022 -0.000519203 0)
(0.400299 -0.000650231 0)
(0.400391 -0.00080536 0)
(0.400497 -0.000990998 0)
(0.400619 -0.00121533 0)
(0.40076 -0.00148927 0)
(0.400925 -0.00182679 0)
(0.401118 -0.00224486 0)
(0.401346 -0.00276343 0)
(0.401618 -0.00340579 0)
(0.401943 -0.00419946 0)
(0.402334 -0.00517746 0)
(0.402805 -0.00637996 0)
(0.403374 -0.00785616 0)
(0.404061 -0.00966662 0)
(0.404891 -0.0118863 0)
(0.405894 -0.014608 0)
(0.407108 -0.017948 0)
(0.408577 -0.0220519 0)
(0.410353 -0.027104 0)
(0.41252 -0.0333366 0)
(0.415128 -0.0410495 0)
(0.418441 -0.0506309 0)
(0.422195 -0.0625409 0)
(0.428284 -0.0776922 0)
(0.400003 -4.80126e-05 0)
(0.400014 -0.000141355 0)
(0.40004 -0.000234605 0)
(0.400079 -0.000331285 0)
(0.400127 -0.000435821 0)
(0.400183 -0.000553486 0)
(0.400249 -0.000689925 0)
(0.400323 -0.000850995 0)
(0.400408 -0.00104335 0)
(0.400506 -0.00127551 0)
(0.400617 -0.00155882 0)
(0.400744 -0.00190774 0)
(0.400893 -0.0023398 0)
(0.401067 -0.00287558 0)
(0.401271 -0.00353912 0)
(0.401514 -0.00435877 0)
(0.401803 -0.0053685 0)
(0.402148 -0.00660957 0)
(0.402562 -0.00813247 0)
(0.403058 -0.00999931 0)
(0.403652 -0.0122869 0)
(0.404364 -0.0150903 0)
(0.405217 -0.0185287 0)
(0.406238 -0.0227512 0)
(0.407459 -0.0279467 0)
(0.408928 -0.0343544 0)
(0.410667 -0.0422836 0)
(0.412854 -0.0521457 0)
(0.415245 -0.0643964 0)
(0.419327 -0.0801903 0)
(0.400002 -5.12459e-05 0)
(0.400011 -0.000150805 0)
(0.400032 -0.000249634 0)
(0.400064 -0.000351051 0)
(0.400102 -0.000459681 0)
(0.400147 -0.000581208 0)
(0.400198 -0.000721606 0)
(0.400256 -0.000886906 0)
(0.40032 -0.00108393 0)
(0.400391 -0.00132144 0)
(0.400471 -0.00161107 0)
(0.400562 -0.00196762 0)
(0.400664 -0.002409 0)
(0.400782 -0.0029562 0)
(0.400917 -0.00363371 0)
(0.401075 -0.00447037 0)
(0.40126 -0.00550072 0)
(0.401477 -0.00676662 0)
(0.401732 -0.00831927 0)
(0.402032 -0.0102216 0)
(0.402385 -0.0125511 0)
(0.4028 -0.0154042 0)
(0.403285 -0.0189008 0)
(0.40385 -0.0231912 0)
(0.404505 -0.028466 0)
(0.405262 -0.0349665 0)
(0.406115 -0.0430049 0)
(0.407146 -0.0530049 0)
(0.408136 -0.065411 0)
(0.410097 -0.0815568 0)
(0.400002 -5.38231e-05 0)
(0.400009 -0.000158343 0)
(0.400025 -0.000261584 0)
(0.400049 -0.000366639 0)
(0.400079 -0.000478226 0)
(0.400112 -0.000602328 0)
(0.400149 -0.000745173 0)
(0.400189 -0.00091293 0)
(0.400231 -0.00111251 0)
(0.400277 -0.00135282 0)
(0.400326 -0.00164568 0)
(0.400378 -0.00200604 0)
(0.400434 -0.00245198 0)
(0.400494 -0.00300468 0)
(0.40056 -0.00368879 0)
(0.400632 -0.00453335 0)
(0.400711 -0.00557305 0)
(0.400798 -0.0068499 0)
(0.400893 -0.0084152 0)
(0.400996 -0.0103318 0)
(0.401106 -0.0126773 0)
(0.40122 -0.0155476 0)
(0.401335 -0.0190619 0)
(0.401442 -0.0233695 0)
(0.401527 -0.0286589 0)
(0.401572 -0.035169 0)
(0.401534 -0.0432076 0)
(0.401403 -0.053198 0)
(0.400985 -0.0655652 0)
(0.400774 -0.0817476 0)
(0.400001 -5.57925e-05 0)
(0.400007 -0.000164096 0)
(0.400018 -0.00027061 0)
(0.400036 -0.00037817 0)
(0.400056 -0.000491521 0)
(0.400078 -0.000616862 0)
(0.400101 -0.000760616 0)
(0.400123 -0.000929024 0)
(0.400144 -0.00112903 0)
(0.400164 -0.00136957 0)
(0.400181 -0.00166249 0)
(0.400195 -0.00202278 0)
(0.400204 -0.00246849 0)
(0.400208 -0.00302072 0)
(0.400204 -0.00370405 0)
(0.40019 -0.00454735 0)
(0.400163 -0.00558511 0)
(0.400119 -0.006859 0)
(0.400054 -0.0084198 0)
(0.39996 -0.0103297 0)
(0.399827 -0.0126651 0)
(0.399643 -0.0155203 0)
(0.39939 -0.0190123 0)
(0.399043 -0.0232867 0)
(0.398565 -0.0285268 0)
(0.397905 -0.0349642 0)
(0.396991 -0.0428948 0)
(0.395716 -0.052729 0)
(0.393913 -0.0648616 0)
(0.391553 -0.080755 0)
(0.400001 -5.72059e-05 0)
(0.400004 -0.000168206 0)
(0.400012 -0.000276894 0)
(0.400023 -0.00038581 0)
(0.400035 -0.00049969 0)
(0.400046 -0.000624906 0)
(0.400055 -0.000768012 0)
(0.40006 -0.000935253 0)
(0.40006 -0.00113352 0)
(0.400054 -0.0013717 0)
(0.40004 -0.00166156 0)
(0.400016 -0.00201791 0)
(0.399979 -0.0024586 0)
(0.399925 -0.00300443 0)
(0.399852 -0.00367961 0)
(0.399752 -0.00451257 0)
(0.399621 -0.00553718 0)
(0.399448 -0.0067943 0)
(0.399224 -0.00833366 0)
(0.398935 -0.010216 0)
(0.398564 -0.0125157 0)
(0.398086 -0.0153243 0)
(0.397472 -0.0187548 0)
(0.39668 -0.0229471 0)
(0.395653 -0.0280762 0)
(0.39431 -0.0343615 0)
(0.392548 -0.0420804 0)
(0.390176 -0.0516176 0)
(0.387043 -0.0633268 0)
(0.382631 -0.078613 0)
(0.4 -5.81246e-05 0)
(0.400003 -0.00017084 0)
(0.400007 -0.000280655 0)
(0.400012 -0.000389769 0)
(0.400016 -0.000502912 0)
(0.400016 -0.000626622 0)
(0.400011 -0.000767524 0)
(0.399999 -0.000931785 0)
(0.399978 -0.00112616 0)
(0.399947 -0.00135942 0)
(0.399902 -0.00164309 0)
(0.399841 -0.00199171 0)
(0.399759 -0.00242265 0)
(0.39965 -0.00295623 0)
(0.399508 -0.00361604 0)
(0.399325 -0.00442973 0)
(0.399091 -0.00543018 0)
(0.398792 -0.00665705 0)
(0.398413 -0.00815842 0)
(0.397935 -0.0099929 0)
(0.39733 -0.0122321 0)
(0.396567 -0.0149635 0)
(0.395603 -0.0182949 0)
(0.394381 -0.0223586 0)
(0.392827 -0.0273181 0)
(0.390832 -0.0333771 0)
(0.388266 -0.0407881 0)
(0.384864 -0.0498984 0)
(0.380489 -0.0610116 0)
(0.374198 -0.0753985 0)
(0.4 -5.86251e-05 0)
(0.400001 -0.000172205 0)
(0.400002 -0.000282159 0)
(0.400002 -0.000390303 0)
(0.399999 -0.00050142 0)
(0.399988 -0.000622242 0)
(0.39997 -0.000759398 0)
(0.399942 -0.000918888 0)
(0.399901 -0.00110727 0)
(0.399846 -0.00133309 0)
(0.399771 -0.00160754 0)
(0.399674 -0.00194468 0)
(0.399547 -0.00236127 0)
(0.399384 -0.00287691 0)
(0.399176 -0.0035143 0)
(0.398913 -0.00430003 0)
(0.398579 -0.00526567 0)
(0.398158 -0.00644921 0)
(0.39763 -0.00789663 0)
(0.396968 -0.00966378 0)
(0.396139 -0.0118186 0)
(0.395102 -0.014444 0)
(0.393803 -0.0176407 0)
(0.392173 -0.021532 0)
(0.39012 -0.026268 0)
(0.387512 -0.0320331 0)
(0.384198 -0.0390502 0)
(0.379856 -0.0476199 0)
(0.374355 -0.0579885 0)
(0.36642 -0.0712286 0)
(0.4 -5.88064e-05 0)
(0.4 -0.000172567 0)
(0.399999 -0.000281736 0)
(0.399994 -0.000387718 0)
(0.399984 -0.000495495 0)
(0.399964 -0.000612064 0)
(0.399933 -0.000743971 0)
(0.399889 -0.000896929 0)
(0.39983 -0.00107725 0)
(0.399751 -0.00129318 0)
(0.399648 -0.00155549 0)
(0.399515 -0.00187757 0)
(0.399346 -0.0022754 0)
(0.399132 -0.00276762 0)
(0.398861 -0.00337581 0)
(0.398519 -0.00412523 0)
(0.39809 -0.00504582 0)
(0.397553 -0.00617353 0)
(0.396882 -0.00755174 0)
(0.396045 -0.00923304 0)
(0.395003 -0.0112811 0)
(0.393706 -0.0137731 0)
(0.392092 -0.0168022 0)
(0.390077 -0.0204812 0)
(0.387559 -0.0249451 0)
(0.384387 -0.0303566 0)
(0.380393 -0.0369062 0)
(0.375214 -0.0448417 0)
(0.368725 -0.0543481 0)
(0.35943 -0.0662531 0)
(0.4 -5.88005e-05 0)
(0.399999 -0.00017227 0)
(0.399997 -0.00027979 0)
(0.399989 -0.000382366 0)
(0.399972 -0.00048547 0)
(0.399943 -0.000596451 0)
(0.399901 -0.000721654 0)
(0.399842 -0.000866386 0)
(0.399765 -0.00103665 0)
(0.399663 -0.00124035 0)
(0.399533 -0.00148768 0)
(0.399368 -0.00179125 0)
(0.399159 -0.0021661 0)
(0.398896 -0.00262972 0)
(0.398565 -0.00320235 0)
(0.39815 -0.00390764 0)
(0.397631 -0.00477357 0)
(0.396984 -0.00583369 0)
(0.396178 -0.00712843 0)
(0.395177 -0.00870655 0)
(0.393935 -0.0106269 0)
(0.392395 -0.0129603 0)
(0.390486 -0.0157917 0)
(0.388117 -0.0192223 0)
(0.385172 -0.0233713 0)
(0.381489 -0.0283787 0)
(0.376886 -0.0344009 0)
(0.370986 -0.0416306 0)
(0.363661 -0.0501926 0)
(0.353316 -0.0606438 0)
(0.4 -5.87996e-05 0)
(0.399999 -0.000171773 0)
(0.399996 -0.000276803 0)
(0.399986 -0.000374618 0)
(0.399964 -0.000471687 0)
(0.399927 -0.000575832 0)
(0.399874 -0.00069294 0)
(0.399802 -0.000827831 0)
(0.399707 -0.000986184 0)
(0.399585 -0.00117545 0)
(0.39943 -0.00140512 0)
(0.399234 -0.0016869 0)
(0.398988 -0.00203469 0)
(0.398679 -0.00246468 0)
(0.398292 -0.00299557 0)
(0.397809 -0.00364919 0)
(0.397206 -0.0044513 0)
(0.396457 -0.00543275 0)
(0.395526 -0.00663061 0)
(0.394373 -0.00808946 0)
(0.392946 -0.00986285 0)
(0.391182 -0.0120148 0)
(0.389003 -0.0146215 0)
(0.38631 -0.0177723 0)
(0.38298 -0.0215701 0)
(0.378843 -0.0261318 0)
(0.373709 -0.0315815 0)
(0.367204 -0.0380572 0)
(0.359198 -0.0456294 0)
(0.348117 -0.054582 0)
(0.4 -5.90858e-05 0)
(0.400001 -0.000171719 0)
(0.399999 -0.000273339 0)
(0.399988 -0.000364902 0)
(0.399961 -0.000454584 0)
(0.399916 -0.00055063 0)
(0.399853 -0.00065823 0)
(0.399769 -0.0007817 0)
(0.399659 -0.000926435 0)
(0.399518 -0.00109939 0)
(0.39934 -0.00130923 0)
(0.399116 -0.00156657 0)
(0.398835 -0.00188403 0)
(0.398484 -0.00227627 0)
(0.398046 -0.00276024 0)
(0.3975 -0.00335569 0)
(0.396821 -0.00408593 0)
(0.395978 -0.00497884 0)
(0.394933 -0.0060678 0)
(0.393641 -0.00739288 0)
(0.392046 -0.00900194 0)
(0.390079 -0.0109519 0)
(0.387656 -0.0133098 0)
(0.384673 -0.0161532 0)
(0.381001 -0.019569 0)
(0.376467 -0.0236523 0)
(0.370881 -0.028497 0)
(0.363884 -0.0341919 0)
(0.355348 -0.0407636 0)
(0.343821 -0.0482437 0)
(0.400001 -6.01067e-05 0)
(0.400004 -0.000172977 0)
(0.400005 -0.000269947 0)
(0.399994 -0.000353649 0)
(0.399963 -0.000434872 0)
(0.399912 -0.000521749 0)
(0.399841 -0.000618368 0)
(0.399745 -0.000728567 0)
(0.399622 -0.00085752 0)
(0.399464 -0.00101163 0)
(0.399264 -0.00119864 0)
(0.399015 -0.00142803 0)
(0.398703 -0.00171104 0)
(0.398315 -0.0020607 0)
(0.397831 -0.0024921 0)
(0.397229 -0.00302273 0)
(0.396481 -0.00367322 0)
(0.395554 -0.00446818 0)
(0.394406 -0.00543712 0)
(0.39299 -0.0066153 0)
(0.391244 -0.00804471 0)
(0.389097 -0.00977499 0)
(0.386458 -0.011864 0)
(0.38322 -0.0143776 0)
(0.37925 -0.0173878 0)
(0.374377 -0.0209692 0)
(0.368412 -0.0251898 0)
(0.361027 -0.0300971 0)
(0.352098 -0.0356885 0)
(0.34037 -0.0417852 0)
(0.400002 -6.26487e-05 0)
(0.400009 -0.000176845 0)
(0.400017 -0.000267004 0)
(0.400007 -0.000340595 0)
(0.399973 -0.000412496 0)
(0.399917 -0.000490046 0)
(0.399838 -0.000575686 0)
(0.399733 -0.000672684 0)
(0.399597 -0.000785896 0)
(0.399424 -0.000920989 0)
(0.399207 -0.00108464 0)
(0.398935 -0.00128504 0)
(0.398596 -0.0015319 0)
(0.398174 -0.00183641 0)
(0.39765 -0.00221156 0)
(0.396999 -0.00267248 0)
(0.39619 -0.00323703 0)
(0.39519 -0.00392639 0)
(0.393953 -0.00476585 0)
(0.392428 -0.0057856 0)
(0.390551 -0.00702151 0)
(0.388246 -0.0085158 0)
(0.38542 -0.0103174 0)
(0.381962 -0.0124813 0)
(0.377739 -0.0150653 0)
(0.372582 -0.0181258 0)
(0.366308 -0.0217101 0)
(0.358623 -0.0258342 0)
(0.349414 -0.0304861 0)
(0.337671 -0.0353348 0)
(0.400004 -6.80493e-05 0)
(0.40002 -0.000185638 0)
(0.400037 -0.000266097 0)
(0.40003 -0.000325984 0)
(0.399993 -0.000384864 0)
(0.399931 -0.000448853 0)
(0.399845 -0.000519276 0)
(0.399733 -0.000599169 0)
(0.399587 -0.000692898 0)
(0.399401 -0.000805261 0)
(0.399167 -0.000941835 0)
(0.398876 -0.0011095 0)
(0.398515 -0.00131626 0)
(0.398065 -0.00157146 0)
(0.397507 -0.0018859 0)
(0.396813 -0.00227201 0)
(0.395954 -0.00274456 0)
(0.39489 -0.00332119 0)
(0.393578 -0.00402299 0)
(0.391961 -0.00487502 0)
(0.389974 -0.00590687 0)
(0.387536 -0.00715329 0)
(0.384553 -0.00865442 0)
(0.380912 -0.0104554 0)
(0.37648 -0.0126011 0)
(0.371094 -0.0151313 0)
(0.364576 -0.018078 0)
(0.356672 -0.0214343 0)
(0.347276 -0.0252052 0)
(0.335645 -0.0289764 0)
(0.400008 -7.79949e-05 0)
(0.400039 -0.000200483 0)
(0.400072 -0.000272415 0)
(0.400069 -0.000324214 0)
(0.400029 -0.000375676 0)
(0.399963 -0.000429852 0)
(0.399873 -0.000487822 0)
(0.399753 -0.000552973 0)
(0.399599 -0.000629074 0)
(0.399402 -0.000719806 0)
(0.399156 -0.000829537 0)
(0.398849 -0.000964007 0)
(0.398469 -0.00112946 0)
(0.397996 -0.00133308 0)
(0.39741 -0.00158354 0)
(0.396683 -0.00189087 0)
(0.395782 -0.00226671 0)
(0.394669 -0.00272485 0)
(0.393296 -0.00328173 0)
(0.391606 -0.00395702 0)
(0.389531 -0.004774 0)
(0.38699 -0.00575999 0)
(0.383884 -0.00694669 0)
(0.380102 -0.00837107 0)
(0.375515 -0.0100669 0)
(0.369965 -0.0120583 0)
(0.363287 -0.0143678 0)
(0.355252 -0.0169674 0)
(0.345772 -0.0199094 0)
(0.334325 -0.02275 0)
(0.400015 -0.000100155 0)
(0.400069 -0.000201845 0)
(0.400119 -0.000241931 0)
(0.400119 -0.00027546 0)
(0.400077 -0.00031338 0)
(0.400009 -0.000352523 0)
(0.399916 -0.000393866 0)
(0.399792 -0.000440896 0)
(0.399631 -0.000496687 0)
(0.399427 -0.000564051 0)
(0.399171 -0.000646096 0)
(0.398853 -0.000746319 0)
(0.398458 -0.000869299 0)
(0.397969 -0.00102046 0)
(0.397362 -0.00120577 0)
(0.396609 -0.0014322 0)
(0.395678 -0.00170824 0)
(0.394528 -0.00204413 0)
(0.393111 -0.00245203 0)
(0.39137 -0.00294631 0)
(0.389236 -0.00354381 0)
(0.386627 -0.00426438 0)
(0.383446 -0.00513114 0)
(0.379586 -0.00617517 0)
(0.374921 -0.00742097 0)
(0.369297 -0.00887962 0)
(0.362559 -0.0105683 0)
(0.354465 -0.0124372 0)
(0.345012 -0.0145952 0)
(0.333451 -0.0164866 0)
(0.400024 -0.00016534 0)
(0.400172 -0.000322751 0)
(0.400223 -0.000317228 0)
(0.400194 -0.000328206 0)
(0.400136 -0.00034986 0)
(0.400058 -0.000373401 0)
(0.399952 -0.000398465 0)
(0.399812 -0.000427112 0)
(0.399632 -0.000461219 0)
(0.399405 -0.000501913 0)
(0.399121 -0.000550825 0)
(0.398768 -0.00061371 0)
(0.398331 -0.000690944 0)
(0.397791 -0.000785461 0)
(0.397125 -0.000901568 0)
(0.396305 -0.00104404 0)
(0.395299 -0.00121811 0)
(0.394067 -0.00142993 0)
(0.39256 -0.00168707 0)
(0.390724 -0.0019988 0)
(0.388488 -0.0023762 0)
(0.385774 -0.00283227 0)
(0.38248 -0.00338179 0)
(0.378505 -0.00404077 0)
(0.373618 -0.004823 0)
(0.367695 -0.00573763 0)
(0.360609 -0.00679244 0)
(0.352058 -0.00794734 0)
(0.342352 -0.00933537 0)
(0.329055 -0.00995491 0)
(0.399645 -0.000113968 0)
(0.399345 -0.000191627 0)
(0.398877 -0.000207892 0)
(0.398328 -0.000217597 0)
(0.397754 -0.00022892 0)
(0.397161 -0.000239429 0)
(0.396539 -0.000249625 0)
(0.39588 -0.000260753 0)
(0.395178 -0.000273702 0)
(0.394427 -0.00028939 0)
(0.393615 -0.000308328 0)
(0.392728 -0.000330776 0)
(0.391749 -0.000358067 0)
(0.390657 -0.000391854 0)
(0.389424 -0.000433286 0)
(0.38802 -0.000483789 0)
(0.386405 -0.000545538 0)
(0.384532 -0.000621291 0)
(0.382345 -0.00071419 0)
(0.379776 -0.000827753 0)
(0.376742 -0.00096602 0)
(0.373146 -0.00113368 0)
(0.368871 -0.00133614 0)
(0.363786 -0.00157519 0)
(0.357749 -0.00185482 0)
(0.35059 -0.00218079 0)
(0.342124 -0.00255859 0)
(0.332159 -0.00295007 0)
(0.320677 -0.00356772 0)
(0.303647 -0.00296562 0)
(0.485034 -0.00828916 1.19496e-20)
(0.4921 -0.0128416 -1.56456e-17)
(0.498404 -0.0179208 1.57204e-17)
(0.503508 -0.0234455 7.90175e-18)
(0.507957 -0.0293598 5.96771e-18)
(0.51207 -0.0356602 1.20407e-17)
(0.515946 -0.042396 6.05016e-18)
(0.519654 -0.0496361 1.62964e-17)
(0.523274 -0.0574343 8.22756e-18)
(0.52686 -0.0658259 4.13428e-18)
(0.530427 -0.0748416 -4.18303e-18)
(0.533968 -0.0845192 8.40837e-18)
(0.53747 -0.0949089 4.27856e-18)
(0.540931 -0.106076 4.30057e-18)
(0.544353 -0.118101 8.67249e-18)
(0.547749 -0.131085 4.39937e-18)
(0.551136 -0.145153 1.32389e-17)
(0.554531 -0.160452 0)
(0.557958 -0.177167 0)
(0.56144 -0.195525 4.48829e-18)
(0.565005 -0.215807 -3.72184e-20)
(0.568685 -0.238366 4.57939e-18)
(0.572511 -0.263645 0)
(0.57652 -0.292231 9.10805e-18)
(0.580809 -0.324763 4.53313e-18)
(0.585004 -0.362661 -4.59526e-18)
(0.591152 -0.40487 4.4847e-18)
(0.590976 -0.463958 4.47403e-18)
(0.611098 -0.500729 1.29252e-17)
(0.576003 -0.640864 -4.11321e-18)
(0.491583 -0.0175768 -7.87071e-18)
(0.496045 -0.0220146 8.90757e-18)
(0.499721 -0.0273397 -8.97608e-18)
(0.502772 -0.0331087 0)
(0.505672 -0.0392251 -8.13124e-18)
(0.50863 -0.0457394 -8.18437e-18)
(0.51164 -0.0527251 -2.06408e-18)
(0.514676 -0.0602251 -1.45966e-17)
(0.517724 -0.0682567 -8.40518e-18)
(0.520761 -0.0768376 -8.51368e-18)
(0.52375 -0.0859999 4.28283e-18)
(0.526662 -0.0957918 -4.33759e-18)
(0.52948 -0.106274 -8.7265e-18)
(0.532203 -0.11752 -8.81203e-18)
(0.534832 -0.129616 -8.89912e-18)
(0.537373 -0.142664 -8.98726e-18)
(0.539826 -0.156787 -1.82126e-17)
(0.54219 -0.172134 4.58664e-18)
(0.544464 -0.188886 -4.65526e-18)
(0.546641 -0.207265 -1.40859e-17)
(0.548711 -0.227546 3.39738e-20)
(0.550662 -0.250067 -5.50136e-20)
(0.552458 -0.275256 -4.80276e-20)
(0.554077 -0.303655 -1.45575e-17)
(0.555438 -0.3359 -9.74692e-18)
(0.556312 -0.373167 -4.78276e-18)
(0.557618 -0.415104 1.20929e-19)
(0.553525 -0.47047 -1.26757e-19)
(0.565512 -0.511351 -1.40393e-17)
(0.524986 -0.639724 0)
(0.489107 -0.026354 0)
(0.492204 -0.0308056 0)
(0.494959 -0.0361974 0)
(0.497649 -0.042074 -1.0274e-18)
(0.500403 -0.0483114 9.33624e-18)
(0.503203 -0.0549376 -2.09361e-18)
(0.505975 -0.061997 2.11872e-18)
(0.508669 -0.069515 8.53602e-18)
(0.511264 -0.0775173 -2.15618e-18)
(0.513748 -0.0860443 1.08928e-17)
(0.516111 -0.0951481 4.40279e-18)
(0.518347 -0.104887 -4.46244e-18)
(0.520456 -0.115322 4.49902e-18)
(0.522436 -0.126525 -4.56308e-18)
(0.524278 -0.138579 -9.24555e-18)
(0.52597 -0.151584 9.35435e-18)
(0.527496 -0.165661 9.39934e-18)
(0.528835 -0.180956 0)
(0.52996 -0.197645 0)
(0.53084 -0.215943 9.71693e-18)
(0.531428 -0.236115 0)
(0.531667 -0.258482 1.49795e-17)
(0.531461 -0.28345 5.05356e-18)
(0.530727 -0.311517 1.0087e-17)
(0.529246 -0.343311 1.52278e-17)
(0.526828 -0.379785 5.20021e-18)
(0.523626 -0.421097 0)
(0.515721 -0.4732 2.05277e-17)
(0.518761 -0.517191 0)
(0.475004 -0.633184 9.97881e-18)
(0.486283 -0.035448 0)
(0.488823 -0.0400885 0)
(0.491092 -0.0455624 0)
(0.493439 -0.0514645 -8.41984e-18)
(0.495811 -0.0577033 0)
(0.498099 -0.0643168 0)
(0.500266 -0.0713559 0)
(0.502317 -0.0788554 8.78601e-18)
(0.504257 -0.0868479 0)
(0.506081 -0.0953732 0)
(0.507777 -0.104476 0)
(0.509334 -0.114206 -9.20789e-18)
(0.510736 -0.12462 -9.32276e-18)
(0.511962 -0.135787 -4.69968e-18)
(0.51299 -0.147789 -4.82936e-20)
(0.513795 -0.160726 -9.60899e-18)
(0.514345 -0.174717 1.60203e-20)
(0.514605 -0.189903 1.492e-17)
(0.514526 -0.206453 5.01243e-18)
(0.51405 -0.22457 -5.10152e-18)
(0.513097 -0.244503 -5.14458e-18)
(0.511571 -0.266551 -5.1541e-18)
(0.509322 -0.29109 -5.27442e-18)
(0.506209 -0.318567 1.61824e-17)
(0.501902 -0.349578 0)
(0.496242 -0.38487 -1.64832e-17)
(0.488749 -0.424926 -5.56891e-18)
(0.477121 -0.473754 2.89035e-19)
(0.471577 -0.518621 -1.68131e-17)
(0.425892 -0.62222 6.01855e-19)
(0.482461 -0.0441583 0)
(0.484436 -0.0488505 8.42646e-18)
(0.486125 -0.0543032 -1.06261e-18)
(0.487976 -0.0601831 1.82804e-17)
(0.489856 -0.0664247 0)
(0.491613 -0.0730568 0)
(0.493229 -0.0801157 8.91734e-18)
(0.494726 -0.0876263 -8.98744e-18)
(0.496103 -0.0956149 0)
(0.497338 -0.104117 0)
(0.498409 -0.113176 0)
(0.499294 -0.122844 9.44793e-18)
(0.499972 -0.133179 9.57396e-18)
(0.500418 -0.144251 -4.86185e-18)
(0.500602 -0.156143 1.4782e-17)
(0.50049 -0.16895 0)
(0.500038 -0.182784 1.02065e-17)
(0.499193 -0.197779 -1.54886e-17)
(0.497888 -0.214092 -5.24666e-18)
(0.496038 -0.231913 0)
(0.493534 -0.25147 0)
(0.490242 -0.273035 0)
(0.485969 -0.296949 0)
(0.480524 -0.323607 -5.61219e-18)
(0.473486 -0.35355 -5.78557e-18)
(0.464712 -0.387354 5.7818e-18)
(0.453222 -0.425707 5.9806e-18)
(0.43806 -0.471106 -1.19014e-17)
(0.424501 -0.515484 1.20662e-17)
(0.378033 -0.607015 -1.19014e-17)
(0.477724 -0.0524841 -8.5147e-18)
(0.479178 -0.0572387 -8.05151e-18)
(0.480327 -0.0627121 -1.63164e-18)
(0.481704 -0.0686056 -6.59141e-18)
(0.483119 -0.0748576 -1.6275e-21)
(0.484373 -0.0814867 -3.38335e-18)
(0.485452 -0.0885224 4.36018e-20)
(0.486385 -0.0959902 -9.2784e-18)
(0.487169 -0.10392 -7.06009e-18)
(0.487777 -0.112349 9.53824e-18)
(0.488182 -0.121322 0)
(0.488361 -0.13089 1.22606e-17)
(0.488289 -0.141109 -1.24489e-17)
(0.487934 -0.152046 -1.01185e-17)
(0.487258 -0.163776 1.5395e-17)
(0.486212 -0.176389 -1.56554e-17)
(0.48474 -0.189989 -5.25161e-18)
(0.482774 -0.204701 -5.48194e-18)
(0.480226 -0.220669 -5.46545e-18)
(0.476992 -0.238065 1.67813e-17)
(0.472936 -0.257094 0)
(0.467893 -0.277999 5.77028e-18)
(0.461633 -0.301079 -1.17881e-17)
(0.45392 -0.326673 1.21518e-17)
(0.44427 -0.355257 6.15634e-18)
(0.432539 -0.387261 1.26572e-17)
(0.417373 -0.423462 0)
(0.398915 -0.465207 1.32557e-17)
(0.378136 -0.507894 0)
(0.33183 -0.587745 -1.37811e-17)
(0.472075 -0.0603476 8.67804e-18)
(0.473019 -0.0651464 4.40835e-18)
(0.473636 -0.0706164 -4.46656e-18)
(0.474528 -0.0764873 3.39652e-18)
(0.475459 -0.0827054 1.36985e-21)
(0.476194 -0.0892886 1.32369e-21)
(0.47672 -0.0962654 -8.20043e-18)
(0.477077 -0.103662 2.34768e-18)
(0.477261 -0.111506 1.4478e-17)
(0.477239 -0.119836 -1.22405e-17)
(0.476979 -0.128691 2.48938e-18)
(0.476454 -0.138118 -1.26206e-17)
(0.475631 -0.148171 1.02507e-17)
(0.474471 -0.158911 1.04199e-17)
(0.472925 -0.17041 -5.25697e-18)
(0.470937 -0.182751 1.07827e-17)
(0.468438 -0.196029 0)
(0.465347 -0.210355 5.57037e-18)
(0.461561 -0.225861 5.73217e-18)
(0.456956 -0.242698 -1.16258e-17)
(0.451374 -0.261044 0)
(0.444626 -0.28111 -6.08966e-18)
(0.436451 -0.30315 1.9877e-20)
(0.426578 -0.327448 -1.26574e-17)
(0.414481 -0.354402 1.30963e-17)
(0.400003 -0.384321 -2.00665e-17)
(0.381531 -0.417979 0)
(0.360082 -0.45587 -1.39468e-17)
(0.332991 -0.495912 1.11664e-19)
(0.28753 -0.564643 1.48771e-17)
(0.465518 -0.0676407 4.45536e-18)
(0.465961 -0.0724619 -3.93517e-18)
(0.466056 -0.0779046 3.98956e-18)
(0.466463 -0.0837276 -9.26764e-18)
(0.466908 -0.0898858 -4.70973e-18)
(0.467126 -0.0963964 -1.19095e-18)
(0.467103 -0.103285 4.85115e-18)
(0.466888 -0.110576 1.10506e-17)
(0.466474 -0.118296 5.00297e-18)
(0.465821 -0.126479 -2.53296e-18)
(0.464894 -0.135164 2.57715e-18)
(0.463659 -0.144394 -2.64013e-18)