/*--------------------------------*- C++ -*----------------------------------*\
  =========                 |
  \\      /  F ield         | OpenFOAM: The Open Source CFD Toolbox
   \\    /   O peration     | Website:  https://openfoam.org
    \\  /    A nd           | Version:  11
     \\/     M anipulation  |
\*---------------------------------------------------------------------------*/
FoamFile
{
    format      ascii;
    class       volScalarField;
    location    "6.2";
    object      p;
}
// * * * * * * * * * * * * * * * * * * * * * * * * * * * * * * * * * * * * * //

dimensions      [0 2 -2 0 0 0 0];

internalField   nonuniform List<scalar> 
12600
(
0.132169
0.132078
0.132027
0.132009
0.131996
0.131981
0.131964
0.131947
0.131929
0.13191
0.131889
0.131863
0.131833
0.131796
0.13175
0.13169
0.131614
0.131513
0.131385
0.131226
0.131023
0.130762
0.130427
0.129999
0.129453
0.128762
0.127892
0.126797
0.125455
0.12375
0.1321
0.132059
0.132024
0.132007
0.131994
0.131979
0.131963
0.131947
0.13193
0.131912
0.131892
0.131868
0.131839
0.131804
0.131759
0.131704
0.131631
0.131533
0.131408
0.131255
0.131062
0.130811
0.130488
0.130074
0.129545
0.128871
0.128017
0.126941
0.125603
0.123941
0.132069
0.132054
0.132029
0.132009
0.131995
0.131982
0.131967
0.131952
0.131936
0.131918
0.131899
0.131876
0.131848
0.131815
0.131773
0.131721
0.131653
0.131565
0.131452
0.131311
0.131129
0.130895
0.130592
0.130202
0.129701
0.12906
0.128239
0.127201
0.125878
0.124245
0.132049
0.132041
0.132022
0.132005
0.131992
0.13198
0.131967
0.131953
0.131938
0.131923
0.131905
0.131885
0.13186
0.13183
0.131793
0.131747
0.131687
0.13161
0.131511
0.131385
0.131223
0.131014
0.130742
0.130389
0.129932
0.12934
0.128574
0.127593
0.126314
0.124723
0.132035
0.13203
0.132018
0.132004
0.131993
0.131982
0.13197
0.131958
0.131945
0.131931
0.131915
0.131897
0.131876
0.131851
0.13182
0.13178
0.131731
0.131667
0.131585
0.13148
0.131344
0.131166
0.130934
0.130629
0.130229
0.129705
0.129014
0.128114
0.126911
0.125396
0.132025
0.132021
0.132013
0.132002
0.131992
0.131982
0.131972
0.131961
0.13195
0.131938
0.131925
0.13191
0.131893
0.131873
0.131849
0.131819
0.131781
0.131733
0.13167
0.13159
0.131485
0.131346
0.131162
0.130917
0.130589
0.13015
0.129557
0.128768
0.127676
0.126275
0.132017
0.132015
0.132009
0.132
0.131992
0.131984
0.131974
0.131966
0.131956
0.131947
0.131936
0.131925
0.131913
0.131899
0.131882
0.131863
0.131838
0.131806
0.131766
0.131713
0.131644
0.13155
0.131422
0.131247
0.131005
0.13067
0.1302
0.129551
0.12861
0.12737
0.132012
0.13201
0.132005
0.131999
0.131992
0.131985
0.131977
0.13197
0.131962
0.131955
0.131948
0.131941
0.131933
0.131925
0.131917
0.131908
0.131897
0.131884
0.131867
0.131845
0.131814
0.13177
0.131705
0.131609
0.131466
0.131253
0.13093
0.130456
0.129711
0.128688
0.132008
0.132006
0.132003
0.131998
0.131992
0.131986
0.13198
0.131974
0.131969
0.131964
0.131959
0.131956
0.131954
0.131952
0.131952
0.131954
0.131958
0.131964
0.131971
0.131981
0.13199
0.131999
0.132002
0.131993
0.13196
0.131885
0.131734
0.131469
0.130972
0.130232
0.132004
0.132003
0.132001
0.131997
0.131992
0.131987
0.131983
0.131978
0.131975
0.131972
0.131971
0.131971
0.131973
0.131978
0.131987
0.131999
0.132017
0.132041
0.132074
0.132115
0.132166
0.132229
0.132303
0.132385
0.13247
0.132547
0.13259
0.132568
0.132371
0.13199
0.132002
0.132001
0.131999
0.131996
0.131992
0.131989
0.131985
0.131982
0.13198
0.13198
0.131981
0.131984
0.131991
0.132002
0.132018
0.132041
0.132072
0.132114
0.13217
0.132242
0.132334
0.132451
0.132595
0.132771
0.132979
0.133217
0.133469
0.13372
0.133873
0.133927
0.132001
0.132
0.131998
0.131996
0.131993
0.13199
0.131987
0.131985
0.131985
0.131986
0.13199
0.131996
0.132007
0.132023
0.132046
0.132078
0.132121
0.132179
0.132256
0.132357
0.132487
0.132654
0.132867
0.133134
0.133464
0.133865
0.134337
0.134879
0.135426
0.135985
0.131999
0.131999
0.131997
0.131995
0.131993
0.131991
0.131989
0.131988
0.131989
0.131991
0.131996
0.132005
0.132019
0.13204
0.132068
0.132108
0.132161
0.132233
0.132329
0.132454
0.132618
0.13283
0.133105
0.133456
0.133901
0.134461
0.135151
0.135991
0.136956
0.138072
0.131999
0.131998
0.131997
0.131995
0.131993
0.131991
0.13199
0.13199
0.131991
0.131995
0.132001
0.132012
0.132028
0.132052
0.132084
0.13213
0.132191
0.132273
0.132383
0.132528
0.132719
0.13297
0.133296
0.13372
0.134267
0.134969
0.135862
0.136988
0.13837
0.14006
0.131998
0.131998
0.131997
0.131995
0.131993
0.131992
0.131991
0.131991
0.131993
0.131997
0.132004
0.132015
0.132033
0.132058
0.132093
0.132142
0.132208
0.132298
0.132417
0.132576
0.132786
0.133064
0.133429
0.133909
0.134537
0.135356
0.136421
0.137798
0.139562
0.141797
0.131999
0.131998
0.131997
0.131995
0.131993
0.131991
0.131991
0.131991
0.131993
0.131997
0.132004
0.132016
0.132033
0.132059
0.132095
0.132145
0.132212
0.132304
0.132428
0.132593
0.132813
0.133106
0.133494
0.134009
0.13469
0.135591
0.136781
0.13835
0.140421
0.143112
0.131999
0.131998
0.131997
0.131995
0.131993
0.131991
0.13199
0.13199
0.131991
0.131995
0.132001
0.132012
0.132029
0.132053
0.132088
0.132136
0.132203
0.132293
0.132415
0.132578
0.132798
0.133092
0.133485
0.134009
0.134711
0.135648
0.136903
0.138581
0.140845
0.143843
0.132
0.131999
0.131998
0.131995
0.131993
0.13199
0.131989
0.131988
0.131988
0.131991
0.131996
0.132006
0.13202
0.132042
0.132074
0.132118
0.132179
0.132263
0.132377
0.132531
0.132739
0.13302
0.133397
0.133905
0.134589
0.135512
0.136761
0.138448
0.140759
0.143859
0.132001
0.132
0.131998
0.131996
0.131993
0.13199
0.131987
0.131986
0.131985
0.131986
0.131989
0.131996
0.132008
0.132026
0.132052
0.13209
0.132143
0.132216
0.132316
0.132453
0.132639
0.132891
0.133232
0.133696
0.134324
0.135178
0.136344
0.137932
0.140123
0.143091
0.132003
0.132002
0.132
0.131996
0.131992
0.131989
0.131985
0.131982
0.13198
0.131979
0.13198
0.131984
0.131991
0.132004
0.132024
0.132053
0.132094
0.132153
0.132234
0.132346
0.132499
0.132709
0.132996
0.133388
0.133924
0.134656
0.135663
0.137046
0.13895
0.141538
0.132005
0.132004
0.132001
0.131997
0.131992
0.131987
0.131983
0.131978
0.131974
0.131971
0.131969
0.131969
0.131972
0.131979
0.13199
0.132008
0.132036
0.132076
0.132134
0.132214
0.132327
0.132483
0.132698
0.132995
0.133404
0.133968
0.134745
0.135806
0.1373
0.139304
0.132008
0.132007
0.132003
0.131998
0.131992
0.131986
0.13198
0.131974
0.131968
0.131962
0.131957
0.131953
0.131951
0.13195
0.131953
0.131959
0.131971
0.13199
0.13202
0.132064
0.132129
0.132221
0.132351
0.132534
0.13279
0.133147
0.133644
0.134328
0.135276
0.136534
0.132013
0.132011
0.132006
0.132
0.131992
0.131985
0.131978
0.13197
0.131961
0.131953
0.131945
0.131936
0.131928
0.13192
0.131913
0.131906
0.131901
0.131898
0.131898
0.131902
0.131914
0.131936
0.131972
0.132029
0.132113
0.132239
0.13242
0.132673
0.133008
0.133427
0.132018
0.132016
0.13201
0.132002
0.131993
0.131984
0.131975
0.131965
0.131955
0.131944
0.131932
0.131919
0.131905
0.13189
0.131872
0.131853
0.13183
0.131804
0.131773
0.131737
0.131693
0.131642
0.13158
0.131505
0.13141
0.131294
0.131144
0.130943
0.130642
0.130202
0.132026
0.132023
0.132015
0.132004
0.131994
0.131984
0.131973
0.131961
0.131949
0.131935
0.13192
0.131903
0.131883
0.13186
0.131833
0.1318
0.13176
0.131711
0.13165
0.131574
0.131476
0.131353
0.131193
0.130986
0.130717
0.130362
0.129885
0.12924
0.128325
0.127066
0.132036
0.132031
0.13202
0.132006
0.131995
0.131984
0.131972
0.131959
0.131944
0.131928
0.13191
0.131889
0.131864
0.131834
0.131798
0.131753
0.131697
0.131627
0.131537
0.131423
0.131275
0.131084
0.130834
0.130505
0.130071
0.129492
0.128712
0.12766
0.126192
0.124202
0.13205
0.132042
0.132025
0.132008
0.131995
0.131983
0.13197
0.131955
0.131939
0.131921
0.1319
0.131875
0.131846
0.13181
0.131766
0.13171
0.131641
0.131552
0.131437
0.13129
0.131098
0.130847
0.130518
0.130082
0.129504
0.12873
0.127688
0.126287
0.124353
0.121753
0.13207
0.132056
0.132031
0.132012
0.131999
0.131986
0.131971
0.131954
0.131937
0.131918
0.131894
0.131866
0.131833
0.131793
0.131742
0.131678
0.131597
0.131493
0.131358
0.131183
0.130955
0.130657
0.130265
0.129744
0.12905
0.128118
0.126865
0.125189
0.1229
0.119839
0.132101
0.132061
0.132026
0.13201
0.131999
0.131985
0.131969
0.131953
0.131934
0.131913
0.131888
0.131858
0.131823
0.131779
0.131723
0.131653
0.131564
0.131449
0.131299
0.131105
0.13085
0.130515
0.130076
0.129499
0.128727
0.127686
0.126284
0.124414
0.121899
0.118538
0.13217
0.13208
0.13203
0.132013
0.132002
0.131987
0.13197
0.131953
0.131934
0.131913
0.131887
0.131856
0.131819
0.131773
0.131716
0.131642
0.131549
0.131428
0.13127
0.131065
0.130797
0.130444
0.129978
0.129364
0.128542
0.127435
0.125955
0.12398
0.121353
0.117835
0.122256
0.121441
0.120985
0.120741
0.120474
0.120108
0.119728
0.119357
0.118979
0.118586
0.118176
0.117747
0.117296
0.116812
0.116286
0.115705
0.115051
0.114303
0.113434
0.112408
0.111175
0.109667
0.107785
0.105393
0.102269
0.0981553
0.0924455
0.0843501
0.0748589
0.049023
0.122793
0.12228
0.121881
0.121574
0.121293
0.120978
0.12061
0.120264
0.119943
0.119623
0.119295
0.118959
0.118608
0.118237
0.117837
0.117399
0.116909
0.116353
0.115711
0.114954
0.114044
0.11293
0.111535
0.109755
0.107414
0.104316
0.099931
0.0939697
0.0855996
0.0668766
0.122878
0.12255
0.122288
0.122042
0.121787
0.121541
0.121293
0.121061
0.120843
0.120625
0.120403
0.120178
0.11995
0.119713
0.119463
0.119195
0.1189
0.118569
0.118188
0.117739
0.117196
0.116521
0.11566
0.114539
0.113026
0.110978
0.107966
0.103899
0.0972706
0.0846311
0.123317
0.123172
0.123071
0.122901
0.12271
0.122536
0.122379
0.122234
0.1221
0.121975
0.12186
0.121755
0.12166
0.121573
0.121492
0.121414
0.121337
0.121255
0.121163
0.12105
0.120903
0.120698
0.120401
0.119964
0.119294
0.118291
0.116615
0.114279
0.10961
0.102027
0.123992
0.123975
0.123989
0.123889
0.123762
0.12367
0.123611
0.123571
0.123547
0.123542
0.123559
0.123597
0.123659
0.123745
0.123856
0.123994
0.124161
0.124358
0.124583
0.124837
0.125115
0.125409
0.125701
0.125965
0.12614
0.126162
0.125769
0.125029
0.122342
0.118844
0.124897
0.125
0.125132
0.125122
0.125082
0.125092
0.125145
0.125221
0.12532
0.125446
0.125606
0.125801
0.126035
0.126312
0.126635
0.127011
0.127445
0.127942
0.128509
0.129153
0.129877
0.130685
0.131575
0.132535
0.133535
0.134532
0.135337
0.136029
0.13519
0.134837
0.126051
0.126275
0.12653
0.126618
0.126676
0.126794
0.126967
0.12717
0.127404
0.127677
0.127997
0.128368
0.128793
0.129281
0.129837
0.130471
0.131191
0.132009
0.132935
0.133982
0.135163
0.136489
0.137969
0.139606
0.141386
0.143284
0.145167
0.147095
0.147886
0.149818
0.127478
0.127826
0.128207
0.128405
0.12857
0.128808
0.129113
0.129457
0.12984
0.130275
0.130769
0.131329
0.131962
0.132675
0.133479
0.134384
0.135405
0.136553
0.137846
0.1393
0.140934
0.142765
0.144809
0.147077
0.149568
0.152264
0.155074
0.158012
0.160151
0.163626
0.129196
0.129669
0.13018
0.130495
0.130777
0.131145
0.131591
0.132086
0.13263
0.133237
0.133917
0.134678
0.135528
0.136477
0.137538
0.138723
0.140047
0.141528
0.143184
0.145035
0.147102
0.149407
0.151969
0.154802
0.15791
0.161278
0.164835
0.168546
0.17173
0.176084
0.131205
0.131804
0.132445
0.132882
0.133291
0.133797
0.134391
0.135045
0.135756
0.136543
0.137416
0.138383
0.139455
0.140643
0.14196
0.143422
0.145045
0.146846
0.148847
0.151068
0.153533
0.156261
0.159274
0.162585
0.166195
0.170086
0.174193
0.178436
0.182343
0.186996
0.133487
0.134207
0.134971
0.135534
0.136076
0.136723
0.137468
0.138282
0.139164
0.140131
0.141196
0.142368
0.143658
0.145078
0.146642
0.148367
0.150268
0.152365
0.154678
0.157228
0.160035
0.16312
0.166498
0.170179
0.174158
0.178406
0.182852
0.187383
0.191648
0.196089
0.135982
0.136815
0.137689
0.138377
0.139053
0.13984
0.140733
0.141703
0.14275
0.14389
0.145139
0.146505
0.147999
0.149633
0.151423
0.153384
0.155532
0.157885
0.160463
0.163283
0.166364
0.169722
0.173366
0.177298
0.181503
0.185938
0.190516
0.195092
0.199344
0.203215
0.13859
0.139518
0.140485
0.141289
0.142094
0.143014
0.144044
0.145157
0.146355
0.147654
0.149068
0.150606
0.152279
0.1541
0.156082
0.158241
0.160591
0.163149
0.165931
0.168953
0.172228
0.175766
0.179571
0.183633
0.187925
0.192389
0.196923
0.201348
0.205349
0.208657
0.141154
0.142156
0.14319
0.144097
0.145019
0.146056
0.147203
0.14844
0.149767
0.151199
0.15275
0.15443
0.156248
0.158217
0.160348
0.162656
0.165154
0.167856
0.170775
0.173922
0.177306
0.18093
0.184791
0.188868
0.193123
0.197485
0.201838
0.205979
0.209627
0.21233
0.14347
0.144519
0.145592
0.14658
0.147599
0.14873
0.149969
0.1513
0.152725
0.154258
0.155911
0.157693
0.159613
0.161683
0.163913
0.166315
0.1689
0.17168
0.174664
0.177859
0.181269
0.18489
0.18871
0.1927
0.196812
0.200961
0.205017
0.20876
0.211907
0.213817
0.1453
0.146368
0.147452
0.148493
0.149582
0.150777
0.152074
0.153464
0.15495
0.156544
0.158257
0.160096
0.162071
0.164191
0.166465
0.168903
0.171514
0.174307
0.177286
0.180455
0.183813
0.187349
0.191044
0.19486
0.198738
0.202579
0.206238
0.20947
0.211988
0.213152
0.146406
0.147466
0.148534
0.149596
0.150721
0.151944
0.153263
0.154673
0.156179
0.157791
0.159518
0.161367
0.163346
0.165463
0.167727
0.170144
0.172721
0.175464
0.178374
0.181451
0.184688
0.188069
0.191566
0.195135
0.198705
0.202167
0.205367
0.208044
0.209937
0.210303
0.146592
0.147619
0.14865
0.1497
0.15082
0.152032
0.153334
0.154724
0.156207
0.157793
0.159488
0.161299
0.163233
0.165297
0.167497
0.169838
0.172325
0.174961
0.177744
0.180671
0.183729
0.186898
0.190146
0.193419
0.196639
0.199686
0.2024
0.204496
0.205774
0.204959
0.145743
0.146714
0.147692
0.148696
0.14977
0.150931
0.152176
0.153505
0.154924
0.156439
0.158058
0.159786
0.161629
0.163592
0.165681
0.167898
0.170248
0.172729
0.175338
0.178068
0.180903
0.183819
0.186776
0.189716
0.192551
0.19515
0.197348
0.198813
0.199485
0.1973
0.143859
0.144756
0.145666
0.146593
0.147581
0.148652
0.149804
0.151035
0.152349
0.153754
0.155256
0.156859
0.158569
0.160388
0.162322
0.164372
0.16654
0.168823
0.171215
0.173705
0.176274
0.178893
0.181517
0.18408
0.18649
0.188604
0.19026
0.19106
0.191176
0.187688
0.141068
0.14187
0.142697
0.143516
0.144381
0.145325
0.146348
0.147446
0.148619
0.149876
0.151221
0.152658
0.154193
0.155827
0.157563
0.159403
0.161345
0.163385
0.165515
0.167721
0.169981
0.172261
0.174512
0.176662
0.178612
0.180204
0.181286
0.181356
0.180866
0.175849
0.137578
0.138263
0.138987
0.13967
0.140377
0.14116
0.142023
0.142953
0.143951
0.145023
0.146175
0.147411
0.148733
0.150144
0.151644
0.153234
0.154911
0.156668
0.158497
0.160378
0.162288
0.164188
0.166024
0.167715
0.169157
0.170169
0.17061
0.169836
0.16863
0.161761
0.133666
0.134209
0.134807
0.135327
0.135849
0.136444
0.137118
0.137853
0.138645
0.139502
0.140431
0.141433
0.14251
0.143663
0.144892
0.146196
0.14757
0.149007
0.150493
0.152008
0.153524
0.154997
0.156367
0.157544
0.158412
0.158763
0.158466
0.156694
0.154573
0.145798
0.12963
0.130002
0.130446
0.13078
0.131096
0.131482
0.131942
0.132455
0.133017
0.133633
0.134309
0.135049
0.135852
0.136717
0.137644
0.138629
0.139667
0.140746
0.141851
0.142959
0.144036
0.145033
0.145881
0.14648
0.146702
0.146302
0.145162
0.142262
0.139075
0.128164
0.125739
0.125913
0.126171
0.126301
0.126398
0.126557
0.126784
0.127056
0.127366
0.12772
0.128123
0.128577
0.129081
0.129633
0.130231
0.130869
0.13154
0.132229
0.132919
0.133581
0.134176
0.134647
0.134919
0.134874
0.134372
0.133128
0.131036
0.126869
0.122467
0.108965
0.122224
0.122169
0.122209
0.122117
0.121982
0.121899
0.121875
0.121887
0.121926
0.121999
0.122111
0.122261
0.122447
0.122666
0.122914
0.123183
0.123463
0.123737
0.123982
0.124166
0.124242
0.124145
0.123788
0.123038
0.121737
0.119553
0.116391
0.110785
0.105003
0.0883366
0.119248
0.118937
0.118733
0.118417
0.118054
0.117726
0.11744
0.117179
0.116937
0.116718
0.116523
0.116353
0.116206
0.116076
0.115958
0.115842
0.115713
0.115551
0.115329
0.115008
0.114533
0.113831
0.112798
0.111284
0.109109
0.105885
0.101526
0.094281
0.0869528
0.0664675
0.11695
0.116306
0.115786
0.11523
0.114639
0.11406
0.113483
0.112924
0.11239
0.111873
0.111366
0.110867
0.110378
0.109891
0.109399
0.108887
0.10834
0.107733
0.107032
0.106192
0.10515
0.10382
0.102082
0.0997628
0.0966583
0.0923146
0.0866524
0.0775789
0.0686167
0.0435813
0.115582
0.114542
0.113666
0.112854
0.112108
0.11134
0.110437
0.109543
0.108696
0.107864
0.107027
0.106187
0.105345
0.104494
0.10362
0.102708
0.101738
0.100679
0.0994915
0.0981216
0.0964955
0.0945118
0.092035
0.088861
0.084759
0.079197
0.07211
0.0609375
0.0504077
0.0198448
0.114341
0.112793
0.111613
0.110676
0.109688
0.108548
0.107384
0.106243
0.105105
0.103954
0.102786
0.101605
0.100406
0.0991814
0.0979197
0.0966024
0.0952051
0.0936951
0.0920269
0.0901381
0.0879436
0.0853259
0.0821281
0.0781153
0.0730253
0.0662303
0.0577436
0.0441148
0.0327405
-0.00464607
-0.0288665
-0.0540261
-0.0808199
-0.107831
-0.134097
-0.159444
-0.18346
-0.20588
-0.225883
-0.243208
-0.257462
-0.268106
-0.274395
-0.27633
-0.273715
-0.265854
-0.252437
-0.233474
-0.209543
-0.181779
-0.155124
-0.133275
-0.119863
-0.113465
-0.112035
-0.11319
-0.113568
-0.113026
-0.111607
-0.110143
0.0160007
-0.00575748
-0.029499
-0.0529522
-0.0761223
-0.0988944
-0.120916
-0.141951
-0.161654
-0.179763
-0.195527
-0.208498
-0.217251
-0.221344
-0.222142
-0.219007
-0.210469
-0.196513
-0.178461
-0.157501
-0.136737
-0.121488
-0.113772
-0.111899
-0.112728
-0.111981
-0.109347
-0.107592
-0.108282
-0.108699
0.0276267
0.00730242
-0.0150895
-0.0378208
-0.0604505
-0.0825633
-0.104321
-0.125448
-0.145638
-0.164091
-0.180056
-0.192916
-0.201995
-0.206928
-0.208124
-0.205104
-0.197104
-0.184553
-0.168622
-0.15147
-0.134223
-0.121786
-0.115539
-0.114138
-0.113789
-0.112069
-0.110408
-0.109261
-0.110171
-0.105588
0.0447768
0.0266149
0.00612981
-0.0145235
-0.0350269
-0.0557426
-0.076886
-0.097828
-0.11784
-0.136226
-0.152352
-0.165598
-0.17538
-0.181264
-0.18318
-0.180971
-0.174527
-0.164382
-0.151743
-0.138264
-0.125794
-0.116994
-0.112032
-0.109128
-0.107045
-0.105316
-0.105053
-0.105205
-0.104914
-0.100982
0.0548188
0.0384079
0.0195529
0.000550713
-0.0185965
-0.038389
-0.0587188
-0.078957
-0.0984491
-0.116628
-0.13289
-0.146582
-0.157076
-0.163872
-0.166757
-0.165694
-0.160774
-0.152527
-0.142076
-0.130971
-0.120897
-0.113281
-0.108226
-0.10491
-0.102688
-0.101073
-0.0998408
-0.0989255
-0.0973468
-0.0968405
0.0631291
0.0482948
0.0309733
0.0133618
-0.00458801
-0.0233858
-0.0428912
-0.062519
-0.0816482
-0.099703
-0.116054
-0.130014
-0.140936
-0.148308
-0.151875
-0.151626
-0.147772
-0.14092
-0.132174
-0.122956
-0.114614
-0.108046
-0.103369
-0.100119
-0.0977408
-0.0958208
-0.0941176
-0.0926785
-0.0917411
-0.0924654
0.0693784
0.0559038
0.0399717
0.0236655
0.00691151
-0.0108224
-0.0294386
-0.0483836
-0.0670471
-0.084847
-0.10115
-0.115267
-0.126538
-0.134443
-0.138698
-0.139293
-0.1365
-0.130962
-0.123716
-0.116001
-0.108916
-0.103137
-0.0987712
-0.0954821
-0.0928256
-0.0905183
-0.0884986
-0.0869519
-0.0860575
-0.0864349
0.0743642
0.062056
0.0473584
0.0322117
0.0165134
-0.000274661
-0.0180805
-0.0363758
-0.0545675
-0.0720846
-0.0883023
-0.10253
-0.114099
-0.122471
-0.12734
-0.128688
-0.126812
-0.122358
-0.116291
-0.109706
-0.103539
-0.0983345
-0.0941748
-0.0908114
-0.0879364
-0.0853932
-0.0831836
-0.0814359
-0.0801213
-0.0795641
0.078375
0.0670711
0.0534563
0.0393445
0.0246028
0.00868959
-0.00834628
-0.0260084
-0.0437288
-0.0609514
-0.0770567
-0.091352
-0.103157
-0.111919
-0.117314
-0.119317
-0.118228
-0.11468
-0.109572
-0.103885
-0.098428
-0.0936577
-0.0896471
-0.0862254
-0.0831921
-0.08046
-0.0780258
-0.0759613
-0.0741678
-0.0730106
0.0816854
0.0712435
0.0585712
0.0453763
0.0314973
0.016386
6.91687e-05
-0.0169894
-0.0342494
-0.0511714
-0.0671433
-0.0814719
-0.0934693
-0.10257
-0.108434
-0.111023
-0.110628
-0.107857
-0.103548
-0.0985834
-0.0936777
-0.0892288
-0.0853156
-0.0818311
-0.0786476
-0.0757157
-0.073024
-0.0706328
-0.068413
-0.0668294
0.08448
0.0747766
0.0629215
0.0505371
0.0374334
0.0230515
0.00739633
-0.00909817
-0.0259189
-0.0425453
-0.0583751
-0.0727165
-0.0848756
-0.0942742
-0.100556
-0.103665
-0.103875
-0.101765
-0.0981136
-0.0937255
-0.0892425
-0.0850268
-0.0811692
-0.0776117
-0.0742771
-0.0711418
-0.0682009
-0.0655107
-0.062916
-0.0609574
0.0868958
0.0778252
0.0666768
0.0550062
0.0425971
0.0288758
0.0138261
-0.00214563
-0.0185527
-0.0348949
-0.0505814
-0.0649232
-0.0772206
-0.0868829
-0.0935371
-0.0971072
-0.0978458
-0.0962987
-0.0931938
-0.0892692
-0.0851142
-0.0810673
-0.077233
-0.0735925
-0.0701078
-0.0667789
-0.0636014
-0.0606391
-0.0577117
-0.0554292
0.0890326
0.0805051
0.0699667
0.0589239
0.0471359
0.0340112
0.0195127
0.00402167
-0.0120006
-0.0280747
-0.0436226
-0.0579586
-0.070378
-0.0802775
-0.0872662
-0.0912476
-0.09245
-0.0913858
-0.088736
-0.0851842
-0.0812807
-0.0773487
-0.0735078
-0.0697727
-0.0661375
-0.0626219
-0.0592249
-0.0560223
-0.0528144
-0.0502813
0.0909642
0.0829048
0.0728926
0.0624012
0.0511672
0.03858
0.0245811
0.00952859
-0.00613982
-0.0219656
-0.0373843
-0.0517141
-0.0642451
-0.0743615
-0.0816539
-0.0860038
-0.0876139
-0.0869641
-0.0846924
-0.0814385
-0.0777231
-0.0738611
-0.0699884
-0.0661497
-0.0623664
-0.058676
-0.0550838
-0.0516809
-0.048252
-0.0455486
0.0927453
0.085092
0.0755334
0.0655262
0.0547859
0.0426815
0.0291334
0.0144786
-0.000867921
-0.0164679
-0.0317703
-0.0460977
-0.0587352
-0.0690536
-0.0766245
-0.0813063
-0.0832755
-0.082981
-0.0810229
-0.0780044
-0.0744244
-0.0705949
-0.0666693
-0.0627201
-0.0587932
-0.0549434
-0.0511846
-0.0476256
-0.0440372
-0.0412427
0.0944161
0.0871189
0.0779523
0.0683698
0.0580688
0.0463972
0.0332545
0.0189578
0.00390112
-0.0114972
-0.0266993
-0.0410319
-0.0537749
-0.0642852
-0.0721142
-0.0770968
-0.0793835
-0.0793945
-0.0776939
-0.0748575
-0.0713677
-0.0675384
-0.0635422
-0.0594777
-0.0554142
-0.0514242
-0.0475317
-0.0438639
-0.0401783
-0.037368
0.0960089
0.0890092
0.0801946
0.0709871
0.0610778
0.0497937
0.0370147
0.0230388
0.00823986
-0.00698221
-0.0221023
-0.0364509
-0.0493024
-0.0599985
-0.0680696
-0.0733269
-0.0758948
-0.076167
-0.0746757
-0.0719754
-0.0685365
-0.0646797
-0.0605981
-0.0564159
-0.0522255
-0.0481175
-0.0441274
-0.0404001
-0.036678
-0.0339201
0.0975516
0.0908243
0.0823005
0.0734237
0.0638637
0.0529263
0.0404727
0.0267824
0.01221
-0.00286219
-0.0179204
-0.0322986
-0.0452647
-0.0561444
-0.0644453
-0.0699549
-0.0727734
-0.0732684
-0.071944
-0.0693383
-0.0659156
-0.0620069
-0.0578277
-0.0535277
-0.0492224
-0.0450217
-0.0409729
-0.0372361
-0.0335361
-0.03089
0.0990575
0.0925729
0.084304
0.0757179
0.0664684
0.0558408
0.0436779
0.0302406
0.0158641
0.000915059
-0.014103
-0.0285266
-0.0416169
-0.0526812
-0.061203
-0.0669456
-0.0699883
-0.0706723
-0.0694772
-0.0669284
-0.0634905
-0.0595085
-0.0552217
-0.0508058
-0.0464001
-0.0421343
-0.0380683
-0.034373
-0.0307519
-0.0282667
0.100539
0.0942742
0.0862309
0.0779011
0.0689271
0.0585757
0.0466724
0.0334576
0.0192476
0.00439454
-0.0106065
-0.0250936
-0.0383205
-0.0495734
-0.0583103
-0.0642698
-0.0675118
-0.0683539
-0.0672545
-0.064729
-0.0612473
-0.0571732
-0.0527711
-0.0482431
-0.0437537
-0.0394531
-0.0354134
-0.0318105
-0.028322
-0.0260369
0.102003
0.095942
0.0881018
0.0799993
0.0712686
0.0611633
0.0494917
0.0364718
0.0223998
0.00761525
-0.00739301
-0.0219636
-0.0353423
-0.0467908
-0.0557398
-0.0619029
-0.0653185
-0.0662957
-0.0652607
-0.0627265
-0.0591742
-0.0549905
-0.0504671
-0.0458328
-0.0412788
-0.0369768
-0.0330097
-0.0295492
-0.0262409
-0.0241811
0.103451
0.0975853
0.0899337
0.0820348
0.0735176
0.0636304
0.0521662
0.0393162
0.025355
0.0106114
-0.00442961
-0.0191056
-0.032654
-0.0443065
-0.0534657
-0.0598193
-0.0633936
-0.0644764
-0.0634762
-0.0609034
-0.0572572
-0.0529498
-0.0483014
-0.0435684
-0.0389716
-0.034705
-0.0308611
-0.0275961
-0.0245114
-0.0226821
0.10488
0.099208
0.0917402
0.0840263
0.0756947
0.0660003
0.0547219
0.042019
0.0281434
0.0134137
-0.00168658
-0.0164933
-0.0302359
-0.0421066
-0.0514796
-0.0580138
-0.0617353
-0.0629052
-0.0619114
-0.059266
-0.0554968
-0.0510467
-0.0462664
-0.0414423
-0.0368262
-0.0326344
-0.0289663
-0.0259503
-0.0231339
-0.0215337
0.106285
0.10081
0.0935311
0.085989
0.0778173
0.0682937
0.0571819
0.0446044
0.0307899
0.0160481
0.000866732
-0.0140883
-0.0280452
-0.0401433
-0.0497299
-0.0564287
-0.0602596
-0.0614863
-0.0604748
-0.0577427
-0.0538453
-0.0492532
-0.0443464
-0.0394445
-0.0348371
-0.0307634
-0.0273228
-0.0245944
-0.0220642
-0.0206937
0.107662
0.10239
0.0953141
0.0879338
0.0798972
0.0705272
0.0595693
0.0470979
0.0333146
0.0185194
0.00321063
-0.0119291
-0.0261333
-0.0384912
-0.0483014
-0.0551967
-0.0591949
-0.0604448
-0.0593552
-0.0564714
-0.0523888
-0.0476149
-0.0425639
-0.0375843
-0.0330115
-0.0291074
-0.0259615
-0.0235622
-0.0212997
-0.0200889
0.108995
0.10395
0.0971004
0.0898729
0.0819426
0.072707
0.0619006
0.0495434
0.0358052
0.020965
0.00552379
-0.00984106
-0.0242711
-0.0368921
-0.0468948
-0.0538142
-0.0579493
-0.0592908
-0.0581552
-0.0551525
-0.0509189
-0.0459922
-0.0408364
-0.0358253
-0.0313391
-0.0276714
-0.0249048
-0.0229194
-0.0209924
-0.0198437
0.110252
0.105477
0.0988994
0.0918216
0.0839698
0.0748107
0.0640808
0.0517549
0.0379737
0.023032
0.00740265
-0.00824268
-0.0229647
-0.035932
-0.0462788
-0.05355
-0.0575625
-0.0587859
-0.0574804
-0.0542496
-0.0497728
-0.0446148
-0.0392591
-0.0341712
-0.02977
-0.0263762
-0.0240337
-0.0224764
-0.0209874
-0.0201532
0.111418
0.106936
0.100714
0.0938469
0.0861745
0.0772067
0.0666506
0.0544277
0.0406526
0.0256283
0.00982473
-0.00604582
-0.0210447
-0.0342757
-0.0447105
-0.0521196
-0.0565616
-0.0578908
-0.0564827
-0.0530804
-0.0484188
-0.0430873
-0.0375813
-0.0324592
-0.0281995
-0.0252084
-0.0234211
-0.0222038
-0.0208035
-0.0200704
0.112466
0.108293
0.102251
0.0953581
0.087617
0.0786689
0.0681383
0.0558826
0.0419878
0.0267576
0.0106904
-0.00549071
-0.0208169
-0.0343943
-0.0449793
-0.0522648
-0.0565881
-0.0577707
-0.0561243
-0.052456
-0.0475464
-0.0420054
-0.0363716
-0.0312506
-0.0271641
-0.0246926
-0.0237213
-0.0232384
-0.0221971
-0.0209482
0.113561
0.110169
0.104885
0.098387
0.0908825
0.0821479
0.0718301
0.0597202
0.0458258
0.0304221
0.0140128
-0.00265721
-0.0185809
-0.0327198
-0.0439249
-0.0516928
-0.0562266
-0.0573088
-0.0554142
-0.0513729
-0.046037
-0.0401038
-0.0341899
-0.0289992
-0.0252476
-0.0234968
-0.0231587
-0.0228442
-0.021938
-0.0211779
0.000790118
-0.00627102
-0.0186654
-0.0301991
-0.0202916
0.0100819
0.0348664
0.0520981
0.0655673
0.0760832
0.0844091
0.0911808
0.0968677
0.101792
0.106147
0.110062
0.113631
0.116911
0.119932
0.122715
0.125276
0.127627
0.129801
0.131793
0.133713
0.135474
0.137368
0.138999
0.141327
0.14092
-0.000660588
-0.0123406
-0.0311973
-0.0453354
-0.038107
-0.00683087
0.0247291
0.0460461
0.0616596
0.0733134
0.0824193
0.0896836
0.0956785
0.100816
0.105308
0.109308
0.112936
0.116277
0.119376
0.122259
0.124934
0.127401
0.129677
0.131733
0.133627
0.135274
0.136864
0.138051
0.139512
0.140149
0.000929051
-0.0142554
-0.0390213
-0.0581939
-0.0566747
-0.0268229
0.00960458
0.0373631
0.0560592
0.0694278
0.0798438
0.0878435
0.0942009
0.0995579
0.1042
0.108298
0.111997
0.115401
0.118566
0.121548
0.124351
0.126978
0.12943
0.131684
0.133755
0.135602
0.137306
0.138774
0.140213
0.141511
0.00500557
-0.0112731
-0.0398622
-0.0649988
-0.0710774
-0.0471879
-0.00725797
0.0276608
0.0507119
0.0665796
0.0785906
0.0874995
0.0942425
0.0997078
0.104338
0.108403
0.112079
0.11544
0.118608
0.121633
0.1245
0.127243
0.12985
0.132313
0.134628
0.136771
0.138751
0.140542
0.142156
0.143549
0.00960088
-0.00502324
-0.0337927
-0.0637519
-0.0754895
-0.0618149
-0.0249421
0.0145605
0.0444124
0.0645774
0.0782304
0.0880521
0.0952612
0.100867
0.105408
0.109271
0.112712
0.115903
0.118952
0.121858
0.124696
0.127473
0.130147
0.132738
0.135222
0.137577
0.139787
0.141829
0.143701
0.145335
0.011797
0.000434298
-0.0234006
-0.053575
-0.0707398
-0.0653515
-0.0372513
0.0013972
0.0359754
0.0612168
0.0784711
0.0896939
0.097307
0.102967
0.107377
0.110988
0.114102
0.11692
0.119589
0.1222
0.12484
0.127502
0.130162
0.132801
0.135404
0.137944
0.140397
0.142731
0.144948
0.146958
0.00816304
0.00178924
-0.0152936
-0.0385457
-0.057705
-0.0589558
-0.0398118
-0.00670842
0.0281988
0.056982
0.0779608
0.0922359
0.101448
0.107274
0.111176
0.114193
0.116747
0.119063
0.12123
0.123331
0.125479
0.127766
0.130188
0.132712
0.135308
0.137954
0.140606
0.143217
0.145784
0.148184
-0.00323154
-0.0033302
-0.0138887
-0.0286607
-0.0424753
-0.0468654
-0.0353205
-0.00958067
0.0231732
0.0534247
0.0779058
0.0951125
0.106322
0.113562
0.117867
0.120163
0.121513
0.122706
0.123961
0.125439
0.126986
0.128756
0.130695
0.132817
0.13515
0.137678
0.140337
0.14309
0.14593
0.148672
-0.0227786
-0.015845
-0.0210339
-0.029184
-0.036769
-0.0376676
-0.0292716
-0.0103382
0.0176548
0.0476739
0.0746819
0.096114
0.111213
0.120576
0.125868
0.128711
0.129984
0.130103
0.12954
0.129022
0.129074
0.129867
0.131143
0.13273
0.13468
0.136956
0.139373
0.142066
0.145064
0.148097
-0.050871
-0.0357748
-0.0366603
-0.0398272
-0.0428154
-0.0412291
-0.0323744
-0.0152378
0.00825459
0.0360152
0.063552
0.0879882
0.107939
0.122678
0.132052
0.136928
0.138801
0.139131
0.138687
0.137627
0.136159
0.134506
0.133092
0.132631
0.133846
0.135547
0.137198
0.139523
0.1425
0.145589
-0.0845546
-0.0610915
-0.0592008
-0.0587178
-0.0588789
-0.0556738
-0.0469608
-0.0319802
-0.0105174
0.0153361
0.0427961
0.0688432
0.091567
0.110172
0.124764
0.135365
0.141745
0.144485
0.144653
0.143463
0.141974
0.140323
0.138516
0.13726
0.136102
0.134511
0.133823
0.135122
0.137449
0.13955
-0.11946
-0.0898832
-0.0865142
-0.0832476
-0.0817119
-0.0777437
-0.0697062
-0.0565254
-0.0382755
-0.0154744
0.0102445
0.0368373
0.062216
0.0847148
0.103331
0.117951
0.128862
0.136597
0.141028
0.142712
0.142679
0.141228
0.138946
0.136945
0.135435
0.133769
0.132469
0.132258
0.131893
0.131292
-0.15407
-0.11979
-0.116314
-0.110777
-0.108532
-0.104569
-0.0974896
-0.0861872
-0.0705062
-0.0508161
-0.0279114
-0.00312958
0.0219626
0.045846
0.0673189
0.0856772
0.100709
0.112684
0.121835
0.128301
0.132151
0.133802
0.133659
0.132249
0.130139
0.127696
0.125365
0.123817
0.122866
0.122437
-0.185078
-0.14852
-0.145789
-0.138519
-0.136343
-0.132982
-0.127336
-0.118151
-0.105209
-0.0886688
-0.0687899
-0.0464021
-0.0226728