/*--------------------------------*- C++ -*----------------------------------*\
  =========                 |
  \\      /  F ield         | OpenFOAM: The Open Source CFD Toolbox
   \\    /   O peration     | Website:  https://openfoam.org
    \\  /    A nd           | Version:  11
     \\/     M anipulation  |
\*---------------------------------------------------------------------------*/
FoamFile
{
    format      ascii;
    class       surfaceScalarField;
    location    "6.2";
    object      phi;
}
// * * * * * * * * * * * * * * * * * * * * * * * * * * * * * * * * * * * * * //

dimensions      [0 3 -1 0 0 0 0];

internalField   nonuniform List<scalar> 
24840
(
1.57973e-05
1.36458e-08
1.57788e-05
1.85374e-08
1.57615e-05
1.7295e-08
1.57443e-05
1.71763e-08
1.57268e-05
1.74981e-08
1.57092e-05
1.75971e-08
1.56917e-05
1.75391e-08
1.56743e-05
1.74208e-08
1.5657e-05
1.72452e-08
1.564e-05
1.70018e-08
1.56233e-05
1.66878e-08
1.5607e-05
1.62966e-08
1.55912e-05
1.58167e-08
1.5576e-05
1.52321e-08
1.55615e-05
1.45183e-08
1.55478e-05
1.36349e-08
1.55353e-05
1.25411e-08
1.55241e-05
1.12309e-08
1.55144e-05
9.60845e-09
1.55069e-05
7.54717e-09
1.55019e-05
5.01654e-09
1.54999e-05
1.94179e-09
1.55018e-05
-1.87136e-09
1.55084e-05
-6.58618e-09
1.55209e-05
-1.24973e-08
1.55407e-05
-1.98017e-08
1.557e-05
-2.93227e-08
1.5612e-05
-4.19616e-08
1.56749e-05
-6.28835e-08
-1.37356e-07
1.58122e-05
1.5817e-05
7.59175e-09
1.58208e-05
1.47879e-08
1.58234e-05
1.46172e-08
1.58257e-05
1.4936e-08
1.58278e-05
1.54226e-08
1.58298e-05
1.55878e-08
1.58318e-05
1.54832e-08
1.5834e-05
1.52613e-08
1.58363e-05
1.49184e-08
1.58389e-05
1.44425e-08
1.58417e-05
1.38317e-08
1.5845e-05
1.30708e-08
1.58486e-05
1.21384e-08
1.58529e-05
1.10056e-08
1.58577e-05
9.63011e-09
1.58635e-05
7.92804e-09
1.58702e-05
5.81554e-09
1.58781e-05
3.29151e-09
1.58875e-05
1.82903e-10
1.58988e-05
-3.74726e-09
1.59124e-05
-8.55472e-09
1.59288e-05
-1.44158e-08
1.59485e-05
-2.16364e-08
1.59725e-05
-3.05416e-08
1.60015e-05
-4.15074e-08
1.60369e-05
-5.52221e-08
1.60795e-05
-7.18978e-08
1.61333e-05
-9.57394e-08
1.619e-05
-1.1958e-07
-1.55455e-07
1.62081e-05
1.58137e-05
4.90458e-09
1.58171e-05
1.13602e-08
1.58193e-05
1.24333e-08
1.58215e-05
1.2696e-08
1.58237e-05
1.31959e-08
1.58258e-05
1.35124e-08
1.58279e-05
1.34028e-08
1.583e-05
1.31025e-08
1.58324e-05
1.26069e-08
1.58349e-05
1.19068e-08
1.58377e-05
1.10006e-08
1.58409e-05
9.86568e-09
1.58446e-05
8.48346e-09
1.58488e-05
6.82257e-09
1.58536e-05
4.8465e-09
1.58591e-05
2.41679e-09
1.58655e-05
-6.24058e-10
1.5873e-05
-4.21822e-09
1.58819e-05
-8.73132e-09
1.58925e-05
-1.43587e-08
1.59053e-05
-2.12814e-08
1.59206e-05
-2.97747e-08
1.59392e-05
-4.02209e-08
1.59617e-05
-5.30781e-08
1.59891e-05
-6.8884e-08
1.60224e-05
-8.84531e-08
1.60629e-05
-1.12456e-07
1.61098e-05
-1.42641e-07
1.61685e-05
-1.78312e-07
-2.10117e-07
1.62232e-05
1.58125e-05
3.33145e-09
1.58154e-05
8.52834e-09
1.58175e-05
1.02958e-08
1.58195e-05
1.07234e-08
1.58215e-05
1.11487e-08
1.58236e-05
1.14885e-08
1.58256e-05
1.13885e-08
1.58277e-05
1.10055e-08
1.58299e-05
1.03526e-08
1.58324e-05
9.43013e-09
1.58352e-05
8.23971e-09
1.58383e-05
6.74356e-09
1.58418e-05
4.9261e-09
1.58459e-05
2.74302e-09
1.58506e-05
2.01821e-10
1.58559e-05
-2.94875e-09
1.58621e-05
-6.82577e-09
1.58694e-05
-1.15234e-08
1.58781e-05
-1.73705e-08
1.58883e-05
-2.46361e-08
1.59007e-05
-3.35999e-08
1.59155e-05
-4.46244e-08
1.59335e-05
-5.81709e-08
1.59552e-05
-7.48155e-08
1.59816e-05
-9.52565e-08
1.60135e-05
-1.2041e-07
1.60523e-05
-1.51235e-07
1.60984e-05
-1.88727e-07
1.6155e-05
-2.34928e-07
-2.75917e-07
1.62208e-05
1.58119e-05
2.35024e-09
1.58141e-05
6.39785e-09
1.5816e-05
8.33085e-09
1.58179e-05
8.91484e-09
1.58197e-05
9.26941e-09
1.58217e-05
9.52639e-09
1.58237e-05
9.42295e-09
1.58257e-05
8.95498e-09
1.58279e-05
8.15084e-09
1.58303e-05
7.0147e-09
1.5833e-05
5.54521e-09
1.58361e-05
3.71081e-09
1.58395e-05
1.49437e-09
1.58434e-05
-1.19105e-09
1.58479e-05
-4.29837e-09
1.58531e-05
-8.12171e-09
1.58591e-05
-1.28069e-08
1.58661e-05
-1.85507e-08
1.58744e-05
-2.56707e-08
1.58843e-05
-3.44963e-08
1.58961e-05
-4.53921e-08
1.59102e-05
-5.8806e-08
1.59274e-05
-7.52893e-08
1.59481e-05
-9.55293e-08
1.59732e-05
-1.20371e-07
1.60036e-05
-1.50849e-07
1.60406e-05
-1.88193e-07
1.60851e-05
-2.33295e-07
1.61395e-05
-2.89282e-07
-3.43638e-07
1.62072e-05
1.58116e-05
1.69147e-09
1.58133e-05
4.7695e-09
1.5815e-05
6.54775e-09
1.58167e-05
7.20444e-09
1.58185e-05
7.49878e-09
1.58204e-05
7.66051e-09
1.58223e-05
7.51233e-09
1.58243e-05
6.96102e-09
1.58264e-05
6.01354e-09
1.58288e-05
4.67403e-09
1.58314e-05
2.93217e-09
1.58343e-05
7.74559e-10
1.58376e-05
-1.81489e-09
1.58414e-05
-4.93786e-09
1.58457e-05
-8.60648e-09
1.58506e-05
-1.30628e-08
1.58563e-05
-1.85141e-08
1.5863e-05
-2.52213e-08
1.58709e-05
-3.3526e-08
1.58802e-05
-4.3815e-08
1.58913e-05
-5.65259e-08
1.59047e-05
-7.21807e-08
1.59208e-05
-9.14157e-08
1.59403e-05
-1.15022e-07
1.59639e-05
-1.43983e-07
1.59925e-05
-1.79484e-07
1.60274e-05
-2.23003e-07
1.60697e-05
-2.7566e-07
1.61215e-05
-3.41098e-07
-4.09624e-07
1.61875e-05
1.58114e-05
1.21162e-09
1.58127e-05
3.48972e-09
1.58143e-05
4.9722e-09
1.58159e-05
5.60725e-09
1.58176e-05
5.84421e-09
1.58193e-05
5.9063e-09
1.58211e-05
5.68048e-09
1.58231e-05
5.03931e-09
1.58251e-05
3.95364e-09
1.58274e-05
2.42096e-09
1.58299e-05
4.31074e-10
1.58327e-05
-2.02949e-09
1.58358e-05
-4.97968e-09
1.58394e-05
-8.50387e-09
1.58435e-05
-1.26814e-08
1.58481e-05
-1.77247e-08
1.58535e-05
-2.38887e-08
1.58598e-05
-3.1483e-08
1.58671e-05
-4.08844e-08
1.58759e-05
-5.25267e-08
1.58862e-05
-6.6908e-08
1.58987e-05
-8.46195e-08
1.59136e-05
-1.06381e-07
1.59317e-05
-1.33084e-07
1.59536e-05
-1.65844e-07
1.59801e-05
-2.0601e-07
1.60124e-05
-2.55302e-07
1.6052e-05
-3.15228e-07
1.61005e-05
-3.89656e-07
-4.72051e-07
1.61629e-05
1.58113e-05
8.39734e-10
1.58124e-05
2.45628e-09
1.58138e-05
3.59258e-09
1.58152e-05
4.12574e-09
1.58168e-05
4.28892e-09
1.58184e-05
4.24826e-09
1.58202e-05
3.92726e-09
1.5822e-05
3.18945e-09
1.5824e-05
1.9717e-09
1.58262e-05
2.58301e-10
1.58286e-05
-1.95917e-09
1.58312e-05
-4.69478e-09
1.58342e-05
-7.97231e-09
1.58376e-05
-1.18672e-08
1.58414e-05
-1.64981e-08
1.58458e-05
-2.20774e-08
1.58508e-05
-2.88902e-08
1.58566e-05
-3.72843e-08
1.58634e-05
-4.76739e-08
1.58714e-05
-6.05376e-08
1.58809e-05
-7.64269e-08
1.58923e-05
-9.59946e-08
1.59059e-05
-1.20035e-07
1.59224e-05
-1.49533e-07
1.59423e-05
-1.85727e-07
1.59664e-05
-2.30137e-07
1.59958e-05
-2.84709e-07
1.6032e-05
-3.51401e-07
1.60765e-05
-4.34195e-07
-5.29742e-07
1.61342e-05
1.58113e-05
5.3846e-10
1.58121e-05
1.59835e-09
1.58133e-05
2.38076e-09
1.58147e-05
2.75712e-09
1.58162e-05
2.82523e-09
1.58177e-05
2.68144e-09
1.58194e-05
2.25918e-09
1.58212e-05
1.42095e-09
1.58231e-05
7.8746e-11
1.58251e-05
-1.7988e-09
1.58274e-05
-4.22205e-09
1.58299e-05
-7.20312e-09
1.58327e-05
-1.07706e-08
1.58358e-05
-1.50004e-08
1.58394e-05
-2.00308e-08
1.58434e-05
-2.6086e-08
1.5848e-05
-3.34741e-08
1.58532e-05
-4.2575e-08
1.58594e-05
-5.38378e-08
1.58666e-05
-6.77798e-08
1.58752e-05
-8.49979e-08
1.58854e-05
-1.06198e-07
1.58976e-05
-1.32241e-07
1.59123e-05
-1.64196e-07
1.593e-05
-2.03415e-07
1.59514e-05
-2.51577e-07
1.59776e-05
-3.10845e-07
1.60098e-05
-3.83629e-07
1.60496e-05
-4.7397e-07
-5.81653e-07
1.61015e-05
1.58112e-05
2.851e-10
1.5812e-05
8.67637e-10
1.5813e-05
1.30812e-09
1.58143e-05
1.49596e-09
1.58157e-05
1.44948e-09
1.58171e-05
1.20122e-09
1.58187e-05
6.76565e-10
1.58204e-05
-2.6258e-10
1.58222e-05
-1.72111e-09
1.58242e-05
-3.74535e-09
1.58263e-05
-6.34961e-09
1.58286e-05
-9.54552e-09
1.58312e-05
-1.33643e-08
1.58341e-05
-1.78855e-08
1.58373e-05
-2.32595e-08
1.5841e-05
-2.97244e-08
1.58451e-05
-3.76075e-08
1.58498e-05
-4.7315e-08
1.58553e-05
-5.93253e-08
1.58617e-05
-7.41889e-08
1.58693e-05
-9.25411e-08
1.58782e-05
-1.15133e-07
1.58889e-05
-1.4288e-07
1.59016e-05
-1.76923e-07
1.59169e-05
-2.18713e-07
1.59354e-05
-2.70074e-07
1.59579e-05
-3.33361e-07
1.59857e-05
-4.11401e-07
1.602e-05
-5.08282e-07
-6.26776e-07
1.60651e-05
1.58112e-05
6.47464e-11
1.58118e-05
2.30617e-10
1.58128e-05
3.49431e-10
1.58139e-05
3.3389e-10
1.58152e-05
1.5775e-10
1.58166e-05
-1.97165e-10
1.58181e-05
-8.22353e-10
1.58197e-05
-1.85921e-09
1.58214e-05
-3.42387e-09
1.58233e-05
-5.57551e-09
1.58252e-05
-8.33379e-09
1.58274e-05
-1.17108e-08
1.58298e-05
-1.57395e-08
1.58324e-05
-2.05037e-08
1.58353e-05
-2.61627e-08
1.58386e-05
-3.29668e-08
1.58422e-05
-4.12592e-08
1.58464e-05
-5.14667e-08
1.58511e-05
-6.40916e-08
1.58566e-05
-7.9711e-08
1.58631e-05
-9.89905e-08
1.58707e-05
-1.22716e-07
1.58796e-05
-1.51847e-07
1.58903e-05
-1.87583e-07
1.5903e-05
-2.31454e-07
1.59184e-05
-2.85401e-07
1.5937e-05
-3.51944e-07
1.59598e-05
-4.34267e-07
1.5988e-05
-5.36489e-07
-6.64116e-07
1.60254e-05
1.58112e-05
-1.3128e-10
1.58117e-05
-3.35673e-10
1.58126e-05
-5.17847e-10
1.58137e-05
-7.40764e-10
1.58149e-05
-1.0552e-09
1.58162e-05
-1.51829e-09
1.58176e-05
-2.24021e-09
1.58191e-05
-3.36819e-09
1.58207e-05
-5.02646e-09
1.58224e-05
-7.28463e-09
1.58243e-05
-1.01682e-08
1.58263e-05
-1.36906e-08
1.58284e-05
-1.78862e-08
1.58307e-05
-2.28424e-08
1.58333e-05
-2.87252e-08
1.58361e-05
-3.57945e-08
1.58393e-05
-4.4406e-08
1.58428e-05
-5.50018e-08
1.58468e-05
-6.81019e-08
1.58514e-05
-8.43033e-08
1.58567e-05
-1.04293e-07
1.58629e-05
-1.28884e-07
1.58701e-05
-1.59064e-07
1.58786e-05
-1.96075e-07
1.58886e-05
-2.41502e-07
1.59006e-05
-2.97378e-07
1.5915e-05
-3.66338e-07
1.59326e-05
-4.5185e-07
1.59541e-05
-5.58037e-07
-6.92774e-07
1.59828e-05
1.58111e-05
-3.07446e-10
1.58117e-05
-8.48385e-10
1.58125e-05
-1.31251e-09
1.58135e-05
-1.74112e-09
1.58146e-05
-2.1969e-09
1.58158e-05
-2.76699e-09
1.58172e-05
-3.58032e-09
1.58186e-05
-4.79032e-09
1.58201e-05
-6.52743e-09
1.58217e-05
-8.86937e-09
1.58234e-05
-1.18478e-08
1.58252e-05
-1.54783e-08
1.58271e-05
-1.97963e-08
1.58291e-05
-2.48915e-08
1.58313e-05
-3.09348e-08
1.58337e-05
-3.81928e-08
1.58363e-05
-4.70296e-08
1.58392e-05
-5.78979e-08
1.58425e-05
-7.13293e-08
1.58461e-05
-8.79329e-08
1.58502e-05
-1.0841e-07
1.58549e-05
-1.33586e-07
1.58603e-05
-1.64468e-07
1.58666e-05
-2.0232e-07
1.58738e-05
-2.48759e-07
1.58823e-05
-3.05868e-07
1.58923e-05
-3.76351e-07
1.59043e-05
-4.63863e-07
1.59188e-05
-5.72487e-07
-7.11974e-07
1.5938e-05
1.58111e-05
-4.68626e-10
1.58116e-05
-1.32006e-09
1.58123e-05
-2.04988e-09
1.58133e-05
-2.67908e-09
1.58144e-05
-3.27585e-09
1.58155e-05
-3.94953e-09
1.58168e-05
-4.84651e-09
1.58181e-05
-6.12701e-09
1.58195e-05
-7.92609e-09
1.5821e-05
-1.0328e-08
1.58225e-05
-1.33699e-08
1.58241e-05
-1.707e-08
1.58258e-05
-2.14645e-08
1.58275e-05
-2.66443e-08
1.58294e-05
-3.2783e-08
1.58313e-05
-4.01514e-08
1.58334e-05
-4.91179e-08
1.58357e-05
-6.01404e-08
1.58381e-05
-7.37558e-08
1.58407e-05
-9.05785e-08
1.58436e-05
-1.11314e-07
1.58469e-05
-1.36793e-07
1.58504e-05
-1.68024e-07
1.58544e-05
-2.06275e-07
1.58588e-05
-2.53167e-07
1.58637e-05
-3.10794e-07
1.58692e-05
-3.81868e-07
1.58755e-05
-4.70126e-07
1.58825e-05
-5.79553e-07
-7.21162e-07
1.58917e-05
1.58111e-05
-6.18908e-10
1.58116e-05
-1.76206e-09
1.58123e-05
-2.74404e-09
1.58131e-05
-3.56659e-09
1.58142e-05
-4.30039e-09
1.58153e-05
-5.07193e-09
1.58165e-05
-6.043e-09
1.58177e-05
-7.38058e-09
1.5819e-05
-9.22339e-09
1.58204e-05
-1.16606e-08
1.58217e-05
-1.47342e-08
1.58231e-05
-1.84646e-08
1.58245e-05
-2.28883e-08
1.5826e-05
-2.8097e-08
1.58275e-05
-3.42652e-08
1.5829e-05
-4.16646e-08
1.58305e-05
-5.06641e-08
1.58321e-05
-6.17214e-08
1.58337e-05
-7.53727e-08
1.58354e-05
-9.22305e-08
1.58371e-05
-1.12996e-07
1.58388e-05
-1.38493e-07
1.58405e-05
-1.69719e-07
1.58421e-05
-2.07925e-07
1.58437e-05
-2.54709e-07
1.5845e-05
-3.12132e-07
1.5846e-05
-3.82858e-07
1.58464e-05
-4.70582e-07
1.5846e-05
-5.79124e-07
-7.20056e-07
1.58449e-05
1.58111e-05
-7.6226e-10
1.58115e-05
-2.18498e-09
1.58122e-05
-3.40881e-09
1.5813e-05
-4.41603e-09
1.5814e-05
-5.27889e-09
1.58151e-05
-6.13971e-09
1.58162e-05
-7.17438e-09
1.58174e-05
-8.55518e-09
1.58186e-05
-1.04227e-08
1.58198e-05
-1.28696e-08
1.5821e-05
-1.5942e-08
1.58222e-05
-1.96622e-08
1.58234e-05
-2.40674e-08
1.58245e-05
-2.92489e-08
1.58257e-05
-3.53804e-08
1.58267e-05
-4.27315e-08
1.58277e-05
-5.16674e-08
1.58286e-05
-6.26407e-08
1.58295e-05
-7.61808e-08
1.58301e-05
-9.2891e-08
1.58306e-05
-1.1346e-07
1.58308e-05
-1.38693e-07
1.58306e-05
-1.69564e-07
1.583e-05
-2.07288e-07
1.58287e-05
-2.53412e-07
1.58265e-05
-3.09923e-07
1.5823e-05
-3.79375e-07
1.58177e-05
-4.65306e-07
1.58099e-05
-5.71289e-07
-7.08712e-07
1.57985e-05
1.58111e-05
-9.02701e-10
1.58115e-05
-2.59971e-09
1.58122e-05
-4.05824e-09
1.5813e-05
-5.23984e-09
1.58139e-05
-6.22026e-09
1.5815e-05
-7.15964e-09
1.5816e-05
-8.24675e-09
1.58171e-05
-9.65616e-09
1.58182e-05
-1.15282e-08
1.58193e-05
-1.3958e-08
1.58204e-05
-1.69955e-08
1.58214e-05
-2.06651e-08
1.58223e-05
-2.50041e-08
1.58232e-05
-3.01026e-08
1.58239e-05
-3.61317e-08
1.58245e-05
-4.3356e-08
1.5825e-05
-5.21332e-08
1.58253e-05
-6.29056e-08
1.58253e-05
-7.619e-08
1.5825e-05
-9.25733e-08
1.58242e-05
-1.12723e-07
1.5823e-05
-1.37418e-07
1.5821e-05
-1.67593e-07
1.58181e-05
-2.04412e-07
1.5814e-05
-2.49342e-07
1.58084e-05
-3.04264e-07
1.58006e-05
-3.71562e-07
1.57898e-05
-4.54506e-07
1.57748e-05
-5.56343e-07
-6.87553e-07
1.57537e-05
1.58111e-05
-1.04463e-09
1.58115e-05
-3.01826e-09
1.58122e-05
-4.70751e-09
1.5813e-05
-6.05141e-09
1.58139e-05
-7.13453e-09
1.58149e-05
-8.13975e-09
1.58159e-05
-9.26702e-09
1.58169e-05
-1.0689e-08
1.5818e-05
-1.25439e-08
1.58189e-05
-1.49295e-08
1.58198e-05
-1.78987e-08
1.58206e-05
-2.14776e-08
1.58213e-05
-2.57033e-08
1.58219e-05
-3.0664e-08
1.58223e-05
-3.65264e-08
1.58225e-05
-4.35472e-08
1.58224e-05
-5.20728e-08
1.5822e-05
-6.25305e-08
1.58213e-05
-7.54185e-08
1.582e-05
-9.13011e-08
1.58181e-05
-1.10818e-07
1.58154e-05
-1.34709e-07
1.58117e-05
-1.63863e-07
1.58066e-05
-1.99373e-07
1.57999e-05
-2.42609e-07
1.57909e-05
-2.95307e-07
1.5779e-05
-3.5964e-07
1.5763e-05
-4.38514e-07
1.57415e-05
-5.34782e-07
-6.57368e-07
1.57113e-05
1.58111e-05
-1.19332e-09
1.58116e-05
-3.4551e-09
1.58122e-05
-5.37406e-09
1.5813e-05
-6.86498e-09
1.58139e-05
-8.03187e-09
1.58149e-05
-9.08828e-09
1.58159e-05
-1.02425e-08
1.58168e-05
-1.166e-08
1.58178e-05
-1.34753e-08
1.58186e-05
-1.57891e-08
1.58194e-05
-1.86571e-08
1.582e-05
-2.21061e-08
1.58205e-05
-2.61726e-08
1.58207e-05
-3.09422e-08
1.58208e-05
-3.65755e-08
1.58206e-05
-4.33188e-08
1.582e-05
-5.15031e-08
1.5819e-05
-6.15365e-08
1.58175e-05
-7.38932e-08
1.58153e-05
-8.91087e-08
1.58123e-05
-1.07787e-07
1.58082e-05
-1.30625e-07
1.58028e-05
-1.58451e-07
1.57957e-05
-1.92275e-07
1.57864e-05
-2.33355e-07
1.57744e-05
-2.83256e-07
1.57586e-05
-3.43902e-07
1.57379e-05
-4.17771e-07
1.57104e-05
-5.07275e-07
-6.19283e-07
1.56723e-05
1.58111e-05
-1.35564e-09
1.58116e-05
-3.92875e-09
1.58123e-05
-6.07846e-09
1.58131e-05
-7.69532e-09
1.5814e-05
-8.92231e-09
1.5815e-05
-1.00141e-08
1.58159e-05
-1.11811e-08
1.58168e-05
-1.25755e-08
1.58177e-05
-1.43283e-08
1.58184e-05
-1.65432e-08
1.5819e-05
-1.92779e-08
1.58195e-05
-2.25589e-08
1.58197e-05
-2.64217e-08
1.58197e-05
-3.09489e-08
1.58195e-05
-3.62935e-08
1.58188e-05
-4.26884e-08
1.58178e-05
-5.04461e-08
1.58162e-05
-5.9951e-08
1.58139e-05
-7.16484e-08
1.58109e-05
-8.60396e-08
1.58068e-05
-1.03688e-07
1.58014e-05
-1.25238e-07
1.57944e-05
-1.5145e-07
1.57854e-05
-1.83246e-07
1.57738e-05
-2.21752e-07
1.57588e-05
-2.6835e-07
1.57396e-05
-3.24694e-07
1.57147e-05
-3.92801e-07
1.5682e-05
-4.74621e-07
-5.74673e-07
1.56374e-05
1.58112e-05
-1.54118e-09
1.58117e-05
-4.46413e-09
1.58125e-05
-6.8453e-09
1.58133e-05
-8.55725e-09
1.58142e-05
-9.81572e-09
1.58151e-05
-1.09269e-08
1.5816e-05
-1.20916e-08
1.58169e-05
-1.34426e-08
1.58177e-05
-1.51092e-08
1.58183e-05
-1.71988e-08
1.58188e-05
-1.97693e-08
1.58191e-05
-2.28458e-08
1.58192e-05
-2.64628e-08
1.58189e-05
-3.06992e-08
1.58183e-05
-3.56987e-08
1.58173e-05
-4.16785e-08
1.58158e-05
-4.89295e-08
1.58136e-05
-5.7808e-08
1.58107e-05
-6.87265e-08
1.58068e-05
-8.21471e-08
1.58017e-05
-9.85863e-08
1.57951e-05
-1.18633e-07
1.57866e-05
-1.42974e-07
1.57758e-05
-1.72431e-07
1.57621e-05
-2.07996e-07
1.57446e-05
-2.50858e-07
1.57223e-05
-3.02401e-07
1.56937e-05
-3.64173e-07
1.56567e-05
-4.37696e-07
-5.2508e-07
1.56071e-05
1.58112e-05
-1.76422e-09
1.58118e-05
-5.09631e-09
1.58127e-05
-7.7037e-09
1.58136e-05
-9.46439e-09
1.58145e-05
-1.07218e-08
1.58154e-05
-1.18375e-08
1.58163e-05
-1.29831e-08
1.58171e-05
-1.42684e-08
1.58178e-05
-1.58251e-08
1.58184e-05
-1.77641e-08
1.58188e-05
-2.01406e-08
1.58189e-05
-2.29777e-08
1.58188e-05
-2.6309e-08
1.58183e-05
-3.02091e-08
1.58174e-05
-3.48111e-08
1.5816e-05
-4.03141e-08
1.58141e-05
-4.69841e-08
1.58114e-05
-5.51461e-08
1.58079e-05
-6.51756e-08
1.58032e-05
-7.74911e-08
1.57972e-05
-9.25588e-08
1.57894e-05
-1.10907e-07
1.57796e-05
-1.33145e-07
1.57672e-05
-1.59991e-07
1.57515e-05
-1.92301e-07
1.57317e-05
-2.3107e-07
1.57067e-05
-2.77422e-07
1.5675e-05
-3.32473e-07
1.56347e-05
-3.97384e-07
-4.71987e-07
1.55816e-05
1.58112e-05
-2.04729e-09
1.5812e-05
-5.87614e-09
1.5813e-05
-8.6868e-09
1.5814e-05
-1.04276e-08
1.58149e-05
-1.16503e-08
1.58158e-05
-1.27572e-08
1.58167e-05
-1.38637e-08
1.58175e-05
-1.50597e-08
1.58182e-05
-1.64843e-08
1.58186e-05
-1.82492e-08
1.58189e-05
-2.04039e-08
1.58189e-05
-2.29693e-08
1.58186e-05
-2.59784e-08
1.58179e-05
-2.95005e-08
1.58167e-05
-3.36564e-08
1.5815e-05
-3.86257e-08
1.58127e-05
-4.46465e-08
1.58095e-05
-5.20102e-08
1.58054e-05
-6.10515e-08
1.58001e-05
-7.2141e-08
1.57932e-05
-8.56909e-08
1.57845e-05
-1.02167e-07
1.57734e-05
-1.22099e-07
1.57595e-05
-1.461e-07
1.57421e-05
-1.7489e-07
1.57203e-05
-2.09278e-07
1.5693e-05
-2.50153e-07
1.56588e-05
-2.98252e-07
1.56159e-05
-3.54507e-07
-4.16883e-07
1.55608e-05
1.58113e-05
-2.42871e-09
1.58123e-05
-6.87761e-09
1.58135e-05
-9.8277e-09
1.58145e-05
-1.14548e-08
1.58155e-05
-1.26147e-08
1.58164e-05
-1.36977e-08
1.58173e-05
-1.47383e-08
1.58181e-05
-1.58194e-08
1.58187e-05
-1.70914e-08
1.58191e-05
-1.86604e-08
1.58192e-05
-2.05673e-08
1.58191e-05
-2.28314e-08
1.58186e-05
-2.54849e-08
1.58177e-05
-2.85917e-08
1.58163e-05
-3.22592e-08
1.58143e-05
-3.6645e-08
1.58116e-05
-4.19568e-08
1.58081e-05
-4.8449e-08
1.58034e-05
-5.64131e-08
1.57975e-05
-6.61687e-08
1.57898e-05
-7.80725e-08
1.57802e-05
-9.25268e-08
1.57681e-05
-1.09978e-07
1.57529e-05
-1.30938e-07
1.5734e-05
-1.55995e-07
1.57105e-05
-1.8578e-07
1.56814e-05
-2.20979e-07
1.56451e-05
-2.62007e-07
1.56004e-05
-3.09762e-07
-3.60869e-07
1.55443e-05
1.58115e-05
-2.98049e-09
1.58128e-05
-8.20661e-09
1.58142e-05
-1.11438e-08
1.58153e-05
-1.25503e-08
1.58163e-05
-1.36378e-08
1.58173e-05
-1.46766e-08
1.58181e-05
-1.5618e-08
1.58189e-05
-1.65606e-08
1.58195e-05
-1.76613e-08
1.58198e-05
-1.90136e-08
1.58199e-05
-2.06482e-08
1.58196e-05
-2.25835e-08
1.5819e-05
-2.48511e-08
1.58179e-05
-2.75084e-08
1.58163e-05
-3.06488e-08
1.58141e-05
-3.44064e-08
1.58111e-05
-3.89564e-08
1.58071e-05
-4.45142e-08
1.5802e-05
-5.13254e-08
1.57955e-05
-5.96541e-08
1.57873e-05
-6.98009e-08
1.57768e-05
-8.21064e-08
1.57638e-05
-9.69332e-08
1.57475e-05
-1.14691e-07
1.57274e-05
-1.35846e-07
1.57025e-05
-1.60859e-07
1.56718e-05
-1.90253e-07
1.56339e-05
-2.24131e-07
1.55878e-05
-2.63658e-07
-3.04684e-07
1.55316e-05
1.58118e-05
-3.84632e-09
1.58136e-05
-1.00214e-08
1.58151e-05
-1.26158e-08
1.58163e-05
-1.37051e-08
1.58174e-05
-1.47256e-08
1.58184e-05
-1.56859e-08
1.58192e-05
-1.64936e-08
1.582e-05
-1.72822e-08
1.58205e-05
-1.81976e-08
1.58208e-05
-1.93157e-08
1.58208e-05
-2.06566e-08
1.58205e-05
-2.22399e-08
1.58197e-05
-2.40963e-08
1.58185e-05
-2.62764e-08
1.58167e-05
-2.88584e-08
1.58142e-05
-3.19511e-08
1.5811e-05
-3.56947e-08
1.58067e-05
-4.02644e-08
1.58013e-05
-4.58586e-08
1.57943e-05
-5.26818e-08
1.57855e-05
-6.09787e-08
1.57744e-05
-7.10298e-08
1.57606e-05
-8.31157e-08
1.57434e-05
-9.75502e-08
1.57223e-05
-1.14684e-07
1.56962e-05
-1.34808e-07
1.56643e-05
-1.58313e-07
1.56251e-05
-1.84949e-07
1.5578e-05
-2.16535e-07
-2.47909e-07
1.55212e-05
1.58124e-05
-5.29317e-09
1.58149e-05
-1.25272e-08
1.58165e-05
-1.42399e-08
1.58178e-05
-1.49942e-08
1.5819e-05
-1.59207e-08
1.58201e-05
-1.67243e-08
1.58209e-05
-1.73624e-08
1.58216e-05
-1.79904e-08
1.58222e-05
-1.87091e-08
1.58224e-05
-1.95774e-08
1.58224e-05
-2.06052e-08
1.58219e-05
-2.18159e-08
1.58211e-05
-2.32382e-08
1.58197e-05
-2.49161e-08
1.58178e-05
-2.69132e-08
1.58151e-05
-2.9311e-08
1.58117e-05
-3.2214e-08
1.58071e-05
-3.57568e-08
1.58014e-05
-4.0087e-08
1.5794e-05
-4.5341e-08
1.57848e-05
-5.17171e-08
1.57732e-05
-5.94347e-08
1.57587e-05
-6.86847e-08
1.57409e-05
-7.97006e-08
1.57189e-05
-9.27336e-08
1.56921e-05
-1.07922e-07
1.56593e-05
-1.25506e-07
1.5619e-05
-1.4469e-07
1.55713e-05
-1.68827e-07
-1.88624e-07
1.5512e-05
1.58135e-05
-7.84003e-09
1.58166e-05
-1.56344e-08
1.58183e-05
-1.58962e-08
1.58198e-05
-1.65191e-08
1.58211e-05
-1.72484e-08
1.58222e-05
-1.78016e-08
1.58231e-05
-1.82506e-08
1.58238e-05
-1.87083e-08
1.58243e-05
-1.92173e-08
1.58246e-05
-1.9817e-08
1.58245e-05
-2.05162e-08
1.5824e-05
-2.13383e-08
1.58231e-05
-2.23091e-08
1.58216e-05
-2.3466e-08
1.58196e-05
-2.48588e-08
1.58168e-05
-2.65385e-08
1.58131e-05
-2.85682e-08
1.58084e-05
-3.10462e-08
1.58024e-05
-3.40794e-08
1.57948e-05
-3.77123e-08
1.57852e-05
-4.21031e-08
1.57732e-05
-4.7433e-08
1.57583e-05
-5.37934e-08
1.57399e-05
-6.13381e-08
1.57174e-05
-7.02179e-08
1.569e-05
-8.04859e-08
1.56567e-05
-9.21899e-08
1.56157e-05
-1.03732e-07
1.5567e-05
-1.20167e-07
-1.208e-07
1.54992e-05
1.5817e-05
-1.38424e-08
1.58203e-05
-1.89684e-08
1.58223e-05
-1.78529e-08
1.58237e-05
-1.79685e-08
1.58249e-05
-1.84332e-08
1.58258e-05
-1.87395e-08
1.58265e-05
-1.8953e-08
1.5827e-05
-1.91736e-08
1.58272e-05
-1.9428e-08
1.58271e-05
-1.97296e-08
1.58267e-05
-2.0084e-08
1.58259e-05
-2.0503e-08
1.58245e-05
-2.09995e-08
1.58227e-05
-2.1593e-08
1.58201e-05
-2.23098e-08
1.58168e-05
-2.31739e-08
1.58124e-05
-2.42169e-08
1.58069e-05
-2.54958e-08
1.57998e-05
-2.70706e-08
1.57911e-05
-2.89444e-08
1.57802e-05
-3.12139e-08
1.57667e-05
-3.39852e-08
1.57502e-05
-3.72823e-08
1.57301e-05
-4.11897e-08
1.57057e-05
-4.57867e-08
1.56762e-05
-5.10394e-08
1.5641e-05
-5.69964e-08
1.55986e-05
-6.13572e-08
1.55452e-05
-6.67436e-08
-2.53751e-08
1.54498e-05
1.57971e-05
1.57782e-05
1.57603e-05
1.57423e-05
1.57239e-05
1.57052e-05
1.56862e-05
1.5667e-05
1.56476e-05
1.56279e-05
1.56078e-05
1.55873e-05
1.55663e-05
1.55447e-05
1.55224e-05
1.54992e-05
1.5475e-05
1.54495e-05
1.54224e-05
1.53935e-05
1.53623e-05
1.53283e-05
1.5291e-05
1.52498e-05
1.5204e-05
1.5153e-05
1.5096e-05
1.50346e-05
1.49679e-05
1.49425e-05
1.55268e-05
-9.07001e-06
9.35547e-06
1.51924e-05
-9.15525e-06
9.48964e-06
1.48019e-05
-9.21454e-06
9.60501e-06
1.43665e-05
-9.24823e-06
9.68359e-06
1.39064e-05
-9.27732e-06
9.73747e-06
1.34347e-05
-9.30915e-06
9.78088e-06
1.29576e-05
-9.3445e-06
9.8216e-06
1.24777e-05
-9.38302e-06
9.86286e-06
1.19961e-05
-9.42456e-06
9.90618e-06
1.15129e-05
-9.4691e-06
9.95229e-06
1.1028e-05
-9.51667e-06
1.00016e-05
1.05413e-05
-9.56752e-06
1.00543e-05
1.00525e-05
-9.62219e-06
1.01109e-05
9.56182e-06
-9.68144e-06
1.01721e-05
9.0691e-06
-9.74625e-06
1.0239e-05
8.57428e-06
-9.81784e-06
1.03127e-05
8.07718e-06
-9.89777e-06
1.03949e-05
7.57755e-06
-9.98808e-06
1.04877e-05
7.07496e-06
-1.00915e-05
1.05941e-05
6.5688e-06
-1.02116e-05
1.07178e-05
6.05823e-06
-1.03535e-05
1.0864e-05
5.54151e-06
-1.05243e-05
1.1041e-05
5.01799e-06
-1.07333e-05
1.12569e-05
4.47963e-06
-1.1e-05
1.15383e-05
3.93441e-06
-1.1332e-05
1.18772e-05
3.33997e-06
-1.18219e-05
1.24164e-05
2.75165e-06
-1.23682e-05
1.29565e-05
2e-06
-1.35619e-05
1.43135e-05
1.22976e-06
-1.44616e-05
1.52319e-05
-1.85316e-05
1.97614e-05
1.58041e-05
-8.66609e-06
1.53514e-05
-8.7025e-06
1.48751e-05
-8.73827e-06
1.43931e-05
-8.76616e-06
1.39118e-05
-8.79606e-06
1.34324e-05
-8.82977e-06
1.29542e-05
-8.8663e-06
1.2476e-05
-8.90479e-06
1.19967e-05
-8.94528e-06
1.15157e-05
-8.98814e-06
1.10328e-05
-9.03375e-06
1.05479e-05
-9.0826e-06
1.0061e-05
-9.1353e-06
9.57216e-06
-9.19259e-06
9.08128e-06
-9.25538e-06
8.58825e-06
-9.3248e-06
8.09283e-06
-9.40236e-06
7.59472e-06
-9.48997e-06
7.09344e-06
-9.5902e-06
6.58833e-06
-9.70649e-06
6.07841e-06
-9.84353e-06
5.5621e-06
-1.0008e-05
5.0377e-06
-1.02089e-05
4.49971e-06
-1.0462e-05
3.94927e-06
-1.07815e-05
3.35783e-06
-1.12305e-05
2.7559e-06
-1.17663e-05
2.01139e-06
-1.28174e-05
1.23393e-06
-1.36842e-05
-1.72977e-05
1.57679e-05
-8.21075e-06
1.53021e-05
-8.23672e-06
1.48311e-05
-8.2673e-06
1.43618e-05
-8.29681e-06
1.38924e-05
-8.32672e-06
1.34217e-05
-8.35905e-06
1.29488e-05
-8.39338e-06
1.24735e-05
-8.42944e-06
1.19958e-05
-8.46761e-06
1.1516e-05
-8.50836e-06
1.10343e-05
-8.55206e-06
1.05508e-05
-8.59909e-06
1.00655e-05
-8.64997e-06
9.57824e-06
-8.70535e-06
9.08897e-06
-8.7661e-06
8.59747e-06
-8.83331e-06
8.10351e-06
-8.90839e-06
7.60671e-06
-8.99317e-06
7.10658e-06
-9.09007e-06
6.60238e-06
-9.20229e-06
6.09305e-06
-9.33421e-06
5.57704e-06
-9.49194e-06
5.05216e-06
-9.68405e-06
4.51409e-06
-9.92391e-06
3.96019e-06
-1.02277e-05
3.3705e-06
-1.06408e-05
2.75837e-06
-1.11542e-05
2.0193e-06
-1.20783e-05
1.23238e-06
-1.28973e-05
-1.60653e-05
1.57602e-05
-7.75018e-06
1.5297e-05
-7.77352e-06
1.48298e-05
-7.80005e-06
1.43606e-05
-7.8276e-06
1.38899e-05
-7.85608e-06
1.34174e-05
-7.88651e-06
1.29431e-05
-7.91905e-06
1.24672e-05
-7.95361e-06
1.199e-05
-7.99036e-06
1.15113e-05
-8.02963e-06
1.10309e-05
-8.07174e-06
1.05489e-05
-8.11706e-06
1.0065e-05
-8.1661e-06
9.57923e-06
-8.21953e-06
9.09131e-06
-8.27818e-06
8.60109e-06
-8.34309e-06
8.1083e-06
-8.41559e-06
7.61252e-06
-8.4974e-06
7.11321e-06
-8.59076e-06
6.60958e-06
-8.69866e-06
6.10052e-06
-8.82514e-06
5.58439e-06
-8.97582e-06
5.05883e-06
-9.15849e-06
4.5199e-06
-9.38498e-06
3.96311e-06
-9.67087e-06
3.37344e-06
-1.00511e-05
2.75282e-06
-1.05335e-05
2.01835e-06
-1.13438e-05
1.22516e-06
-1.21041e-05
-1.48402e-05
1.57441e-05
-7.28702e-06
1.52791e-05
-7.30859e-06
1.48116e-05
-7.3325e-06
1.43425e-05
-7.35851e-06
1.38725e-05
-7.38608e-06
1.34013e-05
-7.41534e-06
1.29287e-05
-7.44647e-06
1.24546e-05
-7.47954e-06
1.1979e-05
-7.51472e-06
1.15017e-05
-7.55232e-06
1.10226e-05
-7.59269e-06
1.05418e-05
-7.63621e-06
1.00591e-05
-7.68339e-06
9.5744e-06
-7.73485e-06
9.08757e-06
-7.79136e-06
8.59837e-06
-7.8539e-06
8.10648e-06
-7.9237e-06
7.61146e-06
-8.00238e-06
7.11271e-06
-8.09201e-06
6.60939e-06
-8.19534e-06
6.10033e-06
-8.31608e-06
5.58384e-06
-8.45932e-06
5.05744e-06
-8.63209e-06
4.5173e-06
-8.84484e-06
3.95812e-06
-9.11168e-06
3.36751e-06
-9.46052e-06
2.74044e-06
-9.90647e-06
2.0096e-06
-1.0613e-05
1.21105e-06
-1.13055e-05
-1.36291e-05
1.57237e-05
-6.82318e-06
1.52586e-05
-6.84352e-06
1.47919e-05
-6.86581e-06
1.43239e-05
-6.89051e-06
1.38548e-05
-6.91697e-06
1.33844e-05
-6.94491e-06
1.29124e-05
-6.97453e-06
1.2439e-05
-7.00606e-06
1.1964e-05
-7.03972e-06
1.14874e-05
-7.07575e-06
1.10092e-05
-7.11448e-06
1.05293e-05
-7.15629e-06
1.00475e-05
-7.20163e-06
9.56375e-06
-7.2511e-06
9.0778e-06
-7.30541e-06
8.58938e-06
-7.36548e-06
8.09814e-06
-7.43247e-06
7.60361e-06
-7.50785e-06
7.10516e-06
-7.59355e-06
6.60189e-06
-7.69207e-06
6.09259e-06
-7.80678e-06
5.5755e-06
-7.94223e-06
5.0481e-06
-8.10469e-06
4.50653e-06
-8.30327e-06
3.9452e-06
-8.55035e-06
3.35311e-06
-8.86843e-06
2.72117e-06
-9.27453e-06
1.99361e-06
-9.88544e-06
1.19171e-06
-1.05036e-05
-1.24374e-05
1.5699e-05
-6.35926e-06
1.52341e-05
-6.37855e-06
1.47678e-05
-6.39953e-06
1.43003e-05
-6.423e-06
1.38316e-05
-6.44827e-06
1.33616e-05
-6.47494e-06
1.28903e-05
-6.5032e-06
1.24175e-05
-6.53332e-06
1.19433e-05
-6.56552e-06
1.14676e-05
-6.60002e-06
1.09902e-05
-6.63712e-06
1.05111e-05
-6.67718e-06
1.00301e-05
-6.72064e-06
9.5471e-06
-6.76805e-06
9.06178e-06
-6.82009e-06
8.57389e-06
-6.87759e-06
8.08307e-06
-6.94164e-06
7.58879e-06
-7.01358e-06
7.09039e-06
-7.09515e-06
6.58695e-06
-7.18863e-06
6.0772e-06
-7.29703e-06
5.55934e-06
-7.42437e-06
5.03081e-06
-7.57616e-06
4.48774e-06
-7.7602e-06
3.92446e-06
-7.98707e-06
3.33074e-06
-8.27472e-06
2.69534e-06
-8.63913e-06
1.97131e-06
-9.16141e-06
1.16789e-06
-9.7002e-06
-1.12695e-05
1.56703e-05
-5.89534e-06
1.52054e-05
-5.91371e-06
1.47395e-05
-5.93359e-06
1.42724e-05
-5.9559e-06
1.38041e-05
-5.98001e-06
1.33346e-05
-6.00546e-06
1.28638e-05
-6.03239e-06
1.23917e-05
-6.06113e-06
1.1918e-05
-6.09188e-06
1.14429e-05
-6.12486e-06
1.09661e-05
-6.16032e-06
1.04875e-05
-6.19862e-06
1.0007e-05
-6.24017e-06
9.52446e-06
-6.28548e-06
9.03955e-06
-6.33518e-06
8.55199e-06
-6.39003e-06
8.06135e-06
-6.45101e-06
7.56712e-06
-6.51934e-06
7.06857e-06
-6.59661e-06
6.56477e-06
-6.68483e-06
6.0544e-06
-6.78665e-06
5.53564e-06
-6.90561e-06
5.0059e-06
-7.04642e-06
4.46134e-06
-7.21564e-06
3.89631e-06
-7.42204e-06
3.3011e-06
-7.67951e-06
2.66348e-06
-8.00151e-06
1.94333e-06
-8.44125e-06
1.14048e-06
-8.89735e-06
-1.0129e-05
1.56376e-05
-5.43144e-06
1.51728e-05
-5.44898e-06
1.47071e-05
-5.46786e-06
1.42403e-05
-5.48907e-06
1.37723e-05
-5.51204e-06
1.33031e-05
-5.53628e-06
1.28327e-05
-5.56194e-06
1.23609e-05
-5.58933e-06
1.18876e-05
-5.61865e-06
1.14129e-05
-5.65011e-06
1.09365e-05
-5.68393e-06
1.04583e-05
-5.72046e-06
9.97823e-06
-5.76006e-06
9.49596e-06
-5.80322e-06
9.01127e-06
-5.85049e-06
8.52382e-06
-5.90258e-06
8.03318e-06
-5.96037e-06
7.5388e-06
-6.02496e-06
7.03994e-06
-6.09775e-06
6.53562e-06
-6.18051e-06
6.02451e-06
-6.27555e-06
5.50479e-06
-6.38588e-06
4.97384e-06
-6.51548e-06
4.42788e-06
-6.66968e-06
3.86135e-06
-6.8555e-06
3.26497e-06
-7.08313e-06
2.62627e-06
-7.36282e-06
1.9105e-06
-7.72548e-06
1.11049e-06
-8.09734e-06
-9.01856e-06
1.56011e-05
-4.96747e-06
1.51364e-05
-4.98425e-06
1.46708e-05
-5.00223e-06
1.42041e-05
-5.02239e-06
1.37363e-05
-5.04424e-06
1.32673e-05
-5.06731e-06
1.27971e-05
-5.09172e-06
1.23256e-05
-5.11778e-06
1.18526e-05
-5.14568e-06
1.13781e-05
-5.17561e-06
1.0902e-05
-5.20779e-06
1.0424e-05
-5.24251e-06
9.94406e-06
-5.28012e-06
9.4619e-06
-5.32106e-06
8.97725e-06
-5.36583e-06
8.48975e-06
-5.41508e-06
7.99895e-06
-5.46957e-06
7.50427e-06
-5.53028e-06
7.00497e-06
-5.59844e-06
6.50003e-06
-5.67557e-06
5.98813e-06
-5.76365e-06
5.46741e-06
-5.86517e-06
4.93533e-06
-5.98339e-06
4.38813e-06
-6.12248e-06
3.8204e-06
-6.28778e-06
3.22332e-06