/*--------------------------------*- C++ -*----------------------------------*\
  =========                 |
  \\      /  F ield         | OpenFOAM: The Open Source CFD Toolbox
   \\    /   O peration     | Website:  https://openfoam.org
    \\  /    A nd           | Version:  11
     \\/     M anipulation  |
\*---------------------------------------------------------------------------*/
FoamFile
{
    format      ascii;
    class       volScalarField;
    location    "2.6";
    object      p;
}
// * * * * * * * * * * * * * * * * * * * * * * * * * * * * * * * * * * * * * //

dimensions      [0 2 -2 0 0 0 0];

internalField   nonuniform List<scalar> 
12600
(
0.387182
0.387084
0.386993
0.386905
0.386799
0.386664
0.386499
0.386299
0.386064
0.385786
0.385461
0.385081
0.384638
0.384124
0.383527
0.382834
0.38203
0.381098
0.380017
0.378761
0.377304
0.37561
0.373643
0.371354
0.368693
0.365599
0.36201
0.357848
0.353069
0.347505
0.387132
0.387079
0.387003
0.386917
0.386813
0.38668
0.386516
0.38632
0.386087
0.385813
0.385492
0.385117
0.384681
0.384173
0.383584
0.3829
0.382107
0.381187
0.38012
0.37888
0.377441
0.375768
0.373823
0.371559
0.368924
0.365857
0.362291
0.358149
0.353356
0.347803
0.387133
0.387098
0.387033
0.386948
0.386844
0.386714
0.386555
0.386363
0.386136
0.385869
0.385555
0.385189
0.384762
0.384267
0.383691
0.383024
0.38225
0.381352
0.38031
0.3791
0.377694
0.37606
0.374156
0.371939
0.369354
0.36634
0.362823
0.358728
0.353943
0.348423
0.387151
0.387125
0.387068
0.386987
0.386886
0.386761
0.386608
0.386423
0.386204
0.385946
0.385644
0.385291
0.38488
0.384402
0.383848
0.383205
0.382459
0.381594
0.38059
0.379423
0.378067
0.376489
0.37465
0.372504
0.369996
0.367063
0.363626
0.359606
0.35487
0.349382
0.387187
0.387166
0.387116
0.387041
0.386945
0.386826
0.386681
0.386505
0.386297
0.386051
0.385763
0.385427
0.385035
0.384581
0.384054
0.383442
0.382733
0.38191
0.380955
0.379846
0.378556
0.377052
0.375298
0.373246
0.370842
0.36802
0.364697
0.360788
0.356139
0.35072
0.387238
0.387221
0.387176
0.387107
0.387017
0.386905
0.386769
0.386604
0.386408
0.386177
0.385906
0.385591
0.385224
0.384798
0.384303
0.38373
0.383066
0.382296
0.381401
0.380362
0.379152
0.377742
0.376093
0.374161
0.37189
0.369212
0.366041
0.362284
0.357768
0.352462
0.387303
0.387288
0.387248
0.387185
0.387102
0.386999
0.386873
0.38672
0.386539
0.386326
0.386076
0.385785
0.385446
0.385053
0.384597
0.384069
0.383457
0.382747
0.381924
0.380967
0.379853
0.378553
0.37703
0.375242
0.373133
0.370635
0.367656
0.364099
0.359771
0.354634
0.38738
0.387366
0.38733
0.387274
0.387199
0.387106
0.386991
0.386853
0.386688
0.386494
0.386268
0.386003
0.385697
0.385341
0.384929
0.384451
0.383899
0.383258
0.382516
0.381653
0.380648
0.379474
0.378098
0.376478
0.374561
0.372278
0.369537
0.366235
0.362161
0.35727
0.387467
0.387455
0.387424
0.387374
0.387307
0.387224
0.387122
0.386999
0.386853
0.386681
0.38648
0.386246
0.385974
0.385659
0.385295
0.384874
0.384387
0.383823
0.38317
0.382411
0.381528
0.380496
0.379285
0.377857
0.37616
0.37413
0.371674
0.368688
0.364947
0.360396
0.387563
0.387553
0.387526
0.387483
0.387425
0.387353
0.387265
0.387159
0.387032
0.386884
0.38671
0.386509
0.386275
0.386005
0.385692
0.385332
0.384916
0.384435
0.383878
0.383233
0.382482
0.381605
0.380576
0.379361
0.377913
0.376172
0.37405
0.371445
0.368125
0.364027
0.387667
0.387658
0.387636
0.3876
0.387552
0.387492
0.387418
0.387329
0.387224
0.3871
0.386956
0.386789
0.386595
0.386372
0.386115
0.385819
0.385478
0.385085
0.384631
0.384106
0.383497
0.382787
0.381954
0.38097
0.379796
0.378379
0.376637
0.374477
0.371675
0.368157
0.387778
0.387771
0.387753
0.387724
0.387686
0.387638
0.387579
0.387509
0.387425
0.387328
0.387214
0.387083
0.386932
0.386758
0.386558
0.386329
0.386067
0.385765
0.385419
0.38502
0.384559
0.384024
0.383399
0.382662
0.381782
0.380717
0.379398
0.377745
0.375554
0.372748
0.387893
0.387888
0.387875
0.387854
0.387825
0.38779
0.387747
0.387695
0.387634
0.387564
0.387482
0.387388
0.38728
0.387157
0.387017
0.386857
0.386675
0.386467
0.386231
0.385962
0.385654
0.3853
0.384889
0.384409
0.383837
0.383146
0.382284
0.381187
0.379693
0.377724
0.388013
0.388009
0.388001
0.387987
0.387969
0.387946
0.387919
0.387887
0.387849
0.387806
0.387756
0.3877
0.387636
0.387565
0.387484
0.387394
0.387294
0.387182
0.387057
0.386919
0.386765
0.386594
0.386401
0.386181
0.385925
0.385619
0.385234
0.384729
0.383995
0.382964
0.388135
0.388133
0.388129
0.388123
0.388115
0.388105
0.388094
0.388081
0.388067
0.388051
0.388034
0.388016
0.387996
0.387976
0.387956
0.387936
0.387917
0.3879
0.387886
0.387878
0.387877
0.387887
0.387909
0.387948
0.388007
0.388086
0.388181
0.388281
0.388336
0.388302
0.388258
0.388258
0.388259
0.38826
0.388262
0.388265
0.38827
0.388276
0.388285
0.388297
0.388312
0.388331
0.388356
0.388387
0.388426
0.388475
0.388536
0.388613
0.388708
0.388826
0.388974
0.389159
0.389391
0.38968
0.390042
0.390493
0.391054
0.391742
0.392575
0.393542
0.388381
0.388383
0.388388
0.388397
0.388409
0.388424
0.388445
0.38847
0.388502
0.38854
0.388587
0.388644
0.388711
0.388793
0.38889
0.389006
0.389145
0.389311
0.389511
0.389751
0.390042
0.390394
0.390822
0.391347
0.391992
0.392789
0.393781
0.395014
0.396567
0.398469
0.388503
0.388507
0.388516
0.388532
0.388553
0.388581
0.388616
0.38866
0.388714
0.388779
0.388856
0.388949
0.389058
0.389188
0.389341
0.389522
0.389735
0.389988
0.390287
0.390642
0.391065
0.391573
0.392183
0.392922
0.393823
0.394929
0.3963
0.398007
0.400178
0.402881
0.388622
0.388627
0.388641
0.388663
0.388693
0.388733
0.388783
0.388845
0.38892
0.38901
0.389117
0.389244
0.389394
0.389569
0.389776
0.390018
0.390301
0.390634
0.391026
0.391488
0.392034
0.392682
0.393455
0.394383
0.395506
0.396873
0.398559
0.400648
0.403302
0.406618
0.388737
0.388744
0.388761
0.38879
0.388829
0.388879
0.388943
0.389022
0.389117
0.389231
0.389366
0.389526
0.389713
0.389933
0.390189
0.390488
0.390837
0.391245
0.391722
0.39228
0.392936
0.393709
0.394624
0.395714
0.39702
0.398597
0.400524
0.402893
0.405873
0.409583
0.388847
0.388855
0.388876
0.38891
0.388957
0.389018
0.389095
0.38919
0.389304
0.38944
0.389602
0.389792
0.390014
0.390274
0.390577
0.390929
0.391338
0.391814
0.392367
0.393012
0.393765
0.394646
0.395681
0.396902
0.398353
0.400087
0.402179
0.404722
0.407875
0.411755
0.388951
0.38896
0.388984
0.389023
0.389078
0.389148
0.389237
0.389346
0.389478
0.389635
0.389821
0.390039
0.390294
0.39059
0.390935
0.391335
0.391799
0.392335
0.392957
0.393677
0.394514
0.395485
0.396618
0.397944
0.399501
0.40134
0.403528
0.406148
0.409332
0.413183
0.389048
0.389059
0.389085
0.389128
0.389189
0.389268
0.389367
0.38949
0.389637
0.389813
0.390021
0.390264
0.390549
0.390879
0.391262
0.391704
0.392216
0.392806
0.393487
0.394273
0.395179
0.396225
0.397435
0.398837
0.400466
0.402366
0.40459
0.407205
0.410306
0.413974
0.389138
0.389149
0.389177
0.389223
0.389289
0.389375
0.389485
0.389619
0.389781
0.389973
0.390201
0.390467
0.390777
0.391137
0.391553
0.392034
0.392587
0.393224
0.393955
0.394795
0.395759
0.396864
0.398133
0.399589
0.401261
0.403183
0.405395
0.407943
0.410884
0.414264
0.38922
0.389231
0.389259
0.389307
0.389377
0.389471
0.389588
0.389732
0.389906
0.390114
0.390358
0.390644
0.390976
0.391362
0.391807
0.392319
0.392909
0.393584
0.394358
0.395242
0.396252
0.397403
0.398714
0.400204
0.401896
0.403813
0.405981
0.408424
0.41116
0.414205
0.389294
0.389304
0.389331
0.389379
0.389453
0.389552
0.389677
0.38983
0.390014
0.390234
0.390492
0.390795
0.391146
0.391553
0.392022
0.392562
0.39318
0.393888
0.394696
0.395616
0.396661
0.397846
0.399185
0.400695
0.40239
0.404285
0.406389
0.40871
0.411231
0.41394
0.38936
0.389368
0.38939
0.389438
0.389515
0.389618
0.389748
0.389907
0.3901
0.39033
0.3906
0.390916
0.391283
0.391707
0.392195
0.392756
0.393399
0.394132
0.394966
0.395913
0.396984
0.398193
0.399552
0.40107
0.402759
0.404622
0.406658
0.408858
0.411181
0.413589
0.389421
0.389422
0.389438
0.389485
0.389564
0.389671
0.389804
0.389969
0.390168
0.390405
0.390684
0.39101
0.391388
0.391825
0.392328
0.392905
0.393565
0.394317
0.395171
0.396137
0.397227
0.398452
0.399821
0.401342
0.403019
0.40485
0.406823
0.408919
0.411085
0.413259
0.389483
0.389459
0.389462
0.38951
0.389593
0.389703
0.38984
0.390008
0.390211
0.390454
0.390739
0.391072
0.391458
0.391903
0.392416
0.393004
0.393677
0.394442
0.395308
0.396287
0.397388
0.398622
0.399997
0.401517
0.403182
0.404985
0.40691
0.408922
0.410979
0.413004
0.38957
0.389495
0.38948
0.389528
0.389613
0.389723
0.38986
0.39003
0.390236
0.390481
0.390769
0.391105
0.391496
0.391946
0.392464
0.393058
0.393736
0.394507
0.39538
0.396365
0.397472
0.39871
0.400085
0.401601
0.403257
0.405041
0.406933
0.408895
0.410861
0.412753
0.343028
0.341082
0.339705
0.33861
0.337438
0.336137
0.334773
0.333377
0.331939
0.330445
0.328883
0.32724
0.3255
0.32364
0.321617
0.319403
0.316951
0.314205
0.311092
0.307521
0.303372
0.298488
0.292649
0.28557
0.276805
0.26583
0.251713
0.2322
0.212616
0.158605
0.343905
0.342432
0.341184
0.340059
0.338865
0.337586
0.336282
0.334972
0.333638
0.332259
0.330821
0.329311
0.327711
0.325995
0.324136
0.322103
0.319858
0.317351
0.31452
0.311288
0.307551
0.303176
0.297978
0.291721
0.284033
0.274499
0.262227
0.246171
0.227458
0.184848
0.34428
0.343091
0.342048
0.340999
0.3399
0.338769
0.337631
0.336478
0.335292
0.334057
0.332764
0.331403
0.329959
0.328413
0.326743
0.324922
0.322918
0.32069
0.318187
0.315343
0.312074
0.308271
0.303784
0.298422
0.291882
0.283847
0.273549
0.260446
0.24385
0.211145
0.34518
0.344268
0.343463
0.342538
0.34154
0.340534
0.339527
0.338499
0.337439
0.336338
0.335193
0.333992
0.332723
0.331369
0.329913
0.328334
0.326604
0.324691
0.322555
0.320143
0.317389
0.314207
0.310479
0.306058
0.300702
0.294179
0.285831
0.275424
0.261478
0.237206
0.346494
0.345784
0.345161
0.344347
0.343451
0.342573
0.341709
0.340829
0.339922
0.338985
0.338013
0.336999
0.335931
0.334798
0.333586
0.332281
0.330861
0.329302
0.327575
0.32564
0.323447
0.320934
0.318011
0.314569
0.310422
0.305407
0.298967
0.291098
0.279994
0.262843
0.348226
0.347704
0.347266
0.346586
0.345818
0.345085
0.344378
0.343659
0.342917
0.342155
0.341372
0.340562
0.339716
0.338828
0.337889
0.336888
0.335811
0.334642
0.333361
0.33194
0.330346
0.328535
0.326445
0.323998
0.321057
0.317513
0.31291
0.307404
0.299091
0.287845
0.350421
0.350086
0.349836
0.349301
0.348668
0.348087
0.347547
0.347002
0.346442
0.345875
0.345302
0.344719
0.344122
0.343507
0.342869
0.342202
0.341499
0.340751
0.339946
0.33907
0.338101
0.337013
0.335766
0.334309
0.332546
0.33041
0.327538
0.324181
0.318471
0.312003
0.353132
0.352988
0.352932
0.352552
0.352067
0.351651
0.351291
0.350936
0.350577
0.350223
0.349881
0.349547
0.349221
0.348901
0.348588
0.34828
0.347975
0.347671
0.347364
0.347049
0.346717
0.346354
0.345939
0.345443
0.344802
0.343979
0.342692
0.341226
0.337837
0.335102
0.356413
0.356462
0.356602
0.356388
0.356064
0.355825
0.355659
0.355509
0.355366
0.355243
0.355148
0.355082
0.355045
0.35504
0.35507
0.355138
0.355247
0.3554
0.3556
0.355849
0.356148
0.356493
0.356878
0.357287
0.357683
0.358046
0.358162
0.3583
0.356897
0.356943
0.360305
0.360547
0.360884
0.360844
0.360693
0.360644
0.360683
0.36075
0.360836
0.360956
0.361123
0.361338
0.361603
0.361924
0.362307
0.362758
0.363285
0.363895
0.364596
0.365395
0.3663
0.367315
0.368441
0.369676
0.370996
0.37239
0.373696
0.375133
0.375357
0.377361
0.364827
0.365258
0.365785
0.365926
0.36596
0.366108
0.366359
0.366651
0.366974
0.367346
0.36778
0.368281
0.368852
0.369501
0.370236
0.371067
0.372003
0.373055
0.374233
0.37555
0.377016
0.378641
0.380431
0.382388
0.384496
0.386746
0.38901
0.391442
0.39293
0.396195
0.369959
0.370569
0.371272
0.371597
0.371823
0.372174
0.372638
0.373156
0.373716
0.374338
0.375038
0.375821
0.376692
0.37766
0.378734
0.379926
0.381247
0.38271
0.384327
0.386112
0.388077
0.390233
0.392589
0.395147
0.397894
0.400817
0.403807
0.40695
0.409363
0.413303
0.37563
0.376401
0.377259
0.377764
0.378184
0.378734
0.379407
0.380142
0.380932
0.381796
0.38275
0.3838
0.384953
0.386217
0.387604
0.389126
0.390794
0.392623
0.394624
0.396812
0.399199
0.401796
0.40461
0.40764
0.410873
0.414288
0.417788
0.421404
0.424444
0.428595
0.3817
0.382607
0.383593
0.384267
0.384876
0.385616
0.386482
0.38742
0.388422
0.389508
0.390694
0.391986
0.393391
0.39492
0.396582
0.39839
0.400357
0.402494
0.404814
0.40733
0.410054
0.412992
0.41615
0.419523
0.423095
0.426835
0.430653
0.434538
0.437948
0.442014
0.387962
0.388975
0.390055
0.390881
0.391666
0.392579
0.393615
0.394732
0.395921
0.397201
0.398587
0.400087
0.401707
0.403457
0.405347
0.40739
0.409596
0.411978
0.414546
0.417311
0.420282
0.423464
0.426857
0.430453
0.434227
0.438141
0.442106
0.446072
0.449598
0.453431
0.394147
0.395236
0.396377
0.397331
0.398271
0.399331
0.40051
0.401773
0.403117
0.404556
0.406105
0.407771
0.409561
0.411484
0.413551
0.415772
0.418157
0.420717
0.423461
0.426398
0.429533
0.432868
0.436399
0.44011
0.443973
0.447938
0.451912
0.455805
0.459249
0.462681
0.399961
0.401096
0.402268
0.403321
0.404387
0.405565
0.406853
0.408228
0.409688
0.411247
0.412917
0.414704
0.416617
0.418664
0.420854
0.423196
0.425701
0.428376
0.431229
0.434268
0.437493
0.440905
0.444493
0.448238
0.452105
0.456034
0.459928
0.463663
0.466923
0.469844
0.405118
0.406275
0.407453
0.408575
0.409734
0.410995
0.412357
0.413807
0.415345
0.416983
0.418731
0.420596
0.422585
0.424706
0.426968
0.42938
0.431949
0.434683
0.437588
0.440668
0.443923
0.44735
0.450935
0.454654
0.458467
0.462309
0.466076
0.469626
0.472686
0.475163
0.409395
0.410552
0.411721
0.41288
0.414096
0.415405
0.416807
0.418295
0.419873
0.42155
0.423335
0.425235
0.427257
0.429408
0.431696
0.43413
0.436715
0.439459
0.442366
0.445438
0.448675
0.452069
0.455604
0.459254
0.462974
0.466694
0.470306
0.473651
0.476474
0.478513
0.412661
0.413804
0.41495
0.416119
0.417356
0.418679
0.420088
0.421581
0.423163
0.424843
0.426628
0.428524
0.430539
0.432679
0.434953
0.437366
0.439926
0.442638
0.445505
0.448528
0.451706
0.455027
0.458476
0.462022
0.465616
0.469183
0.472609
0.475721
0.478263
0.479871
0.414898
0.416013
0.41713
0.418282
0.419506
0.420812
0.422198
0.423664
0.425218
0.426867
0.428618
0.430476
0.432449
0.434543
0.436766
0.439123
0.441621
0.444264
0.447055
0.449995
0.453079
0.456296
0.459627
0.46304
0.466481
0.469871
0.47309
0.47595
0.478199
0.47943
0.416197
0.417274
0.418354
0.419468
0.420651
0.421911
0.423247
0.424661
0.426159
0.427748
0.429434
0.431223
0.433123
0.435139
0.437279
0.439548
0.441953
0.444496
0.44718
0.450005
0.452964
0.456047
0.459231
0.462481
0.465741
0.468925
0.471907
0.474483
0.476413
0.477101
0.416717
0.417743
0.418777
0.419835
0.420952
0.422144
0.423409
0.424748
0.426166
0.427671
0.429268
0.430964
0.432765
0.434677
0.436707
0.43886
0.441141
0.443554
0.446101
0.448779
0.451582
0.454497
0.457501
0.460554
0.463598
0.466537
0.469244
0.471479
0.473077
0.47296
0.416658
0.41762
0.418596
0.419581
0.420615
0.421719
0.422894
0.424138
0.425455
0.426854
0.42834
0.429919
0.431598
0.433382
0.435277
0.437288
0.439421
0.441677
0.444058
0.446561
0.449179
0.451896
0.454686
0.457509
0.4603
0.462956
0.46535
0.467191
0.468441
0.467576
0.416228
0.417114
0.418018
0.418918
0.419856
0.420861
0.421932
0.423067
0.42427
0.425548
0.426907
0.428353
0.429892
0.431528
0.433269
0.435117
0.437078
0.439153
0.441343
0.443644
0.446046
0.448533
0.451076
0.45363
0.456127
0.458452
0.460479
0.461854
0.462651
0.460951
0.415622
0.416417
0.417233
0.418036
0.418869
0.419762
0.420717
0.42173
0.422805
0.423949
0.425167
0.426466
0.427851
0.429326
0.430897
0.432567
0.434339
0.436215
0.438194
0.440269
0.442431
0.444659
0.446922
0.449169
0.451325
0.453262
0.454849
0.455655
0.455841
0.4529
0.41499
0.415684
0.416402
0.417107
0.417837
0.418619
0.419454
0.420341
0.421285
0.42229
0.423362
0.424506
0.425727
0.427029
0.428418
0.429895
0.431464
0.433124
0.434873
0.436703
0.438599
0.44054
0.442489
0.444387
0.446152
0.447633
0.448696
0.44881
0.448267
0.443694
0.414478
0.415027
0.415598
0.416187
0.416808
0.417466
0.418171
0.418927
0.419732
0.420588
0.421504
0.422489
0.423543
0.42467
0.425873
0.427154
0.428514
0.429953
0.431464
0.433038
0.434658
0.436296
0.43791
0.439432
0.440769
0.441746
0.442219
0.441539
0.440213
0.433628
0.414321
0.41469
0.41508
0.415574
0.416102
0.416632
0.417208
0.417853
0.418538
0.419248
0.420002
0.420816
0.421693
0.422635
0.423642
0.424717
0.425858
0.427063
0.428323
0.429627
0.430952
0.432264
0.433514
0.434622
0.435482
0.435889
0.435691
0.434082
0.43198
0.422845
0.414106
0.414198
0.414412
0.414797
0.415237
0.415668
0.416097
0.416564
0.417086
0.417654
0.418265
0.418924
0.419633
0.420397
0.421216
0.422091
0.42302
0.423998
0.425017
0.426061
0.427104
0.428106
0.429009
0.429718
0.430113
0.429954
0.429087
0.426412
0.423806
0.411509
0.400174
0.388736
0.376788
0.364818
0.353315
0.342605
0.332953
0.324785
0.318583
0.314811
0.314034
0.316512
0.322455
0.331997
0.342401
0.34906
0.349999
0.348677
0.347084
0.34603
0.345263
0.343866
0.341935
0.339633
0.337098
0.334715
0.330389
0.324475
0.317345
0.308416
0.416113
0.406793
0.396518
0.386217
0.376157
0.366472
0.357582
0.349882
0.343556
0.338725
0.336224
0.336324
0.338529
0.342963
0.349249
0.35375
0.352913
0.34906
0.34762
0.346897
0.345273
0.343751
0.34191
0.339154
0.33553
0.330733
0.324169
0.316922
0.309664
0.301557
0.418981
0.410084
0.400646
0.391392
0.381817
0.372322
0.36357
0.355715
0.348886
0.343553
0.340239
0.339233
0.340295
0.343065
0.347486
0.35012
0.349995
0.348338
0.347973
0.347175
0.345821
0.34475
0.342493
0.338374
0.331718
0.323025
0.313557
0.305222
0.299003
0.293293
0.423226
0.416147
0.408323
0.399743
0.390988
0.382381
0.374064
0.366149
0.35906
0.353216
0.348982
0.346631
0.346113
0.347106
0.349153
0.350553
0.350683
0.348952
0.347826
0.34735
0.346275
0.345032
0.342394
0.335838
0.324097
0.309872
0.296873
0.288281
0.285569
0.285348
0.424904
0.418692
0.411579
0.404075
0.396279
0.388282
0.380286
0.372627
0.365671
0.359693
0.355038
0.351986
0.350565
0.3505
0.351269
0.351897
0.351511
0.349968
0.348377
0.346995
0.345587
0.342839
0.338785
0.329438
0.31206
0.290822
0.273533
0.265594
0.269552
0.27992
0.425803
0.420581
0.414517
0.407912
0.400838
0.393396
0.385814
0.378384
0.371416
0.365222
0.360138
0.356436
0.354188
0.353194
0.352979
0.352878
0.352049
0.350452
0.348604
0.346522
0.343704
0.338975
0.331928
0.318777
0.297271
0.271805
0.254111
0.250943
0.259756
0.281627
0.426004
0.421596
0.416362
0.410488
0.404084
0.39725
0.390158
0.383051
0.376219
0.369979
0.364648
0.360484
0.35759
0.35583
0.354822
0.354004
0.352748
0.350891
0.348642
0.345836
0.341962
0.335477
0.325515
0.310296
0.288162
0.264587
0.250945
0.253717
0.270932
0.29999
0.425789
0.422083
0.417598
0.412414
0.406631
0.400349
0.393706
0.386916
0.380252
0.374021
0.368528
0.364024
0.360636
0.358279
0.356642
0.355246
0.353591
0.351433
0.348781
0.345413
0.340816
0.334008
0.323011
0.30847
0.290923
0.274492
0.269314
0.280234
0.301889
0.329895
0.425304
0.422199
0.418362
0.413787
0.408565
0.402792
0.396589
0.390133
0.38367
0.377494
0.371899
0.367139
0.363357
0.360511
0.358353
0.356478
0.354458
0.352013
0.349041
0.345311
0.340341
0.33354
0.324069
0.313089
0.301199
0.292907
0.295965
0.312006
0.335256
0.360741
0.424658
0.422064
0.41879
0.414756
0.410042
0.404741
0.398954
0.392828
0.386585
0.380498
0.374856
0.36991
0.365816
0.362569
0.359975
0.357691
0.355339
0.352636
0.349425
0.345485
0.340453
0.334014
0.326177
0.318099
0.311396
0.310176
0.318793
0.336917
0.359842
0.384118
0.423923
0.421766
0.418976
0.415419
0.411164
0.406297
0.400901
0.395097
0.38908
0.383108
0.377458
0.372379
0.36804
0.364466
0.361508
0.358876
0.356236
0.353315
0.349938
0.345918
0.341039
0.33525
0.328976
0.323566
0.321119
0.32459
0.335934
0.354029
0.375336
0.397049
0.423148
0.421364
0.418992
0.415855
0.41201
0.407542
0.402512
0.397016
0.391227
0.385385
0.379756
0.374587
0.370054
0.366211
0.362946
0.360019
0.357134
0.354039
0.350565
0.346576
0.342001
0.337014
0.332301
0.329325
0.330021
0.336275
0.348692
0.365697
0.384478
0.401948
0.422366
0.420901
0.41889
0.416122
0.412647
0.408541
0.40385
0.398647
0.393084
0.387382
0.381794
0.376566
0.371882
0.367815
0.364293
0.361115
0.358024
0.354794
0.35128
0.347409
0.343235
0.339104
0.335853
0.334889
0.337765
0.345564
0.358095
0.373446
0.389212
0.402128
0.421598
0.420407
0.418709
0.416267
0.413123
0.409347
0.404969
0.400042
0.394698
0.389139
0.383609
0.378346
0.373542
0.369291
0.36555
0.362158
0.358896
0.355568
0.352061
0.348365
0.344641
0.341351
0.339385
0.339991
0.344308
0.352822
0.364805
0.37815
0.390724
0.399106
0.42086
0.419906
0.418478
0.416323
0.413476
0.41
0.40591
0.401242
0.396107
0.390694
0.38523
0.379951
0.375053
0.370647
0.36672
0.363146
0.359742
0.356346
0.352881
0.349397
0.346136
0.343626
0.342745
0.344517
0.349716
0.358347
0.369304
0.380456
0.38997
0.394141
0.42016
0.419411
0.418218
0.416317
0.413737
0.410534
0.406708
0.40228
0.397346
0.392074
0.386683
0.381401
0.376429
0.371892
0.367805
0.364075
0.360554
0.357115
0.353718
0.350464
0.347653
0.345839
0.345837
0.348428
0.354077
0.362372
0.371999
0.380935
0.387606
0.388737
0.419505
0.418934
0.417945
0.416269
0.413931
0.410974
0.407391
0.403187
0.39844
0.393307
0.387991
0.382714
0.377683
0.373035
0.368809
0.364945
0.361327
0.357863
0.354551
0.351531
0.34914
0.347928
0.34861
0.351728
0.357482
0.365109
0.373245
0.379976
0.383825
0.382252
0.418896
0.418482
0.41767
0.416196
0.414075
0.411344
0.407982
0.403984
0.399415
0.394414
0.389172
0.383907
0.378826
0.374082
0.369734
0.365752
0.362054
0.35858
0.35536
0.352569
0.35056
0.349856
0.351043
0.354475
0.359997
0.366776
0.373313
0.377824
0.378773
0.374357
0.418334
0.418058
0.417403
0.41611
0.414186
0.41166
0.408501
0.404694
0.40029
0.395413
0.390243
0.384993
0.37987
0.375039
0.370583
0.366496
0.36273
0.359256
0.356132
0.353556
0.351884
0.351591
0.353124
0.356678
0.361767
0.367549
0.372414
0.374703
0.372808
0.365756
0.417817
0.417664
0.41715
0.41602
0.414276
0.411937
0.408964
0.405332
0.401081
0.396321
0.391219
0.385983
0.380823
0.375914
0.371357
0.367176
0.363352
0.359882
0.356853
0.354475
0.353094
0.353123
0.354875
0.358336
0.362919
0.367584
0.370738
0.370847
0.366303
0.35687
0.41734
0.4173
0.416913
0.415933
0.414355
0.412186
0.409384
0.405914
0.401804
0.397152
0.392113
0.386889
0.381692
0.37671
0.37206
0.367792
0.363914
0.360453
0.357513
0.355313
0.354178
0.354449
0.356311
0.359562
0.363517
0.367
0.36845
0.366455
0.359488
0.347876
0.4169
0.416964
0.416695
0.415855
0.41443
0.412419
0.409773
0.406451
0.402472
0.397918
0.392935
0.387719
0.382486
0.377432
0.372693
0.368341
0.364415
0.360963
0.358106
0.356065
0.355132
0.355577
0.357452
0.360413
0.36365
0.365918
0.365691
0.361681
0.352492
0.338913
0.416496
0.416653
0.416494
0.415787
0.414506
0.412642
0.41014
0.406956
0.403095
0.39863
0.393696
0.388483
0.383211
0.378084
0.373257
0.368825
0.36485
0.361404
0.358621
0.356717
0.35595
0.356511
0.358325
0.360925
0.363392
0.364433
0.36257
0.356634
0.345405
0.330007
0.41613
0.416368
0.416311
0.415729
0.414588
0.412863
0.410494
0.407436
0.403685
0.399298
0.394404
0.389187
0.38387
0.37867
0.373755
0.369244
0.365224
0.361783
0.359068
0.357284
0.35665
0.357282
0.358981
0.361166
0.362829
0.362642
0.359183
0.351398
0.338277
0.321175
0.415802
0.416113
0.416144
0.415683
0.414679
0.413086
0.41084
0.407899
0.404248
0.399932
0.395069
0.389842
0.384474
0.379193
0.374183
0.369585
0.365512
0.36207
0.359411
0.357728
0.357203
0.357875
0.359416
0.361155
0.362003
0.360601
0.355593
0.346035
0.331162
0.312492
0.415504
0.415885
0.415993
0.415647
0.414777
0.413318
0.411187
0.408352
0.40479
0.400533
0.395691
0.390445
0.385023
0.379666
0.37457
0.369893
0.36577
0.362326
0.359718
0.35812
0.357679
0.358371
0.359728
0.360995
0.36101
0.358389
0.351843
0.340547
0.324016
0.303871
0.415233
0.415676
0.415855
0.415619
0.414875
0.413555
0.411547
0.408816
0.405337
0.40113
0.396294
0.391004
0.385499
0.38003
0.374822
0.370057
0.365876
0.36242
0.359856
0.35835
0.357989
0.358664
0.359844
0.360657
0.359862
0.356059
0.348038
0.335104
0.317052
0.295582
0.414992
0.415475
0.41573
0.415613
0.414983
0.413748
0.411875
0.409245
0.40585
0.401702
0.396893
0.391591
0.386024
0.380449
0.375128
0.370273
0.36603
0.362555
0.360026
0.358601
0.358306
0.358927
0.359909
0.360248
0.358593
0.353523
0.343906
0.329169
0.309582
0.286812
0.414805
0.41527
0.415604
0.415639
0.415181
0.414088
0.412264
0.40971
0.406342
0.40218
0.397319
0.391935
0.386267
0.380582
0.375159
0.370222
0.365935
0.362466
0.359998
0.358673
0.35846
0.359063
0.359908
0.359845
0.357486
0.351378
0.340431
0.324244
0.303584
0.279985
0.414694
0.41505
0.415394
0.415537
0.415242
0.414323
0.412728
0.41034
0.407118
0.403046
0.398187
0.39272
0.386915
0.381065
0.375467
0.370368
0.365956
0.362415
0.359931
0.358643
0.358489
0.359079
0.359733
0.359113
0.355658
0.34783
0.334545
0.315787
0.292674
0.268346
0.156105
0.150466
0.162075
0.176653
0.183831
0.193143
0.203757
0.213869
0.223308
0.232177
0.240271
0.247516
0.253931
0.25956
0.264459
0.268688
0.272308
0.27538
0.277958
0.280098
0.281857
0.283272
0.284435
0.285329
0.286135
0.286734
0.287443
0.287967
0.288861
0.287427
0.156577
0.157814
0.1678
0.176948
0.182249
0.189698
0.199442
0.209169
0.218549
0.227562
0.235941
0.243548
0.250357
0.256394
0.261708
0.266352
0.270383
0.273853
0.276817
0.279319
0.281411
0.283119
0.284509
0.285574
0.286416
0.286977
0.28743
0.287571
0.287842
0.287469
0.160561
0.166246
0.173776
0.17909
0.179076
0.184879
0.193395
0.202837
0.212329
0.221523
0.230211
0.23827
0.245601
0.252179
0.258038
0.263227
0.267795
0.27179
0.275259
0.278245
0.280792
0.282929
0.284697
0.286114
0.287225
0.288033
0.288612
0.288915
0.289173
0.289361
0.161829
0.167474
0.181778
0.184152
0.178313
0.181244
0.187796
0.196816
0.206762
0.216372
0.22545
0.233988
0.241864
0.24899
0.255374
0.26106
0.266101
0.270547
0.274447
0.277845
0.280784
0.2833
0.285428
0.287197
0.288638
0.289771
0.290631
0.291225
0.291578
0.291831
0.154861
0.166238
0.191289
0.190411
0.176372
0.175786
0.181734
0.189726
0.200152
0.210498
0.22012
0.229144
0.237564
0.245274
0.252232
0.258458
0.264005
0.268928
0.27328
0.277111
0.280465
0.28338
0.285891
0.288027
0.289815
0.291277
0.29243
0.293308
0.293875
0.294353
0.1509
0.164289
0.188483
0.194914
0.176793
0.167936
0.172145
0.17937
0.190045
0.20181
0.212698
0.222583
0.231712
0.240123
0.247779
0.254676
0.260853
0.266368
0.271279
0.275639
0.279497
0.282893
0.285865
0.288444
0.290656
0.292526
0.294068
0.295321
0.296236
0.297061
0.147803
0.162053
0.17382
0.180016
0.172588
0.159734
0.15895
0.165963
0.176023
0.189062
0.201976
0.213564
0.223937
0.233354
0.241917
0.249657
0.25661
0.262839
0.268413
0.273393
0.277835
0.281786
0.28529
0.288383
0.291096
0.293455
0.295473
0.297191
0.298552
0.29981
0.134748
0.15222
0.148255
0.147791
0.14964
0.144351
0.140336
0.14692
0.158379
0.1722
0.187027
0.201077
0.213517
0.224475
0.234276
0.243097
0.251016
0.258112
0.264471
0.270171
0.27528
0.279856
0.283952
0.287612
0.290874
0.293771
0.296321
0.298568
0.300452
0.302233
0.108505
0.131486
0.119864
0.114195
0.115233
0.115933
0.1145
0.119069
0.132484
0.149099
0.166133
0.183165
0.198755
0.212279
0.224026
0.234373
0.243559
0.251749
0.259071
0.265635
0.271526
0.276821
0.281585
0.285873
0.289733
0.293207
0.296322
0.299131
0.301578
0.303925
0.076708
0.103808
0.0926315
0.0859515
0.0836917
0.0828936
0.0830952
0.0867384
0.0977694
0.116236
0.137635
0.158043
0.177321
0.194552
0.209505
0.222325
0.233416
0.243128
0.251713
0.259357
0.266196
0.272338
0.277872
0.28287
0.287392
0.291492
0.295205
0.298593
0.301608
0.304509
0.0453381
0.0745025
0.0670073
0.0618065
0.0573716
0.0536057
0.0521962
0.0545011
0.0623216
0.0776717
0.099605
0.124261
0.147574
0.169103
0.188471
0.205064
0.21916
0.231208
0.241624
0.250739
0.258792
0.265966
0.272403
0.278209
0.283468
0.288251
0.292606
0.296605
0.300207
0.303675
0.0186351
0.0480305
0.0441509
0.040966
0.0352804
0.0296512
0.0259376
0.0257703
0.0302807
0.0410057
0.0590542
0.0829544
0.109374
0.135209
0.159093
0.180431
0.198761
0.21429
0.227486
0.238783
0.248552
0.2571
0.264663
0.271419
0.277502
0.283019
0.288042
0.292663
0.296852
0.300872
-0.00108015
0.0270289
0.0255201
0.023993
0.0178192
0.0111145
0.00566253
0.00282778
0.00404051
0.0103652
0.0231042
0.0426908
0.0675599
0.0950028
0.122529
0.148191
0.171061
0.190892
0.207816
0.222177
0.234397
0.24488
0.253967
0.261933
0.268997
0.275326
0.28104
0.286264
0.290998
0.295496
-0.0129558
0.0133787
0.0132731
0.01225
0.00589294
-0.00143776
-0.00817645
-0.0131004
-0.0147761
-0.0121722
-0.00428618
0.00993236
0.0304416
0.0557763
0.0834984
0.111384
0.137777
0.161614
0.182439
0.200324
0.215572
0.228548
0.239632
0.249173
0.25747
0.264766
0.271245
0.277075
0.282316
0.2872
-0.0157629
0.00829266
0.00805781
0.00701084
0.000636981
-0.00711782
-0.0148728
-0.0212449
-0.02515
-0.0254671
-0.0214049
-0.0119688
0.00346846
0.0244886
0.0496098
0.0768127
0.104086
0.130312
0.154043
0.174906
0.192999
0.208526
0.221772
0.233085
0.242796
0.251198
0.25853
0.265004
0.270746
0.275963
-0.0104354
0.0112433
0.0109771
0.0094217
0.00292052
-0.00513532
-0.0135639
-0.0209335
-0.0263357
-0.0287848
-0.0274868
-0.0216464
-0.0105166
0.0060375
0.0272729
0.0517352
0.0776378
0.103409
0.127804
0.150051
0.169836
0.187125
0.202017
0.214773
0.225698
0.23508
0.24318
0.250232
0.25642
0.261893
0.00260965
0.0222604
0.0215697
0.0194927
0.0129279
0.00476975
-0.00389699
-0.0117543
-0.0179216
-0.0216879
-0.0221918
-0.0187467
-0.0107132
0.00218388
0.0195825
0.0404888
0.0636464
0.0872392
0.110344
0.131824
0.151216
0.168542
0.183699
0.196802
0.208072
0.217748
0.226067
0.233248
0.23951
0.24496
0.0226436
0.0399626
0.0391427
0.0368201
0.0302614
0.022258
0.0137799
0.00601345
-0.000144164
-0.00422554
-0.00546041
-0.00325741
0.00289474
0.0132037
0.0273808
0.0446668
0.0640885
0.0843572
0.104352
0.123173
0.140557
0.156147
0.169834
0.181715
0.191941
0.200694
0.20817
0.214515
0.220069
0.224681
0.0476649
0.0631766
0.0622606
0.0602453
0.0541725
0.0467582
0.0389434
0.0318516
0.026265
0.0225986
0.0215497
0.0235832
0.028974
0.0377333
0.0494971
0.0636092
0.0791905
0.0953128
0.110995
0.12589
0.139695
0.151938
0.162588
0.171738
0.179514
0.186039
0.191437
0.19577
0.199319
0.201122
0.0753389
0.0900708
0.0895341
0.0881469
0.0830132