/*--------------------------------*- C++ -*----------------------------------*\
  =========                 |
  \\      /  F ield         | OpenFOAM: The Open Source CFD Toolbox
   \\    /   O peration     | Website:  https://openfoam.org
    \\  /    A nd           | Version:  11
     \\/     M anipulation  |
\*---------------------------------------------------------------------------*/
FoamFile
{
    format      ascii;
    class       surfaceScalarField;
    location    "2.6";
    object      phi;
}
// * * * * * * * * * * * * * * * * * * * * * * * * * * * * * * * * * * * * * //

dimensions      [0 3 -1 0 0 0 0];

internalField   nonuniform List<scalar> 
24840
(
1.57973e-05
1.36428e-08
1.57788e-05
1.85523e-08
1.57615e-05
1.73112e-08
1.57443e-05
1.71756e-08
1.57268e-05
1.74858e-08
1.57092e-05
1.75776e-08
1.56917e-05
1.75171e-08
1.56743e-05
1.73983e-08
1.56571e-05
1.72226e-08
1.56401e-05
1.69783e-08
1.56234e-05
1.66614e-08
1.56072e-05
1.62644e-08
1.55914e-05
1.57753e-08
1.55762e-05
1.51788e-08
1.55618e-05
1.44504e-08
1.55482e-05
1.35465e-08
1.55358e-05
1.24362e-08
1.55247e-05
1.11005e-08
1.55152e-05
9.46279e-09
1.55079e-05
7.35183e-09
1.55031e-05
4.78522e-09
1.55014e-05
1.6669e-09
1.55036e-05
-2.2048e-09
1.55106e-05
-6.99597e-09
1.55236e-05
-1.29869e-08
1.5544e-05
-2.03884e-08
1.5574e-05
-3.00452e-08
1.56168e-05
-4.27132e-08
1.56809e-05
-6.4152e-08
-1.3734e-07
1.58183e-05
1.5817e-05
7.59487e-09
1.58208e-05
1.47851e-08
1.58235e-05
1.45977e-08
1.58258e-05
1.49104e-08
1.58278e-05
1.53964e-08
1.58299e-05
1.556e-08
1.58319e-05
1.54553e-08
1.58341e-05
1.52319e-08
1.58364e-05
1.48853e-08
1.5839e-05
1.44028e-08
1.58419e-05
1.37822e-08
1.58451e-05
1.3007e-08
1.58489e-05
1.20553e-08
1.58531e-05
1.09002e-08
1.58581e-05
9.49886e-09
1.58639e-05
7.75678e-09
1.58707e-05
5.61641e-09
1.58788e-05
3.03865e-09
1.58883e-05
-8.41268e-11
1.58998e-05
-4.1211e-09
1.59136e-05
-8.99252e-09
1.59302e-05
-1.4943e-08
1.59502e-05
-2.22737e-08
1.59746e-05
-3.13124e-08
1.6004e-05
-4.24261e-08
1.60399e-05
-5.63277e-08
1.60831e-05
-7.31905e-08
1.61377e-05
-9.72873e-08
1.61953e-05
-1.21807e-07
-1.56424e-07
1.62144e-05
1.58137e-05
4.90704e-09
1.58171e-05
1.13562e-08
1.58193e-05
1.2413e-08
1.58215e-05
1.26638e-08
1.58238e-05
1.31577e-08
1.58258e-05
1.34677e-08
1.58279e-05
1.33543e-08
1.58301e-05
1.30535e-08
1.58325e-05
1.25565e-08
1.5835e-05
1.18516e-08
1.58379e-05
1.09358e-08
1.58411e-05
9.78274e-09
1.58448e-05
8.37121e-09
1.5849e-05
6.67489e-09
1.58538e-05
4.66131e-09
1.58594e-05
2.16104e-09
1.5866e-05
-9.2072e-10
1.58736e-05
-4.58383e-09
1.58826e-05
-9.15358e-09
1.58934e-05
-1.48833e-08
1.59063e-05
-2.19069e-08
1.59219e-05
-3.05283e-08
1.59408e-05
-4.11337e-08
1.59636e-05
-5.41856e-08
1.59914e-05
-7.02207e-08
1.60252e-05
-9.00632e-08
1.60664e-05
-1.14377e-07
1.6114e-05
-1.44909e-07
1.61733e-05
-1.81081e-07
-2.12572e-07
1.62294e-05
1.58125e-05
3.33413e-09
1.58154e-05
8.52585e-09
1.58175e-05
1.02765e-08
1.58195e-05
1.06853e-08
1.58215e-05
1.10957e-08
1.58236e-05
1.14236e-08
1.58256e-05
1.13174e-08
1.58277e-05
1.09371e-08
1.583e-05
1.02859e-08
1.58325e-05
9.35997e-09
1.58353e-05
8.16051e-09
1.58384e-05
6.64256e-09
1.5842e-05
4.78532e-09
1.58461e-05
2.55261e-09
1.58508e-05
-2.66944e-11
1.58563e-05
-3.28392e-09
1.58626e-05
-7.22151e-09
1.587e-05
-1.20023e-08
1.58788e-05
-1.79345e-08
1.58892e-05
-2.53138e-08
1.59017e-05
-3.44092e-08
1.59168e-05
-4.55984e-08
1.5935e-05
-5.93519e-08
1.59571e-05
-7.62522e-08
1.59838e-05
-9.69999e-08
1.60163e-05
-1.22514e-07
1.60557e-05
-1.53757e-07
1.61024e-05
-1.91687e-07
1.61598e-05
-2.38459e-07
-2.79625e-07
1.62269e-05
1.58119e-05
2.35333e-09
1.58141e-05
6.39326e-09
1.5816e-05
8.30731e-09
1.58179e-05
8.86884e-09
1.58198e-05
9.20462e-09
1.58217e-05
9.44747e-09
1.58237e-05
9.33637e-09
1.58258e-05
8.87062e-09
1.5828e-05
8.06859e-09
1.58304e-05
6.92968e-09
1.58331e-05
5.45029e-09
1.58362e-05
3.59095e-09
1.58397e-05
1.32408e-09
1.58436e-05
-1.41531e-09
1.58482e-05
-4.59369e-09
1.58534e-05
-8.52025e-09
1.58595e-05
-1.3293e-08
1.58666e-05
-1.91354e-08
1.58751e-05
-2.63622e-08
1.58851e-05
-3.53211e-08
1.5897e-05
-4.63789e-08
1.59114e-05
-5.9995e-08
1.59288e-05
-7.67328e-08
1.59498e-05
-9.72875e-08
1.59754e-05
-1.22509e-07
1.60063e-05
-1.53434e-07
1.60438e-05
-1.91293e-07
1.60891e-05
-2.36954e-07
1.61442e-05
-2.93625e-07
-3.48418e-07
1.6213e-05
1.58116e-05
1.69437e-09
1.58133e-05
4.7636e-09
1.5815e-05
6.52182e-09
1.58168e-05
7.15322e-09
1.58185e-05
7.42374e-09
1.58204e-05
7.56705e-09
1.58223e-05
7.40943e-09
1.58244e-05
6.85881e-09
1.58265e-05
5.91524e-09
1.58289e-05
4.57575e-09
1.58315e-05
2.82304e-09
1.58344e-05
6.38829e-10
1.58378e-05
-2.0093e-09
1.58416e-05
-5.19997e-09
1.58459e-05
-8.95803e-09
1.58509e-05
-1.35245e-08
1.58567e-05
-1.90854e-08
1.58635e-05
-2.59089e-08
1.58715e-05
-3.43403e-08
1.58809e-05
-4.47816e-08
1.58922e-05
-5.76803e-08
1.59058e-05
-7.3572e-08
1.59222e-05
-9.31067e-08
1.5942e-05
-1.17086e-07
1.5966e-05
-1.46499e-07
1.59951e-05
-1.82531e-07
1.60304e-05
-2.26666e-07
1.60735e-05
-2.80003e-07
1.61261e-05
-3.46249e-07
-4.15421e-07
1.61931e-05
1.58114e-05
1.21454e-09
1.58127e-05
3.48333e-09
1.58143e-05
4.94369e-09
1.58159e-05
5.54979e-09
1.58176e-05
5.75851e-09
1.58193e-05
5.79928e-09
1.58212e-05
5.56299e-09
1.58231e-05
4.92216e-09
1.58252e-05
3.8417e-09
1.58275e-05
2.3105e-09
1.583e-05
3.08323e-10
1.58328e-05
-2.1834e-09
1.5836e-05
-5.19581e-09
1.58396e-05
-8.80193e-09
1.58437e-05
-1.30835e-08
1.58484e-05
-1.82476e-08
1.58539e-05
-2.45375e-08
1.58602e-05
-3.2264e-08
1.58677e-05
-4.18102e-08
1.58766e-05
-5.36248e-08
1.58871e-05
-6.82199e-08
1.58997e-05
-8.62023e-08
1.59149e-05
-1.08307e-07
1.59333e-05
-1.35437e-07
1.59555e-05
-1.68717e-07
1.59825e-05
-2.09499e-07
1.60153e-05
-2.59503e-07
1.60555e-05
-3.20229e-07
1.61049e-05
-3.95595e-07
-4.78831e-07
1.61683e-05
1.58113e-05
8.42724e-10
1.58124e-05
2.4494e-09
1.58138e-05
3.56138e-09
1.58152e-05
4.06249e-09
1.58168e-05
4.19412e-09
1.58185e-05
4.12949e-09
1.58202e-05
3.79651e-09
1.58221e-05
3.05864e-09
1.58241e-05
1.84699e-09
1.58263e-05
1.36226e-10
1.58287e-05
-2.09374e-09
1.58314e-05
-4.8649e-09
1.58344e-05
-8.20901e-09
1.58378e-05
-1.21973e-08
1.58416e-05
-1.69448e-08
1.5846e-05
-2.2657e-08
1.58511e-05
-2.96102e-08
1.5857e-05
-3.81519e-08
1.58639e-05
-4.87032e-08
1.5872e-05
-6.17577e-08
1.58817e-05
-7.78839e-08
1.58932e-05
-9.77533e-08
1.59071e-05
-1.22178e-07
1.59238e-05
-1.52155e-07
1.5944e-05
-1.88935e-07
1.59686e-05
-2.34039e-07
1.59985e-05
-2.89419e-07
1.60353e-05
-3.57029e-07
1.60806e-05
-4.40896e-07
-5.37472e-07
1.61392e-05
1.58113e-05
5.41425e-10
1.58121e-05
1.59107e-09
1.58133e-05
2.34724e-09
1.58147e-05
2.68879e-09
1.58162e-05
2.72233e-09
1.58178e-05
2.55206e-09
1.58194e-05
2.11649e-09
1.58212e-05
1.2781e-09
1.58231e-05
-5.70892e-11
1.58252e-05
-1.93136e-09
1.58275e-05
-4.36741e-09
1.583e-05
-7.38749e-09
1.58328e-05
-1.10268e-08
1.5836e-05
-1.53591e-08
1.58395e-05
-2.05171e-08
1.58436e-05
-2.67166e-08
1.58483e-05
-3.42577e-08
1.58536e-05
-4.35196e-08
1.58599e-05
-5.4959e-08
1.58672e-05
-6.9109e-08
1.58759e-05
-8.65861e-08
1.58863e-05
-1.08117e-07
1.58987e-05
-1.34582e-07
1.59136e-05
-1.67065e-07
1.59316e-05
-2.06929e-07
1.59534e-05
-2.55861e-07
1.598e-05
-3.16031e-07
1.60128e-05
-3.89846e-07
1.60533e-05
-4.81392e-07
-5.90295e-07
1.61062e-05
1.58112e-05
2.88139e-10
1.5812e-05
8.59964e-10
1.5813e-05
1.27256e-09
1.58143e-05
1.42316e-09
1.58157e-05
1.33954e-09
1.58172e-05
1.06269e-09
1.58188e-05
5.23645e-10
1.58205e-05
-4.15733e-10
1.58223e-05
-1.86667e-09
1.58242e-05
-3.88703e-09
1.58264e-05
-6.50454e-09
1.58287e-05
-9.74209e-09
1.58313e-05
-1.36375e-08
1.58342e-05
-1.82689e-08
1.58375e-05
-2.37799e-08
1.58412e-05
-3.03993e-08
1.58454e-05
-3.84466e-08
1.58502e-05
-4.83271e-08
1.58557e-05
-6.05273e-08
1.58622e-05
-7.56145e-08
1.58699e-05
-9.42452e-08
1.5879e-05
-1.17193e-07
1.58898e-05
-1.45396e-07
1.59027e-05
-1.80012e-07
1.59183e-05
-2.22504e-07
1.59372e-05
-2.74705e-07
1.59601e-05
-3.38981e-07
1.59884e-05
-4.18162e-07
1.60234e-05
-5.1638e-07
-6.36283e-07
1.60694e-05
1.58112e-05
6.81585e-11
1.58118e-05
2.22415e-10
1.58128e-05
3.1197e-10
1.5814e-05
2.57307e-10
1.58152e-05
4.20211e-11
1.58167e-05
-3.43254e-10
1.58182e-05
-9.83743e-10
1.58198e-05
-2.02096e-09
1.58215e-05
-3.57749e-09
1.58233e-05
-5.72479e-09
1.58253e-05
-8.49673e-09
1.58275e-05
-1.19176e-08
1.58299e-05
-1.60272e-08
1.58325e-05
-2.0908e-08
1.58354e-05
-2.67119e-08
1.58387e-05
-3.36791e-08
1.58424e-05
-4.21451e-08
1.58466e-05
-5.25356e-08
1.58515e-05
-6.53617e-08
1.58571e-05
-8.12182e-08
1.58636e-05
-1.00793e-07
1.58713e-05
-1.24898e-07
1.58804e-05
-1.54516e-07
1.58913e-05
-1.90863e-07
1.59043e-05
-2.35486e-07
1.59199e-05
-2.90339e-07
1.59389e-05
-3.57951e-07
1.59622e-05
-4.41519e-07
1.59911e-05
-5.45203e-07
-6.74432e-07
1.60292e-05
1.58112e-05
-1.27392e-10
1.58117e-05
-3.44341e-10
1.58126e-05
-5.56954e-10
1.58137e-05
-8.20439e-10
1.58149e-05
-1.17549e-09
1.58162e-05
-1.67015e-09
1.58176e-05
-2.40833e-09
1.58192e-05
-3.53668e-09
1.58208e-05
-5.18649e-09
1.58225e-05
-7.43993e-09
1.58243e-05
-1.03375e-08
1.58263e-05
-1.39056e-08
1.58285e-05
-1.81856e-08
1.58308e-05
-2.32633e-08
1.58334e-05
-2.92972e-08
1.58363e-05
-3.65367e-08
1.58395e-05
-4.53293e-08
1.5843e-05
-5.61164e-08
1.58471e-05
-6.94271e-08
1.58518e-05
-8.58768e-08
1.58571e-05
-1.06177e-07
1.58634e-05
-1.31166e-07
1.58708e-05
-1.61858e-07
1.58794e-05
-1.99514e-07
1.58897e-05
-2.45738e-07
1.59019e-05
-3.02576e-07
1.59166e-05
-3.72678e-07
1.59346e-05
-4.59532e-07
1.59567e-05
-5.673e-07
-7.03827e-07
1.59861e-05
1.58111e-05
-3.03328e-10
1.58117e-05
-8.57116e-10
1.58125e-05
-1.35288e-09
1.58135e-05
-1.82309e-09
1.58146e-05
-2.32058e-09
1.58159e-05
-2.92304e-09
1.58172e-05
-3.75312e-09
1.58186e-05
-4.9637e-09
1.58201e-05
-6.69218e-09
1.58217e-05
-9.02919e-09
1.58234e-05
-1.20219e-08
1.58252e-05
-1.56993e-08
1.58271e-05
-2.01041e-08
1.58292e-05
-2.53246e-08
1.58314e-05
-3.15236e-08
1.58338e-05
-3.8957e-08
1.58365e-05
-4.79806e-08
1.58394e-05
-5.90465e-08
1.58427e-05
-7.26956e-08
1.58464e-05
-8.95563e-08
1.58505e-05
-1.10355e-07
1.58553e-05
-1.35945e-07
1.58608e-05
-1.6736e-07
1.58672e-05
-2.05885e-07
1.58746e-05
-2.53158e-07
1.58833e-05
-3.11277e-07
1.58936e-05
-3.82966e-07
1.5906e-05
-4.71906e-07
1.59209e-05
-5.82221e-07
-7.23677e-07
1.59407e-05
1.58111e-05
-4.64357e-10
1.58116e-05
-1.32884e-09
1.58123e-05
-2.09094e-09
1.58133e-05
-2.76246e-09
1.58144e-05
-3.40155e-09
1.58155e-05
-4.10807e-09
1.58168e-05
-5.02214e-09
1.58182e-05
-6.30343e-09
1.58196e-05
-8.09384e-09
1.5821e-05
-1.04906e-08
1.58225e-05
-1.3547e-08
1.58241e-05
-1.72948e-08
1.58258e-05
-2.17775e-08
1.58276e-05
-2.70849e-08
1.58294e-05
-3.33823e-08
1.58314e-05
-4.09294e-08
1.58335e-05
-5.00865e-08
1.58358e-05
-6.13107e-08
1.58382e-05
-7.51489e-08
1.58409e-05
-9.2235e-08
1.58438e-05
-1.13301e-07
1.58471e-05
-1.39204e-07
1.58507e-05
-1.70984e-07
1.58548e-05
-2.0993e-07
1.58593e-05
-2.57684e-07
1.58644e-05
-3.16359e-07
1.58701e-05
-3.88694e-07
1.58767e-05
-4.78452e-07
1.58841e-05
-5.89667e-07
-7.33412e-07
1.58938e-05
1.58111e-05
-6.14581e-10
1.58116e-05
-1.77082e-09
1.58123e-05
-2.78531e-09
1.58131e-05
-3.65044e-09
1.58142e-05
-4.4267e-09
1.58153e-05
-5.23127e-09
1.58165e-05
-6.21967e-09
1.58177e-05
-7.55822e-09
1.5819e-05
-9.39233e-09
1.58204e-05
-1.18244e-08
1.58217e-05
-1.49124e-08
1.58231e-05
-1.86907e-08
1.58246e-05
-2.32033e-08
1.5826e-05
-2.85406e-08
1.58275e-05
-3.48687e-08
1.5829e-05
-4.24482e-08
1.58306e-05
-5.164e-08
1.58322e-05
-6.29011e-08
1.58338e-05
-7.67779e-08
1.58355e-05
-9.39025e-08
1.58372e-05
-1.15003e-07
1.58389e-05
-1.40932e-07
1.58406e-05
-1.72716e-07
1.58423e-05
-2.11631e-07
1.58439e-05
-2.59297e-07
1.58454e-05
-3.17797e-07
1.58465e-05
-3.89823e-07
1.58472e-05
-4.79107e-07
1.5847e-05
-5.89517e-07
-7.32731e-07
1.58463e-05
1.58111e-05
-7.57947e-10
1.58115e-05
-2.19366e-09
1.58122e-05
-3.44983e-09
1.5813e-05
-4.4994e-09
1.5814e-05
-5.40445e-09
1.58151e-05
-6.29819e-09
1.58162e-05
-7.35021e-09
1.58174e-05
-8.73207e-09
1.58186e-05
-1.05909e-08
1.58198e-05
-1.30327e-08
1.5821e-05
-1.61193e-08
1.58222e-05
-1.98873e-08
1.58234e-05
-2.43811e-08
1.58245e-05
-2.96907e-08
1.58256e-05
-3.59816e-08
1.58267e-05
-4.35123e-08
1.58277e-05
-5.264e-08
1.58286e-05
-6.38171e-08
1.58294e-05
-7.75829e-08
1.58301e-05
-9.45606e-08
1.58306e-05
-1.15466e-07
1.58308e-05
-1.41133e-07
1.58306e-05
-1.72566e-07
1.583e-05
-2.11005e-07
1.58287e-05
-2.58021e-07
1.58265e-05
-3.15626e-07
1.58231e-05
-3.86405e-07
1.58179e-05
-4.73937e-07
1.58103e-05
-5.81848e-07
-7.21674e-07
1.57992e-05
1.58111e-05
-8.98465e-10
1.58115e-05
-2.60824e-09
1.58122e-05
-4.0986e-09
1.5813e-05
-5.32187e-09
1.58139e-05
-6.34376e-09
1.58149e-05
-7.31553e-09
1.5816e-05
-8.41977e-09
1.58171e-05
-9.83027e-09
1.58182e-05
-1.16938e-08
1.58193e-05
-1.41186e-08
1.58204e-05
-1.71702e-08
1.58214e-05
-2.0887e-08
1.58223e-05
-2.53132e-08
1.58231e-05
-3.0538e-08
1.58239e-05
-3.67242e-08
1.58245e-05
-4.41255e-08
1.58249e-05
-5.3092e-08
1.58252e-05
-6.40659e-08
1.58252e-05
-7.75737e-08
1.58248e-05
-9.42222e-08
1.58241e-05
-1.14706e-07
1.58228e-05
-1.39832e-07
1.58208e-05
-1.70567e-07
1.58179e-05
-2.08099e-07
1.58138e-05
-2.53922e-07
1.58081e-05
-3.09941e-07
1.58003e-05
-3.78576e-07
1.57895e-05
-4.63144e-07
1.57746e-05
-5.66949e-07
-7.00647e-07
1.57535e-05
1.58111e-05
-1.04053e-09
1.58115e-05
-3.02657e-09
1.58122e-05
-4.74678e-09
1.5813e-05
-6.13121e-09
1.58139e-05
-7.25465e-09
1.58149e-05
-8.29135e-09
1.58159e-05
-9.4353e-09
1.58169e-05
-1.08584e-08
1.58179e-05
-1.27051e-08
1.58189e-05
-1.50858e-08
1.58198e-05
-1.8069e-08
1.58206e-05
-2.1694e-08
1.58213e-05
-2.60047e-08
1.58218e-05
-3.10884e-08
1.58222e-05
-3.71038e-08
1.58224e-05
-4.42972e-08
1.58223e-05
-5.30074e-08
1.58219e-05
-6.36619e-08
1.58211e-05
-7.67687e-08
1.58198e-05
-9.29113e-08
1.58178e-05
-1.12756e-07
1.58151e-05
-1.37072e-07
1.58113e-05
-1.66776e-07
1.58062e-05
-2.02989e-07
1.57994e-05
-2.47107e-07
1.57903e-05
-3.00893e-07
1.57783e-05
-3.66557e-07
1.57622e-05
-4.47056e-07
1.57406e-05
-5.45304e-07
-6.70427e-07
1.57103e-05
1.58111e-05
-1.18941e-09
1.58116e-05
-3.46313e-09
1.58122e-05
-5.41184e-09
1.5813e-05
-6.94171e-09
1.58139e-05
-8.14732e-09
1.58149e-05
-9.23395e-09
1.58158e-05
-1.04041e-08
1.58168e-05
-1.18227e-08
1.58177e-05
-1.36303e-08
1.58186e-05
-1.59395e-08
1.58193e-05
-1.88212e-08
1.58199e-05
-2.23148e-08
1.58204e-05
-2.64631e-08
1.58207e-05
-3.13511e-08
1.58207e-05
-3.71316e-08
1.58204e-05
-4.40409e-08
1.58198e-05
-5.24033e-08
1.58188e-05
-6.26266e-08
1.58172e-05
-7.51949e-08
1.5815e-05
-9.06624e-08
1.58119e-05
-1.09659e-07
1.58077e-05
-1.32909e-07
1.58022e-05
-1.61269e-07
1.5795e-05
-1.95779e-07
1.57856e-05
-2.37718e-07
1.57734e-05
-2.88684e-07
1.57575e-05
-3.50637e-07
1.57365e-05
-4.2611e-07
1.57088e-05
-5.17578e-07
-6.32127e-07
1.56705e-05
1.58111e-05
-1.35198e-09
1.58116e-05
-3.93643e-09
1.58123e-05
-6.11435e-09
1.58131e-05
-7.76814e-09
1.5814e-05
-9.03182e-09
1.58149e-05
-1.01522e-08
1.58159e-05
-1.13344e-08
1.58168e-05
-1.27299e-08
1.58176e-05
-1.44753e-08
1.58184e-05
-1.66861e-08
1.5819e-05
-1.94341e-08
1.58194e-05
-2.27576e-08
1.58197e-05
-2.66983e-08
1.58196e-05
-3.13379e-08
1.58193e-05
-3.68223e-08
1.58187e-05
-4.33749e-08
1.58176e-05
-5.13019e-08
1.58159e-05
-6.09877e-08
1.58136e-05
-7.28871e-08
1.58105e-05
-8.75193e-08
1.58063e-05
-1.05472e-07
1.58008e-05
-1.27417e-07
1.57937e-05
-1.54143e-07
1.57845e-05
-1.86595e-07
1.57727e-05
-2.25929e-07
1.57576e-05
-2.73553e-07
1.57381e-05
-3.31163e-07
1.57128e-05
-4.00828e-07
1.56798e-05
-4.84569e-07
-5.87118e-07
1.56348e-05
1.58112e-05
-1.53784e-09
1.58117e-05
-4.4714e-09
1.58125e-05
-6.87891e-09
1.58133e-05
-8.62536e-09
1.58142e-05
-9.91808e-09
1.58151e-05
-1.1056e-08
1.5816e-05
-1.22348e-08
1.58169e-05
-1.35868e-08
1.58176e-05
-1.52466e-08
1.58183e-05
-1.73328e-08
1.58188e-05
-1.99161e-08
1.5819e-05
-2.30327e-08
1.58191e-05
-2.67226e-08
1.58188e-05
-3.10641e-08
1.58182e-05
-3.61943e-08
1.58171e-05
-4.23218e-08
1.58155e-05
-4.97313e-08
1.58133e-05
-5.87798e-08
1.58103e-05
-6.98884e-08
1.58063e-05
-8.35363e-08
1.58011e-05
-1.00263e-07
1.57944e-05
-1.20682e-07
1.57858e-05
-1.45508e-07
1.57748e-05
-1.75587e-07
1.57608e-05
-2.11936e-07
1.5743e-05
-2.55773e-07
1.57203e-05
-3.0852e-07
1.56913e-05
-3.71781e-07
1.56539e-05
-4.47149e-07
-5.36939e-07
1.56037e-05
1.58112e-05
-1.76126e-09
1.58118e-05
-5.10314e-09
1.58127e-05
-7.73471e-09
1.58136e-05
-9.52697e-09
1.58145e-05
-1.08158e-08
1.58154e-05
-1.19561e-08
1.58163e-05
-1.31147e-08
1.58171e-05
-1.44009e-08
1.58178e-05
-1.59515e-08
1.58183e-05
-1.78876e-08
1.58187e-05
-2.02763e-08
1.58188e-05
-2.31509e-08
1.58186e-05
-2.65493e-08
1.58181e-05
-3.0546e-08
1.58172e-05
-3.52684e-08
1.58158e-05
-4.0907e-08
1.58138e-05
-4.77228e-08
1.5811e-05
-5.60417e-08
1.58074e-05
-6.62473e-08
1.58026e-05
-7.87738e-08
1.57965e-05
-9.41085e-08
1.57886e-05
-1.12803e-07
1.57786e-05
-1.35492e-07
1.57659e-05
-1.62916e-07
1.57499e-05
-1.95954e-07
1.57298e-05
-2.35632e-07
1.57044e-05
-2.8311e-07
1.56721e-05
-3.39557e-07
1.56312e-05
-4.06208e-07
-4.83077e-07
1.55773e-05
1.58113e-05
-2.04479e-09
1.5812e-05
-5.88245e-09
1.5813e-05
-8.71494e-09
1.5814e-05
-1.04839e-08
1.58149e-05
-1.17348e-08
1.58158e-05
-1.28639e-08
1.58167e-05
-1.39821e-08
1.58174e-05
-1.5179e-08
1.58181e-05
-1.65985e-08
1.58186e-05
-1.83612e-08
1.58188e-05
-2.05273e-08
1.58188e-05
-2.31264e-08
1.58184e-05
-2.61968e-08
1.58177e-05
-2.98061e-08
1.58165e-05
-3.40697e-08
1.58147e-05
-3.91614e-08
1.58123e-05
-4.53141e-08
1.58091e-05
-5.28199e-08
1.58049e-05
-6.20212e-08
1.57994e-05
-7.33026e-08
1.57924e-05
-8.70958e-08
1.57835e-05
-1.03888e-07
1.57722e-05
-1.24229e-07
1.57581e-05
-1.48757e-07
1.57403e-05
-1.78211e-07
1.57181e-05
-2.13428e-07
1.56903e-05
-2.55333e-07
1.56555e-05
-3.04711e-07
1.56119e-05
-3.62572e-07
-4.27026e-07
1.55558e-05
1.58113e-05
-2.42687e-09
1.58123e-05
-6.88327e-09
1.58135e-05
-9.85238e-09
1.58145e-05
-1.15043e-08
1.58155e-05
-1.26893e-08
1.58164e-05
-1.37917e-08
1.58172e-05
-1.48422e-08
1.5818e-05
-1.5924e-08
1.58186e-05
-1.71916e-08
1.5819e-05
-1.87594e-08
1.58191e-05
-2.06772e-08
1.5819e-05
-2.29718e-08
1.58185e-05
-2.56794e-08
1.58175e-05
-2.88626e-08
1.58161e-05
-3.26245e-08
1.5814e-05
-3.71173e-08
1.58113e-05
-4.2545e-08
1.58076e-05
-4.91629e-08
1.58029e-05
-5.72692e-08
1.57967e-05
-6.71957e-08
1.5789e-05
-7.93164e-08
1.57791e-05
-9.40519e-08
1.57668e-05
-1.11868e-07
1.57513e-05
-1.33295e-07
1.5732e-05
-1.58941e-07
1.57081e-05
-1.89463e-07
1.56783e-05
-2.25579e-07
1.56414e-05
-2.67747e-07
1.55957e-05
-3.16945e-07
-3.699e-07
1.55386e-05
1.58115e-05
-2.97961e-09
1.58128e-05
-8.21235e-09
1.58142e-05
-1.11644e-08
1.58152e-05
-1.25909e-08
1.58163e-05
-1.37006e-08
1.58172e-05
-1.47566e-08
1.58181e-05
-1.57069e-08
1.58188e-05
-1.66504e-08
1.58194e-05
-1.77475e-08
1.58197e-05
-1.90989e-08
1.58198e-05
-2.07433e-08
1.58195e-05
-2.27053e-08
1.58188e-05
-2.50191e-08
1.58177e-05
-2.77412e-08
1.58161e-05
-3.09616e-08
1.58138e-05
-3.48101e-08
1.58107e-05
-3.9459e-08
1.58066e-05
-4.51248e-08
1.58014e-05
-5.20587e-08
1.57948e-05
-6.0535e-08
1.57863e-05
-7.08696e-08
1.57757e-05
-8.34177e-08
1.57624e-05
-9.85581e-08
1.57458e-05
-1.16717e-07
1.57252e-05
-1.38379e-07
1.56998e-05
-1.64025e-07
1.56684e-05
-1.94208e-07
1.56297e-05
-2.29069e-07
1.55826e-05
-2.69849e-07
-3.12449e-07
1.55252e-05
1.58118e-05
-3.84575e-09
1.58136e-05
-1.0028e-08
1.58151e-05
-1.26343e-08
1.58163e-05
-1.37383e-08
1.58173e-05
-1.47765e-08
1.58183e-05
-1.57497e-08
1.58192e-05
-1.65638e-08
1.58199e-05
-1.73537e-08
1.58204e-05
-1.82676e-08
1.58207e-05
-1.93867e-08
1.58207e-05
-2.07371e-08
1.58203e-05
-2.23432e-08
1.58196e-05
-2.42375e-08
1.58183e-05
-2.64696e-08
1.58164e-05
-2.91155e-08
1.58139e-05
-3.22809e-08
1.58106e-05
-3.61046e-08
1.58062e-05
-4.07631e-08
1.58006e-05
-4.64595e-08
1.57935e-05
-5.34057e-08
1.57845e-05
-6.186e-08
1.57731e-05
-7.21127e-08
1.5759e-05
-8.44578e-08
1.57416e-05
-9.92224e-08
1.57199e-05
-1.16772e-07
1.56933e-05
-1.37415e-07
1.56607e-05
-1.61568e-07
1.56206e-05
-1.89011e-07
1.55724e-05
-2.21638e-07
-2.54271e-07
1.55142e-05
1.58124e-05
-5.29288e-09
1.58149e-05
-1.25309e-08
1.58165e-05
-1.42506e-08
1.58178e-05
-1.50179e-08
1.5819e-05
-1.59614e-08
1.582e-05
-1.67763e-08
1.58209e-05
-1.7418e-08
1.58216e-05
-1.80456e-08
1.58221e-05
-1.87624e-08
1.58223e-05
-1.96323e-08
1.58222e-05
-2.06689e-08
1.58218e-05
-2.18982e-08
1.58209e-05
-2.33496e-08
1.58195e-05
-2.50664e-08
1.58175e-05
-2.71116e-08
1.58148e-05
-2.95638e-08
1.58112e-05
-3.25279e-08
1.58066e-05
-3.61396e-08
1.58007e-05
-4.05503e-08
1.57932e-05
-4.58995e-08
1.57837e-05
-5.24009e-08
1.57719e-05
-6.02758e-08
1.57571e-05
-6.97267e-08
1.57389e-05
-8.09968e-08
1.57165e-05
-9.43491e-08
1.5689e-05
-1.09936e-07
1.56555e-05
-1.28017e-07
1.56143e-05
-1.47813e-07
1.55654e-05
-1.72754e-07
-1.93495e-07
1.55046e-05
1.58135e-05
-7.84018e-09
1.58166e-05
-1.5639e-08
1.58183e-05
-1.59017e-08
1.58198e-05
-1.65341e-08
1.58211e-05
-1.72749e-08
1.58222e-05
-1.78355e-08
1.5823e-05
-1.82868e-08
1.58237e-05
-1.87446e-08
1.58242e-05
-1.92537e-08
1.58244e-05
-1.98567e-08
1.58243e-05
-2.05643e-08
1.58238e-05
-2.14005e-08
1.58229e-05
-2.23911e-08
1.58214e-05
-2.35728e-08
1.58193e-05
-2.4997e-08
1.58164e-05
-2.67111e-08
1.58127e-05
-2.87814e-08
1.58078e-05
-3.13072e-08
1.58017e-05
-3.43995e-08
1.57939e-05
-3.80969e-08
1.57841e-05
-4.25816e-08
1.57718e-05
-4.80225e-08
1.57566e-05
-5.45234e-08
1.57379e-05
-6.22437e-08
1.57149e-05
-7.13424e-08
1.56868e-05
-8.18826e-08
1.56527e-05
-9.39269e-08
1.56108e-05
-1.05882e-07
1.55609e-05
-1.22838e-07
-1.2406e-07
1.54914e-05
1.5817e-05
-1.38406e-08
1.58203e-05
-1.89893e-08
1.58223e-05
-1.78777e-08
1.58237e-05
-1.79852e-08
1.58249e-05
-1.84467e-08
1.58258e-05
-1.87512e-08
1.58265e-05
-1.89639e-08
1.58269e-05
-1.91854e-08
1.58271e-05
-1.9442e-08
1.5827e-05
-1.97476e-08
1.58266e-05
-2.01082e-08
1.58257e-05
-2.05354e-08
1.58244e-05
-2.10423e-08
1.58224e-05
-2.16479e-08
1.58198e-05
-2.23805e-08
1.58164e-05
-2.32611e-08
1.58119e-05
-2.43245e-08
1.58062e-05
-2.56279e-08
1.57991e-05
-2.72343e-08
1.57901e-05
-2.914e-08
1.5779e-05
-3.14617e-08
1.57653e-05
-3.42917e-08
1.57484e-05
-3.76637e-08
1.57278e-05
-4.16643e-08
1.57029e-05
-4.63772e-08
1.56727e-05
-5.17745e-08
1.56367e-05
-5.79149e-08
1.55934e-05
-6.25215e-08
1.55387e-05
-6.81864e-08
-2.69193e-08
1.54416e-05
1.57971e-05
1.57781e-05
1.57603e-05
1.57423e-05
1.57238e-05
1.57051e-05
1.56861e-05
1.56669e-05
1.56475e-05
1.56277e-05
1.56076e-05
1.55871e-05
1.55661e-05
1.55444e-05
1.5522e-05
1.54988e-05
1.54744e-05
1.54488e-05
1.54216e-05
1.53924e-05
1.5361e-05
1.53267e-05
1.5289e-05
1.52474e-05
1.5201e-05
1.51492e-05
1.50913e-05
1.50288e-05
1.49606e-05
1.49337e-05
1.55328e-05
-9.07401e-06
9.35943e-06
1.51986e-05
-9.15952e-06
9.49376e-06
1.48084e-05
-9.21934e-06
9.60958e-06
1.43731e-05
-9.25351e-06
9.68872e-06
1.3913e-05
-9.283e-06
9.74311e-06
1.34413e-05
-9.31521e-06
9.78698e-06
1.29641e-05
-9.35099e-06
9.82813e-06
1.24842e-05
-9.38999e-06
9.86987e-06
1.20026e-05
-9.43205e-06
9.91369e-06
1.15194e-05
-9.47712e-06
9.96035e-06
1.10344e-05
-9.52525e-06
1.00102e-05
1.05476e-05
-9.57669e-06
1.00635e-05
1.00588e-05
-9.63199e-06
1.01208e-05
9.56802e-06
-9.69193e-06
1.01827e-05
9.07522e-06
-9.7575e-06
1.02503e-05
8.58032e-06
-9.82993e-06
1.03248e-05
8.08315e-06
-9.91081e-06
1.0408e-05
7.58344e-06
-1.00022e-05
1.05019e-05
7.08079e-06
-1.01068e-05
1.06095e-05
6.57456e-06
-1.02284e-05
1.07346e-05
6.06393e-06
-1.03719e-05
1.08826e-05
5.54712e-06
-1.05448e-05
1.10616e-05
5.02358e-06
-1.07562e-05
1.12798e-05
4.48504e-06
-1.1026e-05
1.15645e-05
3.93982e-06
-1.13616e-05
1.19068e-05
3.34476e-06
-1.18571e-05
1.24521e-05
2.75652e-06
-1.2408e-05
1.29962e-05
2.00353e-06
-1.36134e-05
1.43664e-05
1.23223e-06
-1.45207e-05
1.5292e-05
-1.86138e-05
1.9846e-05
1.58106e-05
-8.67023e-06
1.53581e-05
-8.70699e-06
1.48819e-05
-8.74316e-06
1.43998e-05
-8.77138e-06
1.39184e-05
-8.80164e-06
1.3439e-05
-8.83577e-06
1.29607e-05
-8.87277e-06
1.24825e-05
-8.91174e-06
1.20032e-05
-8.95273e-06
1.15222e-05
-8.99611e-06
1.10392e-05
-9.04227e-06
1.05542e-05
-9.0917e-06
1.00672e-05
-9.14503e-06
9.57831e-06
-9.20301e-06
9.08736e-06
-9.26655e-06
8.59425e-06
-9.33682e-06
8.09877e-06
-9.41533e-06
7.60059e-06
-9.50402e-06
7.09926e-06
-9.60549e-06
6.59408e-06
-9.72322e-06
6.0841e-06
-9.86195e-06
5.56772e-06
-1.00284e-05
5.04326e-06
-1.02318e-05
4.50512e-06
-1.04879e-05
3.95458e-06
-1.08111e-05
3.36264e-06
-1.12651e-05
2.76061e-06
-1.1806e-05
2.01488e-06
-1.28677e-05
1.23632e-06
-1.37422e-05
-1.73774e-05
1.57741e-05
-8.21495e-06
1.53084e-05
-8.24125e-06
1.48374e-05
-8.27217e-06
1.4368e-05
-8.30204e-06
1.38987e-05
-8.33234e-06
1.34281e-05
-8.36508e-06
1.29551e-05
-8.39986e-06
1.24798e-05
-8.43638e-06
1.20021e-05
-8.47503e-06
1.15223e-05
-8.51629e-06
1.10405e-05
-8.56052e-06
1.05569e-05
-8.60814e-06
1.00716e-05
-8.65964e-06
9.58425e-06
-8.71571e-06
9.09491e-06
-8.77721e-06
8.60336e-06
-8.84527e-06
8.10933e-06
-8.9213e-06
7.61248e-06
-9.00717e-06
7.11229e-06
-9.1053e-06
6.60803e-06
-9.21896e-06
6.09865e-06
-9.35257e-06
5.58257e-06
-9.51231e-06
5.05762e-06
-9.70683e-06
4.51942e-06
-9.94966e-06
3.96537e-06
-1.0257e-05
3.37525e-06
-1.0675e-05
2.7629e-06
-1.11936e-05
2.02273e-06
-1.21275e-05
1.23464e-06
-1.29541e-05
-1.61428e-05
1.57663e-05
-7.75442e-06
1.53032e-05
-7.77808e-06
1.48359e-05
-7.80494e-06
1.43668e-05
-7.83284e-06
1.38961e-05
-7.86171e-06
1.34236e-05
-7.89254e-06
1.29493e-05
-7.92552e-06
1.24734e-05
-7.96052e-06
1.19961e-05
-7.99775e-06
1.15173e-05
-8.03752e-06
1.1037e-05
-8.08016e-06
1.05549e-05
-8.12605e-06
1.0071e-05
-8.17572e-06
9.58509e-06
-8.22983e-06
9.09712e-06
-8.28924e-06
8.60685e-06
-8.355e-06
8.114e-06
-8.42845e-06
7.61817e-06
-8.51134e-06
7.11881e-06
-8.60594e-06
6.61514e-06
-8.71528e-06
6.10602e-06
-8.84345e-06
5.58983e-06
-8.99612e-06
5.06418e-06
-9.18118e-06
4.52512e-06
-9.4106e-06
3.96816e-06
-9.70006e-06
3.37811e-06
-1.0085e-05
2.75717e-06
-1.05727e-05
2.0217e-06
-1.1392e-05
1.2273e-06
-1.21597e-05
-1.49155e-05
1.57499e-05
-7.2913e-06
1.5285e-05
-7.31318e-06
1.48175e-05
-7.33742e-06
1.43484e-05
-7.36377e-06
1.38784e-05
-7.39172e-06
1.34073e-05
-7.42137e-06
1.29347e-05
-7.45292e-06
1.24606e-05
-7.48643e-06
1.19849e-05
-7.52208e-06
1.15076e-05
-7.56017e-06
1.10285e-05
-7.60106e-06
1.05476e-05
-7.64516e-06
1.00648e-05
-7.69296e-06
9.58007e-06
-7.7451e-06
9.0932e-06
-7.80237e-06
8.60395e-06
-7.86575e-06
8.11202e-06
-7.93652e-06
7.61696e-06
-8.01628e-06
7.11816e-06
-8.10715e-06
6.6148e-06
-8.21192e-06
6.10569e-06
-8.33434e-06
5.58913e-06
-8.47956e-06
5.06265e-06
-8.6547e-06
4.52238e-06
-8.87033e-06
3.963e-06
-9.14068e-06
3.37204e-06
-9.49399e-06
2.74459e-06
-9.94522e-06
2.01283e-06
-1.06602e-05
1.21307e-06
-1.13599e-05
-1.37024e-05
1.57293e-05
-6.8275e-06
1.52643e-05
-6.84814e-06
1.47976e-05
-6.87074e-06
1.43296e-05
-6.89578e-06
1.38605e-05
-6.92261e-06
1.33901e-05
-6.95094e-06
1.29181e-05
-6.98097e-06
1.24446e-05
-7.01294e-06
1.19696e-05
-7.04705e-06
1.1493e-05
-7.08357e-06
1.10148e-05
-7.12282e-06
1.05348e-05
-7.16519e-06
1.0053e-05
-7.21115e-06
9.5692e-06
-7.2613e-06
9.08321e-06
-7.31637e-06
8.59475e-06
-7.3773e-06
8.10348e-06
-7.44524e-06
7.60891e-06
-7.52171e-06
7.11042e-06
-7.60866e-06
6.60711e-06
-7.70862e-06
6.09776e-06
-7.82499e-06
5.58061e-06
-7.96241e-06
5.05312e-06
-8.12721e-06
4.51143e-06
-8.32863e-06
3.94989e-06
-8.57915e-06
3.35747e-06
-8.90157e-06
2.72512e-06
-9.31287e-06
1.99667e-06
-9.93179e-06
1.1936e-06
-1.05568e-05
-1.25088e-05
1.57044e-05
-6.36361e-06
1.52394e-05
-6.38319e-06
1.47732e-05
-6.40449e-06
1.43057e-05
-6.42828e-06
1.3837e-05
-6.45391e-06
1.3367e-05
-6.48097e-06
1.28957e-05
-6.50963e-06
1.24229e-05
-6.54017e-06
1.19487e-05
-6.57282e-06
1.14729e-05
-6.60781e-06
1.09955e-05
-6.64543e-06
1.05164e-05
-6.68605e-06
1.00354e-05
-6.73013e-06
9.55229e-06
-6.77822e-06
9.06694e-06
-6.83102e-06
8.57902e-06
-6.88938e-06
8.08816e-06
-6.95438e-06
7.59386e-06
-7.02741e-06
7.09543e-06
-7.11023e-06
6.59195e-06
-7.20514e-06
6.08216e-06
-7.31519e-06
5.56424e-06
-7.44449e-06
5.03562e-06
-7.59859e-06
4.49241e-06
-7.78542e-06
3.92893e-06
-8.01566e-06
3.3349e-06
-8.30754e-06
2.69907e-06
-8.67704e-06
1.97419e-06
-9.20691e-06
1.16964e-06
-9.75229e-06
-1.13392e-05
1.56753e-05
-5.89971e-06
1.52105e-05
-5.91837e-06
1.47446e-05
-5.93855e-06
1.42775e-05
-5.96119e-06
1.38092e-05
-5.98565e-06
1.33397e-05
-6.01148e-06
1.28689e-05
-6.03881e-06
1.23967e-05
-6.06797e-06
1.19231e-05
-6.09917e-06
1.14479e-05
-6.13262e-06
1.0971e-05
-6.1686e-06
1.04924e-05
-6.20746e-06
1.0012e-05
-6.24963e-06
9.52936e-06
-6.29562e-06
9.04442e-06
-6.34608e-06
8.55682e-06
-6.40178e-06
8.06616e-06
-6.46372e-06
7.5719e-06
-6.53315e-06
7.07333e-06
-6.61166e-06
6.5695e-06
-6.7013e-06
6.05909e-06
-6.80478e-06
5.54027e-06
-6.92568e-06
5.01045e-06
-7.06877e-06
4.46576e-06
-7.24073e-06
3.90053e-06
-7.45044e-06
3.30501e-06
-7.71202e-06
2.66697e-06
-8.03899e-06
1.94601e-06
-8.48595e-06
1.14209e-06
-8.94838e-06
-1.01971e-05
1.56423e-05
-5.43582e-06
1.51776e-05
-5.45365e-06
1.47118e-05
-5.47283e-06
1.4245e-05
-5.49436e-06
1.3777e-05
-5.51768e-06
1.33078e-05
-5.54229e-06
1.28374e-05
-5.56835e-06
1.23656e-05
-5.59615e-06
1.18923e-05
-5.62592e-06
1.14175e-05
-5.65784e-06
1.09411e-05
-5.69218e-06
1.04629e-05
-5.72927e-06
9.98279e-06
-5.76949e-06
9.5005e-06
-5.81333e-06
9.01579e-06
-5.86137e-06
8.52832e-06
-5.91431e-06
8.03766e-06
-5.97307e-06
7.54326e-06
-6.03875e-06
7.04438e-06
-6.11278e-06
6.54004e-06
-6.19696e-06
6.0289e-06
-6.29364e-06
5.50911e-06
-6.40589e-06
4.97809e-06
-6.53775e-06
4.43201e-06
-6.69465e-06
3.86528e-06
-6.88371e-06
3.26861e-06
-7.11535e-06
2.6295e-06
-7.39988e-06
1.91296e-06
-7.76941e-06
1.11193e-06
-8.14735e-06
-9.08517e-06
1.56054e-05
-4.97187e-06
1.51407e-05
-4.98893e-06
1.46751e-05
-5.0072e-06
1.42084e-05
-5.02768e-06
1.37406e-05
-5.04987e-06
1.32716e-05
-5.07331e-06
1.28014e-05
-5.09811e-06
1.23298e-05
-5.12458e-06
1.18568e-05
-5.15293e-06
1.13823e-05
-5.18333e-06
1.09061e-05
-5.21601e-06
1.04282e-05
-5.25129e-06
9.94821e-06
-5.28953e-06
9.46604e-06
-5.33116e-06
8.98137e-06
-5.3767e-06
8.49386e-06
-5.4268e-06
8.00305e-06
-5.48226e-06
7.50836e-06
-5.54406e-06
7.00903e-06
-5.61345e-06
6.50408e-06
-5.692e-06
5.99215e-06
-5.78171e-06
5.47139e-06
-5.88514e-06
4.93923e-06