/*--------------------------------*- C++ -*----------------------------------*\
  =========                 |
  \\      /  F ield         | OpenFOAM: The Open Source CFD Toolbox
   \\    /   O peration     | Website:  https://openfoam.org
    \\  /    A nd           | Version:  11
     \\/     M anipulation  |
\*---------------------------------------------------------------------------*/
FoamFile
{
    format      ascii;
    class       surfaceScalarField;
    location    "2.6";
    object      phi;
}
// * * * * * * * * * * * * * * * * * * * * * * * * * * * * * * * * * * * * * //

dimensions      [0 3 -1 0 0 0 0];

internalField   nonuniform List<scalar> 
24840
(
1.53201e-05
1.3248e-08
1.53028e-05
1.72469e-08
1.52873e-05
1.55089e-08
1.52729e-05
1.44017e-08
1.52594e-05
1.35688e-08
1.52469e-05
1.24889e-08
1.52358e-05
1.10669e-08
1.52264e-05
9.36352e-09
1.52193e-05
7.17382e-09
1.52147e-05
4.59133e-09
1.52132e-05
1.49901e-09
1.52155e-05
-2.2831e-09
1.52224e-05
-6.9369e-09
1.5235e-05
-1.26424e-08
1.52547e-05
-1.96693e-08
1.52829e-05
-2.81698e-08
1.53217e-05
-3.88718e-08
1.53736e-05
-5.18641e-08
1.54407e-05
-6.70962e-08
1.55267e-05
-8.59804e-08
1.56364e-05
-1.09697e-07
1.57751e-05
-1.38762e-07
1.59494e-05
-1.74267e-07
1.6167e-05
-2.17617e-07
1.64371e-05
-2.70119e-07
1.67707e-05
-3.33513e-07
1.71819e-05
-4.11202e-07
1.76802e-05
-4.98298e-07
1.83095e-05
-6.29347e-07
-6.29889e-07
1.89394e-05
1.53394e-05
7.13241e-09
1.5344e-05
1.2738e-08
1.53486e-05
1.09064e-08
1.53536e-05
9.37117e-09
1.53593e-05
7.81942e-09
1.53661e-05
5.70984e-09
1.53742e-05
2.97426e-09
1.53839e-05
-2.85434e-10
1.53955e-05
-4.46001e-09
1.54094e-05
-9.33526e-09
1.54261e-05
-1.52135e-08
1.54462e-05
-2.23217e-08
1.54702e-05
-3.09581e-08
1.5499e-05
-4.14195e-08
1.55334e-05
-5.41092e-08
1.55749e-05
-6.96471e-08
1.56244e-05
-8.84018e-08
1.56841e-05
-1.11597e-07
1.57584e-05
-1.41357e-07
1.58506e-05
-1.78135e-07
1.59633e-05
-2.22468e-07
1.6101e-05
-2.76475e-07
1.62694e-05
-3.42647e-07
1.64755e-05
-4.23692e-07
1.67279e-05
-5.22524e-07
1.7037e-05
-6.42562e-07
1.74149e-05
-7.89108e-07
1.78763e-05
-9.59777e-07
1.84397e-05
-1.19271e-06
-1.31937e-06
1.91292e-05
1.53363e-05
4.12311e-09
1.53405e-05
8.62191e-09
1.5344e-05
7.34057e-09
1.53484e-05
4.96948e-09
1.53538e-05
2.47302e-09
1.53601e-05
-6.13245e-10
1.53676e-05
-4.54454e-09
1.53768e-05
-9.42994e-09
1.53877e-05
-1.54094e-08
1.54009e-05
-2.25546e-08
1.54169e-05
-3.11584e-08
1.54361e-05
-4.15484e-08
1.54593e-05
-5.41344e-08
1.54873e-05
-6.94069e-08
1.55211e-05
-8.79836e-08
1.55622e-05
-1.10712e-07
1.56123e-05
-1.38484e-07
1.56734e-05
-1.7267e-07
1.57473e-05
-2.15307e-07
1.58371e-05
-2.67918e-07
1.59467e-05
-3.32056e-07
1.60806e-05
-4.10404e-07
1.62444e-05
-5.06431e-07
1.64448e-05
-6.24119e-07
1.66904e-05
-7.68058e-07
1.69912e-05
-9.43414e-07
1.73601e-05
-1.15798e-06
1.78114e-05
-1.4111e-06
1.83643e-05
-1.74558e-06
-2.00465e-06
1.90496e-05
1.53352e-05
2.30615e-09
1.53387e-05
5.02323e-09
1.53423e-05
3.80083e-09
1.53463e-05
9.51197e-10
1.53514e-05
-2.57456e-09
1.53574e-05
-6.67588e-09
1.53647e-05
-1.18454e-08
1.53735e-05
-1.82482e-08
1.53841e-05
-2.60145e-08
1.53969e-05
-3.53496e-08
1.54124e-05
-4.65843e-08
1.5431e-05
-6.01424e-08
1.54534e-05
-7.65538e-08
1.54804e-05
-9.64789e-08
1.55132e-05
-1.20747e-07
1.55529e-05
-1.5043e-07
1.56012e-05
-1.86785e-07
1.566e-05
-2.31466e-07
1.57314e-05
-2.86684e-07
1.58182e-05
-3.5467e-07
1.5924e-05
-4.37872e-07
1.60533e-05
-5.39711e-07
1.62114e-05
-6.64594e-07
1.64051e-05
-8.17741e-07
1.66423e-05
-1.00535e-06
1.69334e-05
-1.23445e-06
1.72905e-05
-1.51512e-06
1.77292e-05
-1.84979e-06
1.82658e-05
-2.28215e-06
-2.676e-06
1.89371e-05
1.53345e-05
1.10186e-09
1.53374e-05
2.17852e-09
1.53406e-05
5.65544e-10
1.53445e-05
-2.90221e-09
1.53492e-05
-7.31507e-09
1.5355e-05
-1.24989e-08
1.53621e-05
-1.88664e-08
1.53705e-05
-2.66961e-08
1.53807e-05
-3.61862e-08
1.53929e-05
-4.76089e-08
1.54077e-05
-6.1355e-08
1.54255e-05
-7.79365e-08
1.54469e-05
-9.79999e-08
1.54728e-05
-1.22362e-07
1.55041e-05
-1.52049e-07
1.55421e-05
-1.88355e-07
1.55881e-05
-2.32848e-07
1.56441e-05
-2.87482e-07
1.57122e-05
-3.54739e-07
1.57949e-05
-4.37421e-07
1.58958e-05
-5.38768e-07
1.60191e-05
-6.62976e-07
1.61699e-05
-8.15369e-07
1.63545e-05
-1.00238e-06
1.65809e-05
-1.23174e-06
1.68588e-05
-1.51239e-06
1.72003e-05
-1.85659e-06
1.7621e-05
-2.27048e-06
1.8136e-05
-2.79712e-06
-3.3239e-06
1.87839e-05
1.53342e-05
2.31675e-10
1.53365e-05
-1.26998e-10
1.53395e-05
-2.43196e-09
1.53431e-05
-6.54412e-09
1.53476e-05
-1.17839e-08
1.53531e-05
-1.79987e-08
1.53598e-05
-2.55195e-08
1.53678e-05
-3.46994e-08
1.53774e-05
-4.58187e-08
1.5389e-05
-5.92075e-08
1.5403e-05
-7.53182e-08
1.54198e-05
-9.4745e-08
1.544e-05
-1.18244e-07
1.54644e-05
-1.46778e-07
1.54939e-05
-1.81554e-07
1.55297e-05
-2.2408e-07
1.5573e-05
-2.76193e-07
1.56257e-05
-3.40144e-07
1.56897e-05
-4.18726e-07
1.57675e-05
-5.15242e-07
1.58623e-05
-6.33628e-07
1.59782e-05
-7.78835e-07
1.61199e-05
-9.57082e-07
1.62935e-05
-1.17595e-06
1.65064e-05
-1.44465e-06
1.6768e-05
-1.77402e-06
1.70899e-05
-2.17843e-06
1.74874e-05
-2.66804e-06
1.79752e-05
-3.28484e-06
-3.94179e-06
1.8593e-05
1.5334e-05
-4.71161e-10
1.53359e-05
-2.02137e-09
1.53386e-05
-5.14256e-09
1.5342e-05
-9.91506e-09
1.53462e-05
-1.59432e-08
1.53513e-05
-2.31222e-08
1.53575e-05
-3.17388e-08
1.5365e-05
-4.21872e-08
1.5374e-05
-5.48228e-08
1.53848e-05
-7.00359e-08
1.53979e-05
-8.83382e-08
1.54135e-05
-1.104e-07
1.54323e-05
-1.37081e-07
1.5455e-05
-1.69474e-07
1.54824e-05
-2.08956e-07
1.55156e-05
-2.5723e-07
1.55558e-05
-3.16374e-07
1.56046e-05
-3.88919e-07
1.56638e-05
-4.77974e-07
1.57358e-05
-5.87291e-07
1.58236e-05
-7.21418e-07
1.59308e-05
-8.86017e-07
1.60619e-05
-1.08815e-06
1.62224e-05
-1.33649e-06
1.64194e-05
-1.64163e-06
1.66616e-05
-2.01624e-06
1.696e-05
-2.4768e-06
1.73295e-05
-3.03753e-06
1.77841e-05
-3.73942e-06
-4.52247e-06
1.83647e-05
1.53339e-05
-1.04459e-09
1.53355e-05
-3.61294e-09
1.53379e-05
-7.55819e-09
1.5341e-05
-1.30087e-08
1.53448e-05
-1.97843e-08
1.53496e-05
-2.785e-08
1.53553e-05
-3.74817e-08
1.53622e-05
-4.90986e-08
1.53705e-05
-6.31193e-08
1.53805e-05
-7.99944e-08
1.53924e-05
-1.00292e-07
1.54068e-05
-1.24752e-07
1.5424e-05
-1.54325e-07
1.54448e-05
-1.90225e-07
1.54698e-05
-2.33975e-07
1.55e-05
-2.8746e-07
1.55366e-05
-3.52973e-07
1.5581e-05
-4.33301e-07
1.56349e-05
-5.31852e-07
1.57004e-05
-6.52781e-07
1.57801e-05
-8.01172e-07
1.58774e-05
-9.83328e-07
1.59964e-05
-1.2071e-06
1.6142e-05
-1.48213e-06
1.63208e-05
-1.82035e-06
1.65406e-05
-2.23612e-06
1.68118e-05
-2.74795e-06
1.71484e-05
-3.37412e-06
1.75637e-05
-4.15477e-06
-5.05794e-06
1.80992e-05
1.53338e-05
-1.51193e-09
1.53352e-05
-4.97418e-09
1.53373e-05
-9.69541e-09
1.53401e-05
-1.58141e-08
1.53436e-05
-2.32847e-08
1.53479e-05
-3.21499e-08
1.53531e-05
-4.26983e-08
1.53594e-05
-5.53689e-08
1.53669e-05
-7.06301e-08
1.53759e-05
-8.89879e-08
1.53867e-05
-1.11063e-07
1.53996e-05
-1.37656e-07
1.5415e-05
-1.69799e-07
1.54336e-05
-2.08813e-07
1.5456e-05
-2.56352e-07
1.5483e-05
-3.14459e-07
1.55156e-05
-3.85615e-07
1.55552e-05
-4.72834e-07
1.56031e-05
-5.79798e-07
1.56614e-05
-7.11012e-07
1.57322e-05
-8.72021e-07
1.58186e-05
-1.0697e-06
1.59241e-05
-1.31258e-06
1.60531e-05
-1.61122e-06
1.62115e-05
-1.97869e-06
1.64063e-05
-2.43092e-06
1.66467e-05
-2.98836e-06
1.69457e-05
-3.67313e-06
1.73157e-05
-4.52478e-06
-5.53959e-06
1.77973e-05
1.53337e-05
-1.90204e-09
1.53349e-05
-6.14451e-09
1.53368e-05
-1.15718e-08
1.53393e-05
-1.832e-08
1.53424e-05
-2.6424e-08
1.53463e-05
-3.59964e-08
1.53509e-05
-4.73516e-08
1.53565e-05
-6.09474e-08
1.53632e-05
-7.72908e-08
1.53711e-05
-9.69355e-08
1.53806e-05
-1.20549e-07
1.53919e-05
-1.48988e-07
1.54055e-05
-1.83353e-07
1.54217e-05
-2.25055e-07
1.54412e-05
-2.75863e-07
1.54647e-05
-3.37951e-07
1.54931e-05
-4.13966e-07
1.55273e-05
-5.07114e-07
1.55689e-05
-6.2131e-07
1.56192e-05
-7.61361e-07
1.56804e-05
-9.33196e-07
1.57549e-05
-1.14417e-06
1.58457e-05
-1.40341e-06
1.59567e-05
-1.72224e-06
1.60928e-05
-2.11473e-06
1.626e-05
-2.59817e-06
1.64664e-05
-3.19475e-06
1.67234e-05
-3.93014e-06
1.70421e-05
-4.84346e-06
-5.95846e-06
1.7461e-05
1.53337e-05
-2.23287e-09
1.53347e-05
-7.14832e-09
1.53363e-05
-1.32029e-08
1.53385e-05
-2.05218e-08
1.53413e-05
-2.91871e-08
1.53446e-05
-3.93684e-08
1.53487e-05
-5.14103e-08
1.53535e-05
-6.57899e-08
1.53593e-05
-8.30441e-08
1.53661e-05
-1.03766e-07
1.53742e-05
-1.28664e-07
1.53839e-05
-1.5864e-07
1.53954e-05
-1.94854e-07
1.54091e-05
-2.38791e-07
1.54256e-05
-2.92311e-07
1.54453e-05
-3.57701e-07
1.54691e-05
-4.37738e-07
1.54978e-05
-5.35788e-07
1.55324e-05
-6.55959e-07
1.55744e-05
-8.03298e-07
1.56252e-05
-9.84047e-07
1.5687e-05
-1.20594e-06
1.57622e-05
-1.4786e-06
1.58538e-05
-1.81393e-06
1.5966e-05
-2.22685e-06
1.61035e-05
-2.73574e-06
1.6273e-05
-3.36426e-06
1.6484e-05
-4.14115e-06
1.67458e-05
-5.10517e-06
-6.30569e-06
1.7093e-05
1.53336e-05
-2.51407e-09
1.53345e-05
-8.00359e-09
1.53359e-05
-1.46023e-08
1.53378e-05
-2.24191e-08
1.53401e-05
-3.15635e-08
1.5343e-05
-4.22487e-08
1.53465e-05
-5.48493e-08
1.53505e-05
-6.9861e-08
1.53553e-05
-8.78438e-08
1.5361e-05
-1.09421e-07
1.53677e-05
-1.35335e-07
1.53755e-05
-1.66524e-07
1.53849e-05
-2.04195e-07
1.5396e-05
-2.49889e-07
1.54092e-05
-3.05538e-07
1.5425e-05
-3.73515e-07
1.5444e-05
-4.56698e-07
1.54668e-05
-5.58573e-07
1.54942e-05
-6.83395e-07
1.55273e-05
-8.36395e-07
1.55673e-05
-1.02404e-06
1.56157e-05
-1.25435e-06
1.56744e-05
-1.5373e-06
1.57457e-05
-1.88526e-06
1.58326e-05
-2.3137e-06
1.59387e-05
-2.84185e-06
1.60689e-05
-3.49446e-06
1.62305e-05
-4.30274e-06
1.64303e-05
-5.30494e-06
-6.57304e-06
1.66976e-05
1.53336e-05
-2.75144e-09
1.53343e-05
-8.72427e-09
1.53355e-05
-1.57818e-08
1.53371e-05
-2.40146e-08
1.5339e-05
-3.3547e-08
1.53414e-05
-4.4625e-08
1.53442e-05
-5.76498e-08
1.53475e-05
-7.31339e-08
1.53513e-05
-9.1654e-08
1.53557e-05
-1.13856e-07
1.53609e-05
-1.40506e-07
1.5367e-05
-1.72572e-07
1.53741e-05
-2.11291e-07
1.53824e-05
-2.58246e-07
1.53923e-05
-3.15419e-07
1.5404e-05
-3.85242e-07
1.5418e-05
-4.70662e-07
1.54347e-05
-5.75247e-07
1.54546e-05
-7.0335e-07
1.54785e-05
-8.60321e-07
1.55073e-05
-1.05278e-06
1.55418e-05
-1.28892e-06
1.55835e-05
-1.57893e-06
1.56336e-05
-1.93544e-06
1.56942e-05
-2.37429e-06
1.57676e-05
-2.9152e-06
1.58567e-05
-3.58355e-06
1.59662e-05
-4.41224e-06
1.61e-05
-5.43875e-06
-6.75346e-06
1.62804e-05
1.53335e-05
-2.94915e-09
1.53341e-05
-9.32174e-09
1.53351e-05
-1.67528e-08
1.53364e-05
-2.53136e-08
1.5338e-05
-3.51358e-08
1.53399e-05
-4.64902e-08
1.5342e-05
-5.98e-08
1.53445e-05
-7.55909e-08
1.53473e-05
-9.44502e-08
1.53504e-05
-1.17038e-07
1.53541e-05
-1.44138e-07
1.53582e-05
-1.76733e-07
1.5363e-05
-2.16082e-07
1.53686e-05
-2.63789e-07
1.5375e-05
-3.21866e-07
1.53825e-05
-3.92776e-07
1.53914e-05
-4.79503e-07
1.54018e-05
-5.85657e-07
1.54141e-05
-7.15639e-07
1.54286e-05
-8.74855e-07
1.54458e-05
-1.06999e-06
1.54662e-05
-1.30931e-06
1.54904e-05
-1.60307e-06
1.55189e-05
-1.964e-06
1.55527e-05
-2.40802e-06
1.55924e-05
-2.95497e-06
1.56392e-05
-3.63036e-06
1.56949e-05
-4.46794e-06
1.576e-05
-5.50384e-06
-6.84175e-06
1.58483e-05
1.53335e-05
-3.11077e-09
1.5334e-05
-9.80618e-09
1.53348e-05
-1.75268e-08
1.53358e-05
-2.63241e-08
1.5337e-05
-3.63329e-08
1.53383e-05
-4.78428e-08
1.53398e-05
-6.12948e-08
1.53414e-05
-7.72228e-08
1.53432e-05
-9.6219e-08
1.53451e-05
-1.18949e-07
1.53472e-05
-1.46207e-07
1.53494e-05
-1.7898e-07
1.53519e-05
-2.18533e-07
1.53546e-05
-2.66478e-07
1.53575e-05
-3.24829e-07
1.53608e-05
-3.96058e-07
1.53645e-05
-4.83151e-07
1.53685e-05
-5.89721e-07
1.53731e-05
-7.20165e-07
1.53781e-05
-8.79884e-07
1.53836e-05
-1.07554e-06
1.53897e-05
-1.31537e-06
1.53962e-05
-1.60957e-06
1.54029e-05
-1.97075e-06
1.54096e-05
-2.41465e-06
1.54155e-05
-2.96088e-06
1.54196e-05
-3.63451e-06
1.54209e-05
-4.46917e-06
1.5416e-05
-5.49901e-06
-6.83515e-06
1.54094e-05
1.53335e-05
-3.23981e-09
1.53338e-05
-1.01878e-08
1.53344e-05
-1.81168e-08
1.53352e-05
-2.70572e-08
1.5336e-05
-3.71451e-08
1.53368e-05
-4.86868e-08
1.53377e-05
-6.21361e-08
1.53385e-05
-7.80297e-08
1.53392e-05
-9.69578e-08
1.53398e-05
-1.19586e-07
1.53403e-05
-1.46707e-07
1.53407e-05
-1.79305e-07
1.53408e-05
-2.18636e-07
1.53406e-05
-2.663e-07
1.53401e-05
-3.24297e-07
1.53391e-05
-3.95075e-07
1.53375e-05
-4.81594e-07
1.53352e-05
-5.87426e-07
1.5332e-05
-7.16918e-07
1.53275e-05
-8.75401e-07
1.53214e-05
-1.06944e-06
1.53132e-05
-1.30713e-06
1.53021e-05
-1.59848e-06
1.52871e-05
-1.95578e-06
1.52668e-05
-2.39435e-06
1.52391e-05
-2.9332e-06
1.5201e-05
-3.59638e-06
1.51483e-05
-4.41644e-06
1.50741e-05
-5.42481e-06
-6.73384e-06
1.49728e-05
1.53334e-05
-3.34011e-09
1.53337e-05
-1.0478e-08
1.53341e-05
-1.85379e-08
1.53346e-05
-2.75269e-08
1.53351e-05
-3.75839e-08
1.53354e-05
-4.90318e-08
1.53356e-05
-6.23332e-08
1.53356e-05
-7.80203e-08
1.53353e-05
-9.66756e-08
1.53347e-05
-1.18957e-07
1.53336e-05
-1.45649e-07
1.5332e-05
-1.7772e-07
1.53298e-05
-2.16405e-07
1.53268e-05
-2.63276e-07
1.53228e-05
-3.20294e-07
1.53176e-05
-3.89861e-07
1.53108e-05
-4.74873e-07
1.53022e-05
-5.78829e-07
1.52913e-05
-7.05974e-07
1.52774e-05
-8.6151e-07
1.52598e-05
-1.05183e-06
1.52375e-05
-1.28479e-06
1.5209e-05
-1.57006e-06
1.51727e-05
-1.91949e-06
1.51261e-05
-2.3477e-06
1.50656e-05
-2.87273e-06
1.49864e-05
-3.51715e-06
1.48814e-05
-4.31147e-06
1.47402e-05
-5.28363e-06
-6.54116e-06
1.45475e-05
1.53334e-05
-3.41622e-09
1.53336e-05
-1.06903e-08
1.53339e-05
-1.88082e-08
1.53341e-05
-2.77508e-08
1.53342e-05
-3.76644e-08
1.53341e-05
-4.88927e-08
1.53336e-05
-6.19018e-08
1.53328e-05
-7.72123e-08
1.53315e-05
-9.5392e-08
1.53297e-05
-1.17086e-07
1.53271e-05
-1.4306e-07
1.53236e-05
-1.74259e-07
1.53191e-05
-2.11883e-07
1.53133e-05
-2.57457e-07
1.53059e-05
-3.12885e-07
1.52965e-05
-3.80494e-07
1.52847e-05
-4.6309e-07
1.52699e-05
-5.64055e-07
1.52515e-05
-6.87493e-07
1.52284e-05
-8.38416e-07
1.51995e-05
-1.02297e-06
1.51634e-05
-1.2487e-06
1.51182e-05
-1.52481e-06
1.50612e-05
-1.86254e-06
1.49891e-05
-2.27561e-06
1.48972e-05
-2.78082e-06
1.47788e-05
-3.39874e-06
1.46244e-05
-4.15707e-06
1.44204e-05
-5.07964e-06
-6.2636e-06
1.41429e-05
1.53334e-05
-3.47379e-09
1.53335e-05
-1.08418e-08
1.53337e-05
-1.89499e-08
1.53337e-05
-2.77495e-08
1.53334e-05
-3.74059e-08
1.53328e-05
-4.82899e-08
1.53318e-05
-6.08651e-08
1.53302e-05
-7.56317e-08
1.53279e-05
-9.31372e-08
1.53249e-05
-1.14008e-07
1.53208e-05
-1.38984e-07
1.53155e-05
-1.68976e-07
1.53088e-05
-2.05135e-07
1.53002e-05
-2.48923e-07
1.52895e-05
-3.02168e-07
1.52761e-05
-3.67097e-07
1.52594e-05
-4.46396e-07
1.52387e-05
-5.43297e-07
1.52129e-05
-6.61715e-07
1.51809e-05
-8.06425e-07
1.51412e-05
-9.83267e-07
1.50919e-05
-1.19937e-06
1.50304e-05
-1.4634e-06
1.49538e-05
-1.78585e-06
1.48575e-05
-2.17936e-06
1.47359e-05
-2.65923e-06
1.45809e-05
-3.24373e-06
1.43809e-05
-3.95709e-06
1.41199e-05
-4.8186e-06
-5.91052e-06
1.37668e-05
1.53334e-05
-3.52011e-09
1.53335e-05
-1.09548e-08
1.53335e-05
-1.89902e-08
1.53333e-05
-2.7547e-08
1.53328e-05
-3.68308e-08
1.53317e-05
-4.72491e-08
1.53301e-05
-5.92526e-08
1.53278e-05
-7.33127e-08
1.53246e-05
-8.99518e-08
1.53204e-05
-1.09772e-07
1.53149e-05
-1.33482e-07
1.53078e-05
-1.61944e-07
1.52989e-05
-1.96249e-07
1.52878e-05
-2.37785e-07
1.52739e-05
-2.88279e-07
1.52567e-05
-3.49837e-07
1.52353e-05
-4.24998e-07
1.52088e-05
-5.16809e-07
1.5176e-05
-6.28959e-07
1.51355e-05
-7.65938e-07
1.50855e-05
-9.33218e-07
1.50236e-05
-1.13745e-06
1.49468e-05
-1.38669e-06
1.48515e-05
-1.69054e-06
1.47327e-05
-2.06049e-06
1.45836e-05
-2.51013e-06
1.43951e-05
-3.05524e-06
1.41541e-05
-3.71613e-06
1.3843e-05
-4.5075e-06
-5.49347e-06
1.3426e-05
1.53334e-05
-3.5662e-09
1.53335e-05
-1.10576e-08
1.53334e-05
-1.89565e-08
1.53331e-05
-2.71706e-08
1.53322e-05
-3.59693e-08
1.53308e-05
-4.58015e-08
1.53286e-05
-5.71009e-08
1.53256e-05
-7.02978e-08
1.53215e-05
-8.58867e-08
1.53162e-05
-1.04441e-07
1.53093e-05
-1.26627e-07
1.53007e-05
-1.53253e-07
1.52897e-05
-1.85339e-07
1.52761e-05
-2.24178e-07
1.52592e-05
-2.71385e-07
1.52383e-05
-3.28921e-07
1.52125e-05
-3.99149e-07
1.51806e-05
-4.84905e-07
1.51412e-05
-5.89615e-07
1.50927e-05
-7.17439e-07
1.50329e-05
-8.73437e-07
1.49592e-05
-1.06373e-06
1.48682e-05
-1.29567e-06
1.47556e-05
-1.57796e-06
1.46159e-05
-1.92078e-06
1.44418e-05
-2.33598e-06
1.42233e-05
-2.83675e-06
1.39465e-05
-3.43936e-06
1.35931e-05
-4.1541e-06
-5.02537e-06
1.3125e-05
1.53334e-05
-3.62715e-09
1.53335e-05
-1.11938e-08
1.53335e-05
-1.88946e-08
1.53329e-05
-2.66452e-08
1.53318e-05
-3.48428e-08
1.533e-05
-4.39827e-08
1.53273e-05
-5.4452e-08
1.53237e-05
-6.66353e-08
1.53188e-05
-8.10005e-08
1.53124e-05
-9.80862e-08
1.53043e-05
-1.18509e-07
1.52941e-05
-1.43012e-07
1.52813e-05
-1.72535e-07
1.52654e-05
-2.08267e-07
1.52457e-05
-2.51686e-07
1.52213e-05
-3.04593e-07
1.51913e-05
-3.69152e-07
1.51544e-05
-4.47957e-07
1.51089e-05
-5.4414e-07
1.5053e-05
-6.61496e-07
1.49842e-05
-8.04629e-07
1.48995e-05
-9.79087e-07
1.47953e-05
-1.19148e-06
1.46669e-05
-1.44956e-06
1.45084e-05
-1.7622e-06
1.43118e-05
-2.13941e-06
1.4067e-05
-2.59196e-06
1.37598e-05
-3.13212e-06
1.33721e-05
-3.76643e-06
-4.51946e-06
1.28662e-05
1.53334e-05
-3.72799e-09
1.53337e-05
-1.14188e-08
1.53336e-05
-1.88474e-08
1.5333e-05
-2.60034e-08
1.53316e-05
-3.34893e-08
1.53295e-05
-4.18311e-08
1.53264e-05
-5.13483e-08
1.53221e-05
-6.23778e-08
1.53165e-05
-7.53599e-08
1.53092e-05
-9.07911e-08
1.52999e-05
-1.0923e-07
1.52882e-05
-1.3135e-07
1.52737e-05
-1.57996e-07
1.52557e-05
-1.90239e-07
1.52334e-05
-2.29412e-07
1.52059e-05
-2.77134e-07
1.51721e-05
-3.35347e-07
1.51305e-05
-4.06383e-07
1.50795e-05
-4.93048e-07
1.50167e-05
-5.98742e-07
1.49397e-05
-7.2758e-07
1.48451e-05
-8.84501e-07
1.47289e-05
-1.07536e-06
1.45863e-05
-1.30693e-06
1.44109e-05
-1.58678e-06
1.41947e-05
-1.92317e-06
1.39273e-05
-2.32458e-06
1.35948e-05
-2.79967e-06
1.31806e-05
-3.35216e-06
-3.98831e-06
1.26494e-05
1.53335e-05
-3.91284e-09
1.53339e-05
-1.18123e-08
1.53339e-05
-1.88615e-08
1.53332e-05
-2.5267e-08
1.53316e-05
-3.19412e-08
1.53292e-05
-3.93941e-08
1.53257e-05
-4.78412e-08
1.53209e-05
-5.75852e-08
1.53146e-05
-6.90396e-08
1.53064e-05
-8.26468e-08
1.52961e-05
-9.89021e-08
1.52832e-05
-1.18401e-07
1.52671e-05
-1.41887e-07
1.52471e-05
-1.70303e-07
1.52225e-05
-2.04819e-07
1.51922e-05
-2.46856e-07
1.5155e-05
-2.98119e-07
1.51093e-05
-3.60651e-07
1.50532e-05
-4.36913e-07
1.49843e-05
-5.29879e-07
1.48999e-05
-6.43149e-07
1.47964e-05
-7.81031e-07
1.46696e-05
-9.48611e-07
1.45144e-05
-1.15173e-06
1.43243e-05
-1.39666e-06
1.40911e-05
-1.68996e-06
1.38047e-05
-2.03817e-06
1.34519e-05
-2.44682e-06
1.30178e-05
-2.91811e-06
-3.44294e-06
1.24724e-05
1.53337e-05
-4.25712e-09
1.53344e-05
-1.24882e-08
1.53345e-05
-1.89653e-08
1.53337e-05
-2.44609e-08
1.5332e-05
-3.02528e-08
1.53293e-05
-3.67245e-08
1.53254e-05
-4.39866e-08
1.53202e-05
-5.23281e-08
1.53133e-05
-6.21278e-08
1.53044e-05
-7.37596e-08
1.52931e-05
-8.76538e-08
1.52791e-05
-1.04322e-07
1.52616e-05
-1.24399e-07
1.524e-05
-1.48687e-07
1.52133e-05
-1.78184e-07
1.51806e-05
-2.14099e-07
1.51403e-05
-2.5788e-07
1.50909e-05
-3.11266e-07
1.50304e-05
-3.76348e-07
1.49561e-05
-4.55654e-07
1.48652e-05
-5.52246e-07
1.4754e-05
-6.69777e-07
1.4618e-05
-8.12592e-07
1.44519e-05
-9.85641e-07
1.42492e-05
-1.19394e-06
1.40016e-05
-1.44241e-06
1.36995e-05
-1.73609e-06
1.33306e-05
-2.07791e-06
1.28829e-05
-2.47036e-06
-2.89253e-06
1.23324e-05
1.5334e-05
-4.90035e-09
1.53351e-05
-1.36237e-08
1.53353e-05
-1.91563e-08
1.53344e-05
-2.35987e-08
1.53326e-05
-2.84607e-08
1.53298e-05
-3.38547e-08
1.53256e-05
-3.98285e-08
1.532e-05
-4.66716e-08
1.53125e-05
-5.4709e-08
1.5303e-05
-6.4232e-08
1.5291e-05
-7.56169e-08
1.52759e-05
-8.92788e-08
1.52573e-05
-1.05733e-07
1.52342e-05
-1.2564e-07
1.52059e-05
-1.49812e-07
1.5171e-05
-1.79233e-07
1.51282e-05
-2.15083e-07
1.50757e-05
-2.58779e-07
1.50114e-05
-3.12024e-07
1.49326e-05
-3.76878e-07
1.48362e-05
-4.55851e-07
1.47183e-05
-5.5192e-07
1.45745e-05
-6.68732e-07
1.43993e-05
-8.10454e-07
1.41862e-05
-9.80869e-07
1.39272e-05
-1.18335e-06
1.36131e-05
-1.42203e-06
1.32328e-05
-1.69756e-06
1.27779e-05
-2.01551e-06
-2.34405e-06
1.22294e-05
1.53345e-05
-6.09141e-09
1.53364e-05
-1.54521e-08
1.53366e-05
-1.94434e-08
1.53358e-05
-2.27748e-08
1.5334e-05
-2.66377e-08
1.5331e-05
-3.08245e-08
1.53266e-05
-3.54193e-08
1.53206e-05
-4.06956e-08
1.53128e-05
-4.68857e-08
1.53027e-05
-5.41788e-08
1.529e-05
-6.29365e-08
1.52742e-05
-7.34474e-08
1.52546e-05
-8.61097e-08
1.52304e-05
-1.01433e-07
1.52006e-05
-1.20036e-07
1.5164e-05
-1.4267e-07
1.51192e-05
-1.70235e-07
1.50642e-05
-2.03814e-07
1.49969e-05
-2.44715e-07
1.49145e-05
-2.94511e-07
1.48138e-05
-3.55147e-07
1.46908e-05
-4.28905e-07
1.4541e-05
-5.1891e-07
1.43592e-05
-6.28711e-07
1.41391e-05
-7.60766e-07
1.38729e-05
-9.17079e-07
1.35521e-05
-1.1013e-06
1.31662e-05
-1.31163e-06
1.27112e-05
-1.56044e-06
-1.7988e-06
1.21659e-05
1.53356e-05
-8.33426e-09
1.5338e-05
-1.78917e-08
1.53383e-05
-1.97581e-08
1.53377e-05
-2.2118e-08
1.53359e-05
-2.48363e-08
1.53327e-05
-2.76819e-08
1.53281e-05
-3.08302e-08
1.53219e-05
-3.44868e-08
1.53138e-05
-3.87776e-08
1.53034e-05
-4.37382e-08
1.52902e-05
-4.9785e-08
1.52738e-05
-5.7037e-08
1.52535e-05
-6.57849e-08
1.52284e-05
-7.63824e-08
1.51977e-05
-8.92521e-08
1.51599e-05
-1.04907e-07
1.51136e-05
-1.23969e-07
1.5057e-05
-1.47192e-07
1.49878e-05
-1.75493e-07
1.49033e-05
-2.09984e-07
1.48002e-05
-2.5204e-07
1.46745e-05
-3.03245e-07
1.4522e-05
-3.66468e-07
1.43378e-05
-4.44425e-07
1.41147e-05
-5.37714e-07
1.38451e-05
-6.47419e-07
1.35205e-05
-7.76741e-07
1.31304e-05
-9.21583e-07
1.26711e-05
-1.10115e-06
-1.23523e-06
1.21076e-05
1.53393e-05
-1.43411e-08
1.53416e-05
-2.01843e-08
1.53414e-05
-1.95661e-08
1.53401e-05
-2.07685e-08
1.53376e-05
-2.23001e-08
1.53337e-05
-2.37785e-08
1.53282e-05
-2.53982e-08
1.5321e-05
-2.73e-08
1.53118e-05
-2.9538e-08
1.53001e-05
-3.20877e-08
1.52856e-05
-3.52609e-08
1.52677e-05
-3.90762e-08
1.52456e-05
-4.37005e-08
1.52185e-05
-4.93338e-08
1.51855e-05
-5.62138e-08
1.51452e-05
-6.46317e-08
1.50962e-05
-7.49439e-08
1.50366e-05
-8.75851e-08
1.49642e-05
-1.03085e-07
1.48763e-05
-1.22095e-07
1.47696e-05
-1.45376e-07
1.46402e-05
-1.7387e-07
1.44816e-05
-2.07824e-07
1.42853e-05
-2.48081e-07
1.40446e-05
-2.97044e-07
1.37533e-05
-3.56103e-07
1.34019e-05
-4.25382e-07
1.29837e-05
-5.03412e-07
1.24821e-05
-5.99531e-07
-5.91469e-07
1.18384e-05
1.5319e-05
1.52988e-05
1.52792e-05
1.52585e-05
1.52362e-05
1.52124e-05
1.5187e-05
1.51597e-05
1.51302e-05
1.50981e-05
1.50628e-05
1.50237e-05
1.498e-05
1.49307e-05
1.48745e-05
1.48099e-05
1.47349e-05
1.46473e-05
1.45442e-05
1.44221e-05
1.42768e-05
1.41029e-05
1.38951e-05
1.3647e-05
1.33499e-05
1.29938e-05
1.25685e-05
1.20651e-05
1.14655e-05
1.08741e-05
1.8687e-05
-8.7429e-06
8.99532e-06
1.84679e-05
-8.93196e-06
9.15101e-06
1.82093e-05
-9.12273e-06
9.38139e-06
1.79134e-05
-9.30538e-06
9.60126e-06
1.75863e-05
-9.48883e-06
9.8159e-06
1.72346e-05
-9.67806e-06
1.00298e-05
1.68621e-05
-9.8749e-06
1.02474e-05
1.64711e-05
-1.00805e-05
1.04714e-05
1.6063e-05
-1.02958e-05
1.07039e-05
1.56377e-05
-1.05213e-05
1.09466e-05
1.51946e-05
-1.07573e-05
1.12004e-05
1.47325e-05
-1.10041e-05
1.14662e-05
1.42503e-05
-1.12624e-05
1.17446e-05
1.37469e-05
-1.15333e-05
1.20366e-05
1.32213e-05
-1.18181e-05
1.23437e-05
1.26723e-05
-1.21188e-05
1.26678e-05
1.20984e-05
-1.24376e-05
1.30114e-05
1.1498e-05
-1.27772e-05
1.33776e-05
1.08687e-05
-1.31409e-05
1.37702e-05
1.02078e-05
-1.35329e-05
1.41938e-05
9.51163e-06
-1.39582e-05
1.46544e-05
8.77543e-06
-1.44231e-05
1.51593e-05
7.99298e-06
-1.49355e-05
1.57179e-05
7.15621e-06
-1.55054e-05
1.63422e-05
6.25301e-06
-1.61453e-05
1.70485e-05
5.27143e-06
-1.68711e-05
1.78527e-05
4.19025e-06
-1.77047e-05
1.87859e-05
2.93885e-06
-1.86857e-05
1.99371e-05
1.64513e-06
-1.97107e-05
2.10044e-05
-2.1371e-05
2.30161e-05
1.88699e-05
-8.48365e-06
1.85718e-05
-8.63382e-06
1.82422e-05
-8.79315e-06
1.78926e-05
-8.9558e-06
1.75284e-05
-9.12457e-06
1.71518e-05
-9.30148e-06
1.67635e-05
-9.48659e-06
1.63628e-05
-9.67979e-06
1.59483e-05
-9.88126e-06
1.55183e-05
-1.00913e-05
1.50712e-05
-1.03102e-05
1.46057e-05
-1.05387e-05
1.4121e-05
-1.07777e-05
1.36161e-05
-1.10283e-05
1.309e-05
-1.1292e-05
1.25417e-05
-1.15704e-05
1.19695e-05
-1.18654e-05
1.13716e-05
-1.21793e-05
1.07457e-05
-1.25151e-05
1.00889e-05
-1.28761e-05
9.39744e-06
-1.32667e-05
8.66652e-06
-1.36922e-05
7.88994e-06
-1.41589e-05
7.05953e-06
-1.4675e-05
6.16449e-06
-1.52502e-05
5.1909e-06
-1.58975e-05
4.11806e-06
-1.66319e-05
2.91071e-06
-1.74784e-05
1.59952e-06
-1.83995e-05
-1.97715e-05
1.87413e-05
-8.17536e-06
1.84158e-05
-8.30835e-06
1.8075e-05
-8.45233e-06
1.77236e-05
-8.60438e-06
1.73624e-05
-8.76339e-06
1.69899e-05
-8.92901e-06
1.66045e-05
-9.10119e-06
1.62048e-05
-9.28009e-06
1.57897e-05
-9.46613e-06
1.53583e-05
-9.65984e-06
1.49099e-05
-9.86185e-06
1.44441e-05
-1.00729e-05
1.39601e-05
-1.02937e-05
1.34571e-05
-1.05254e-05
1.2934e-05
-1.0769e-05
1.23895e-05
-1.10259e-05
1.18219e-05
-1.12978e-05
1.12293e-05
-1.15867e-05
1.06092e-05
-1.1895e-05
9.95864e-06
-1.22255e-05
9.27379e-06
-1.25819e-05
8.54983e-06
-1.29682e-05
7.78056e-06
-1.33896e-05
6.95795e-06
-1.38524e-05
6.07152e-06
-1.43638e-05
5.10751e-06
-1.49335e-05
4.04747e-06
-1.55718e-05
2.86412e-06
-1.6295e-05
1.55495e-06
-1.70904e-05
-1.82165e-05
1.86158e-05
-7.85401e-06
1.82833e-05
-7.97592e-06
1.79386e-05
-8.10762e-06
1.75827e-05
-8.2485e-06
1.72155e-05
-8.39615e-06
1.68358e-05
-8.54929e-06
1.64427e-05
-8.70812e-06
1.60359e-05
-8.87323e-06
1.56148e-05
-9.04509e-06
1.51791e-05
-9.22413e-06
1.47281e-05
-9.41082e-06
1.42609e-05
-9.60573e-06
1.37768e-05
-9.80955e-06
1.32745e-05
-1.00231e-05
1.2753e-05
-1.02474e-05
1.22107e-05
-1.04836e-05
1.1646e-05
-1.07331e-05
1.1057e-05
-1.09976e-05
1.04411e-05
-1.12791e-05
9.79535e-06
-1.15798e-05
9.11597e-06
-1.19025e-05
8.39817e-06
-1.22504e-05
7.63588e-06
-1.26273e-05
6.82139e-06
-1.30379e-05
5.94472e-06
-1.34871e-05
4.99305e-06
-1.39818e-05
3.94948e-06
-1.45283e-05
2.79202e-06
-1.51376e-05
1.50308e-06
-1.58014e-05
-1.67134e-05
1.84516e-05
-7.52175e-06
1.81096e-05
-7.63389e-06
1.77565e-05
-7.75458e-06
1.73928e-05
-7.88479e-06
1.70183e-05
-8.02168e-06
1.66325e-05
-8.16341e-06
1.62345e-05
-8.3102e-06
1.58241e-05
-8.46276e-06
1.54005e-05
-8.6215e-06
1.49631e-05
-8.78671e-06
1.4511e-05
-8.95877e-06
1.40435e-05
-9.13821e-06
1.35596e-05
-9.32565e-06
1.30583e-05
-9.5218e-06
1.25384e-05
-9.72751e-06
1.19985e-05
-9.94374e-06
1.1437e-05
-1.01716e-05
1.08518e-05
-1.04125e-05
1.02405e-05
-1.06678e-05
9.60008e-06
-1.09393e-05
8.92675e-06
-1.12292e-05
8.21589e-06
-1.15396e-05
7.4617e-06
-1.18731e-05
6.65687e-06
-1.22331e-05
5.79205e-06
-1.26223e-05
4.85553e-06
-1.30453e-05
3.83192e-06
-1.35047e-05
2.702e-06
-1.40076e-05
1.44383e-06
-1.45433e-05
-1.52696e-05
1.82518e-05
-7.18054e-06
1.79018e-05
-7.28386e-06
1.75419e-05
-7.39467e-06
1.71721e-05
-7.51502e-06
1.67922e-05
-7.64179e-06
1.64016e-05
-7.77275e-06
1.59995e-05
-7.90813e-06
1.55855e-05
-8.04872e-06
1.51589e-05
-8.19491e-06
1.47191e-05
-8.34693e-06
1.42654e-05
-8.50509e-06
1.3797e-05
-8.66984e-06
1.33131e-05
-8.84171e-06
1.28125e-05
-9.02127e-06
1.22942e-05
-9.20917e-06
1.17566e-05
-9.40618e-06
1.11982e-05
-9.61315e-06
1.06168e-05
-9.83107e-06
1.001e-05
-1.0061e-05
9.37499e-06
-1.03043e-05
8.70805e-06
-1.05622e-05
8.00478e-06
-1.08363e-05
7.25969e-06
-1.11281e-05
6.46598e-06
-1.14393e-05
5.61507e-06
-1.17714e-05
4.69641e-06
-1.21267e-05
3.69609e-06
-1.25044e-05
2.59763e-06
-1.29092e-05
1.3786e-06
-1.33242e-05
-1.3891e-05
1.80156e-05
-6.83137e-06
1.76583e-05
-6.92662e-06
1.7292e-05
-7.02836e-06
1.69165e-05
-7.13946e-06
1.65313e-05
-7.25661e-06
1.6136e-05
-7.3774e-06
1.57299e-05
-7.50204e-06
1.53125e-05
-7.63137e-06
1.48834e-05
-7.76575e-06
1.44418e-05
-7.90533e-06
1.3987e-05
-8.05035e-06
1.35183e-05
-8.20116e-06
1.30348e-05
-8.35818e-06
1.25354e-05
-8.52186e-06
1.20189e-05
-8.69267e-06
1.14839e-05
-8.87119e-06
1.09288e-05
-9.05802e-06
1.03515e-05
-9.25384e-06
9.74984e-06
-9.45935e-06
9.12087e-06
-9.67533e-06
8.46119e-06
-9.90253e-06
7.76663e-06
-1.01417e-05
7.03211e-06
-1.03935e-05
6.25141e-06
-1.06586e-05
5.41677e-06
-1.09368e-05
4.51884e-06
-1.12287e-05
3.54531e-06
-1.15308e-05
2.48231e-06
-1.18462e-05
1.30901e-06
-1.21509e-05
-1.2582e-05
1.77429e-05
-6.47508e-06
1.73792e-05
-6.56293e-06
1.70072e-05
-6.65633e-06
1.66265e-05
-6.75875e-06
1.62367e-05
-6.86684e-06
1.58374e-05
-6.97807e-06
1.5428e-05
-7.09262e-06
1.50079e-05
-7.21134e-06
1.45768e-05
-7.33457e-06
1.41338e-05
-7.46237e-06
1.36784e-05
-7.59491e-06
1.32097e-05
-7.73246e-06
1.27268e-05
-7.87534e-06
1.22288e-05
-8.02385e-06
1.17145e-05
-8.17834e-06
1.11824e-05
-8.33916e-06
1.06311e-05
-8.50669e-06
1.00586e-05
-8.68132e-06
9.46264e-06
-8.8634e-06
8.84058e-06
-9.05327e-06
8.18922e-06
-9.25117e-06
7.5047e-06
-9.45722e-06
6.7824e-06
-9.67124e-06
6.0167e-06
-9.89294e-06
5.20075e-06
-1.01208e-05
4.3264e-06
-1.03544e-05
3.383e-06
-1.05874e-05
2.35921e-06
-1.08224e-05
1.23675e-06
-1.10285e-05
-1.13452e-05
1.74347e-05
-6.11246e-06
1.70653e-05
-6.19353e-06
1.66883e-05
-6.27927e-06
1.63031e-05
-6.37356e-06
1.59094e-05
-6.47312e-06
1.55066e-05
-6.57535e-06
1.50944e-05
-6.68043e-06
1.46723e-05
-6.78916e-06
1.42396e-05
-6.90187e-06
1.37957e-05
-7.01855e-06
1.33401e-05
-7.13928e-06
1.28719e-05
-7.26427e-06
1.23903e-05
-7.39372e-06
1.18943e-05
-7.52783e-06
1.13827e-05
-7.66678e-06
1.08543e-05
-7.81074e-06
1.03075e-05
-7.95989e-06
9.74053e-06
-8.11433e-06
9.15127e-06
-8.27414e-06
8.53724e-06
-8.43924e-06
7.89551e-06
-8.60944e-06
7.22259e-06
-8.78429e-06
6.51432e-06
-8.96297e-06
5.76576e-06
-9.14438e-06
4.97095e-06
-9.32601e-06
4.12292e-06
-9.50634e-06
3.2127e-06
-9.67721e-06
2.23132e-06
-9.84101e-06
1.16334e-06
-9.96048e-06
-1.01819e-05
1.70928e-05
-5.74433e-06
1.67185e-05
-5.81919e-06
1.63371e-05
-5.89792e-06
1.59482e-05
-5.98462e-06
1.55512e-05
-6.07614e-06
1.51458e-05
-6.16994e-06
1.47315e-05
-6.26614e-06
1.43079e-05
-6.36551e-06
1.38743e-05
-6.46833e-06
1.34303e-05
-6.57453e-06
1.29752e-05
-6.68413e-06
1.25082e-05
-6.79726e-06
1.20285e-05
-6.91402e-06
1.15351e-05
-7.0345e-06
1.10271e-05
-7.15873e-06
1.05031e-05
-7.28674e-06
9.96169e-06
-7.41849e-06
9.40124e-06
-7.55388e-06
8.81979e-06
-7.69269e-06
8.21507e-06