/*--------------------------------*- C++ -*----------------------------------*\
  =========                 |
  \\      /  F ield         | OpenFOAM: The Open Source CFD Toolbox
   \\    /   O peration     | Website:  https://openfoam.org
    \\  /    A nd           | Version:  11
     \\/     M anipulation  |
\*---------------------------------------------------------------------------*/
FoamFile
{
    format      ascii;
    class       volVectorField;
    location    "2.6";
    object      U;
}
// * * * * * * * * * * * * * * * * * * * * * * * * * * * * * * * * * * * * * //

dimensions      [0 1 -1 0 0 0 0];

internalField   nonuniform List<vector> 
12600
(
(0.412291 4.6722e-05 0)
(0.412236 8.86497e-05 0)
(0.412174 7.52976e-05 0)
(0.412133 5.99495e-05 0)
(0.412152 3.9818e-05 0)
(0.412243 1.51318e-05 0)
(0.412405 -9.98771e-06 0)
(0.41264 -3.54555e-05 0)
(0.412953 -6.19394e-05 0)
(0.413352 -9.2463e-05 0)
(0.413846 -0.000128486 0)
(0.414448 -0.000171219 0)
(0.415172 -0.000221508 0)
(0.416036 -0.000280087 0)
(0.41706 -0.000347989 0)
(0.418272 -0.000426929 0)
(0.419703 -0.000519195 0)
(0.42139 -0.000627323 0)
(0.423377 -0.000754155 0)
(0.425716 -0.00090286 0)
(0.428469 -0.00107667 0)
(0.431703 -0.00127884 0)
(0.435497 -0.00151264 0)
(0.439933 -0.00178162 0)
(0.44511 -0.00209123 0)
(0.451127 -0.00243805 0)
(0.458091 -0.00283592 0)
(0.466075 -0.00319996 0)
(0.47521 -0.00386899 0)
(0.486701 -0.00320238 0)
(0.412482 7.69005e-05 0)
(0.412608 6.17461e-05 0)
(0.412787 1.01142e-05 0)
(0.413009 -5.94886e-05 0)
(0.413286 -0.000133472 0)
(0.413632 -0.000210244 0)
(0.414054 -0.000291114 0)
(0.414554 -0.000377999 0)
(0.415137 -0.000472527 0)
(0.415811 -0.000575675 0)
(0.416578 -0.000688825 0)
(0.417444 -0.00081459 0)
(0.418418 -0.000956792 0)
(0.419514 -0.00112007 0)
(0.420752 -0.00130955 0)
(0.422156 -0.00153076 0)
(0.423754 -0.00178974 0)
(0.425581 -0.0020935 0)
(0.427676 -0.00245 0)
(0.430087 -0.00286798 0)
(0.432867 -0.00335698 0)
(0.43608 -0.00392709 0)
(0.4398 -0.00458781 0)
(0.44411 -0.00534831 0)
(0.449101 -0.00621755 0)
(0.454873 -0.00719825 0)
(0.461541 -0.00830858 0)
(0.469195 -0.00945096 0)
(0.478025 -0.0110282 0)
(0.487917 -0.0109126 0)
(0.412481 -1.12051e-05 0)
(0.412566 -7.50962e-05 0)
(0.412724 -0.000176574 0)
(0.412939 -0.000293095 0)
(0.41321 -0.000414149 0)
(0.413547 -0.000541616 0)
(0.413956 -0.000678653 0)
(0.414439 -0.000826572 0)
(0.414999 -0.00098551 0)
(0.415642 -0.00115573 0)
(0.416374 -0.00133909 0)
(0.417207 -0.00154022 0)
(0.41815 -0.00176619 0)
(0.419218 -0.00202528 0)
(0.420429 -0.00232612 0)
(0.421803 -0.00267745 0)
(0.423368 -0.00308891 0)
(0.425153 -0.00357182 0)
(0.427199 -0.00413882 0)
(0.429549 -0.0048038 0)
(0.432258 -0.00558257 0)
(0.435389 -0.00649257 0)
(0.439017 -0.00755142 0)
(0.443226 -0.00877635 0)
(0.448112 -0.0101843 0)
(0.453786 -0.0117856 0)
(0.460347 -0.0136035 0)
(0.46798 -0.0155433 0)
(0.476596 -0.017989 0)
(0.487144 -0.0189418 0)
(0.412476 -4.50884e-05 0)
(0.412543 -0.000151299 0)
(0.412684 -0.0002882 0)
(0.412888 -0.00044437 0)
(0.41315 -0.000611544 0)
(0.413475 -0.000788609 0)
(0.413869 -0.000976549 0)
(0.414336 -0.00117631 0)
(0.414877 -0.00138962 0)
(0.415497 -0.00161971 0)
(0.416202 -0.00187132 0)
(0.417003 -0.00215079 0)
(0.41791 -0.00246597 0)
(0.418938 -0.00282609 0)
(0.420103 -0.00324166 0)
(0.421425 -0.00372452 0)
(0.42293 -0.00428825 0)
(0.424646 -0.00494858 0)
(0.426612 -0.00572361 0)
(0.428871 -0.00663397 0)
(0.431476 -0.00770263 0)
(0.43449 -0.00895445 0)
(0.437985 -0.0104155 0)
(0.442047 -0.012112 0)
(0.446772 -0.0140698 0)
(0.452278 -0.0163056 0)
(0.458666 -0.0188516 0)
(0.466154 -0.0216109 0)
(0.474621 -0.0249818 0)
(0.485227 -0.026998 0)
(0.412473 -7.30389e-05 0)
(0.412528 -0.000231067 0)
(0.412654 -0.000414128 0)
(0.412845 -0.000617285 0)
(0.413093 -0.00083435 0)
(0.413402 -0.0010631 0)
(0.413776 -0.00130446 0)
(0.414219 -0.00156033 0)
(0.414734 -0.00183319 0)
(0.415324 -0.0021267 0)
(0.415996 -0.00244638 0)
(0.416759 -0.00279996 0)
(0.417622 -0.00319732 0)
(0.418599 -0.0036501 0)
(0.419704 -0.00417166 0)
(0.420959 -0.0047771 0)
(0.422385 -0.00548376 0)
(0.424012 -0.00631169 0)
(0.425875 -0.00728397 0)
(0.428017 -0.00842678 0)
(0.430487 -0.0097696 0)
(0.433347 -0.011345 0)
(0.436667 -0.0131877 0)
(0.440533 -0.0153336 0)
(0.44504 -0.0178189 0)
(0.450313 -0.0206726 0)
(0.456454 -0.0239372 0)
(0.463716 -0.0275358 0)
(0.471945 -0.0318425 0)
(0.482514 -0.0350479 0)
(0.412471 -9.69248e-05 0)
(0.412519 -0.00030124 0)
(0.412633 -0.000526987 0)
(0.412809 -0.000772307 0)
(0.413042 -0.00103331 0)
(0.413332 -0.00130783 0)
(0.413683 -0.00159635 0)
(0.414099 -0.00190094 0)
(0.414583 -0.00222488 0)
(0.415137 -0.00257323 0)
(0.415768 -0.00295324 0)
(0.416482 -0.00337439 0)
(0.417291 -0.00384822 0)
(0.418204 -0.00438819 0)
(0.419238 -0.00500979 0)
(0.420409 -0.00573084 0)
(0.42174 -0.00657199 0)
(0.423258 -0.00755735 0)
(0.424996 -0.00871491 0)
(0.426992 -0.0100769 0)
(0.429294 -0.0116797 0)
(0.431961 -0.0135638 0)
(0.435061 -0.0157733 0)
(0.438677 -0.0183546 0)
(0.442905 -0.0213563 0)
(0.447873 -0.0248214 0)
(0.453686 -0.028806 0)
(0.46063 -0.0332598 0)
(0.468522 -0.038533 0)
(0.478962 -0.043004 0)
(0.41247 -0.000117587 0)
(0.412513 -0.000363573 0)
(0.412615 -0.00063025 0)
(0.412776 -0.000916601 0)
(0.41299 -0.00122009 0)
(0.413258 -0.00153886 0)
(0.413582 -0.00187333 0)
(0.413966 -0.00222588 0)
(0.414413 -0.00260054 0)
(0.414925 -0.00300323 0)
(0.415507 -0.00344217 0)
(0.416166 -0.00392801 0)
(0.41691 -0.00447377 0)
(0.417751 -0.00509479 0)
(0.418701 -0.00580883 0)
(0.419776 -0.00663645 0)
(0.420996 -0.00760156 0)
(0.422386 -0.00873212 0)
(0.423976 -0.0100607 0)
(0.425801 -0.011625 0)
(0.427906 -0.0134678 0)
(0.430345 -0.0156375 0)
(0.433181 -0.0181876 0)
(0.436496 -0.021176 0)
(0.440382 -0.0246651 0)
(0.44497 -0.0287156 0)
(0.450364 -0.0334014 0)
(0.456882 -0.0387098 0)
(0.464312 -0.0449685 0)
(0.474486 -0.0507935 0)
(0.412469 -0.00013584 0)
(0.412507 -0.000419277 0)
(0.412598 -0.000723883 0)
(0.412743 -0.00104841 0)
(0.412937 -0.00139097 0)
(0.41318 -0.00175014 0)
(0.413474 -0.00212628 0)
(0.413823 -0.00252191 0)
(0.414228 -0.00294155 0)
(0.414692 -0.00339197 0)
(0.41522 -0.00388249 0)
(0.415816 -0.00442511 0)
(0.416488 -0.00503437 0)
(0.417246 -0.00572733 0)
(0.418102 -0.00652375 0)
(0.419068 -0.00744651 0)
(0.420163 -0.00852234 0)
(0.421409 -0.00978259 0)
(0.422831 -0.0112641 0)
(0.424462 -0.0130096 0)
(0.426341 -0.0150685 0)
(0.428516 -0.0174968 0)
(0.431047 -0.0203576 0)
(0.434008 -0.0237207 0)
(0.437488 -0.0276635 0)
(0.441615 -0.032267 0)
(0.446492 -0.0376275 0)
(0.452459 -0.0437776 0)
(0.459279 -0.0510285 0)
(0.468997 -0.0582889 0)
(0.412468 -0.000151943 0)
(0.412501 -0.000468582 0)
(0.412582 -0.000807314 0)
(0.412709 -0.00116643 0)
(0.412881 -0.00154433 0)
(0.413097 -0.00193983 0)
(0.413359 -0.00235341 0)
(0.413669 -0.00278778 0)
(0.414028 -0.00324796 0)
(0.41444 -0.0037415 0)
(0.414907 -0.00427862 0)
(0.415433 -0.00487233 0)
(0.416027 -0.00553839 0)
(0.416694 -0.0062953 0)
(0.417445 -0.00716451 0)
(0.418292 -0.00817098 0)
(0.41925 -0.0093439 0)
(0.420336 -0.0107177 0)
(0.421573 -0.0123328 0)
(0.422988 -0.0142368 0)
(0.424615 -0.0164846 0)
(0.426496 -0.0191395 0)
(0.428682 -0.0222735 0)
(0.431241 -0.0259687 0)
(0.434252 -0.030318 0)
(0.437837 -0.0354245 0)
(0.442091 -0.0414106 0)
(0.447367 -0.0483629 0)
(0.453406 -0.0565831 0)
(0.462412 -0.0653303 0)
(0.412467 -0.000165942 0)
(0.412496 -0.000511485 0)
(0.412565 -0.000880173 0)
(0.412675 -0.00126984 0)
(0.412824 -0.0016789 0)
(0.413011 -0.00210632 0)
(0.413237 -0.00255271 0)
(0.413505 -0.00302091 0)
(0.413815 -0.00351632 0)
(0.41417 -0.00404702 0)
(0.414571 -0.00462397 0)
(0.415024 -0.00526106 0)
(0.415531 -0.00597511 0)
(0.416101 -0.00678585 0)
(0.41674 -0.0077162 0)
(0.417458 -0.0087928 0)
(0.418267 -0.0100468 0)
(0.419181 -0.0115152 0)
(0.420218 -0.0132416 0)
(0.421399 -0.0152772 0)
(0.422753 -0.0176822 0)
(0.424312 -0.0205261 0)
(0.426119 -0.0238894 0)
(0.42823 -0.0278654 0)
(0.430712 -0.0325624 0)
(0.433675 -0.038106 0)
(0.4372 -0.0446473 0)
(0.441634 -0.0523322 0)
(0.446705 -0.06146 0)
(0.454682 -0.0716898 0)
(0.412465 -0.000177818 0)
(0.41249 -0.000547892 0)
(0.412548 -0.000942105 0)
(0.41264 -0.00135789 0)
(0.412764 -0.00179355 0)
(0.41292 -0.0022481 0)
(0.413109 -0.00272222 0)
(0.413333 -0.00321889 0)
(0.413591 -0.00374377 0)
(0.413885 -0.00430541 0)
(0.414217 -0.00491534 0)
(0.41459 -0.00558816 0)
(0.415008 -0.00634152 0)
(0.415474 -0.0071961 0)
(0.415994 -0.00817589 0)
(0.416576 -0.00930878 0)
(0.417228 -0.0106275 0)
(0.41796 -0.0121708 0)
(0.418785 -0.0139848 0)
(0.419718 -0.0161238 0)
(0.42078 -0.0186516 0)
(0.421994 -0.021643 0)
(0.423393 -0.0251855 0)
(0.425017 -0.0293818 0)
(0.426918 -0.0343546 0)
(0.429186 -0.0402503 0)
(0.431881 -0.047249 0)
(0.43532 -0.0555572 0)
(0.439227 -0.0654783 0)
(0.445808 -0.0771016 0)
(0.412464 -0.000187531 0)
(0.412484 -0.000577671 0)
(0.41253 -0.00099278 0)
(0.412603 -0.00142995 0)
(0.412702 -0.00188733 0)
(0.412827 -0.00236392 0)
(0.412977 -0.00286042 0)
(0.413154 -0.00337992 0)
(0.413357 -0.00392826 0)
(0.413589 -0.0045143 0)
(0.413849 -0.00515 0)
(0.414139 -0.00585045 0)
(0.414462 -0.00663385 0)
(0.41482 -0.00752153 0)
(0.415217 -0.00853821 0)
(0.415657 -0.00971262 0)
(0.416146 -0.0110785 0)
(0.416688 -0.0126757 0)
(0.417293 -0.0145519 0)
(0.417968 -0.0167634 0)
(0.418726 -0.0193767 0)
(0.41958 -0.0224699 0)
(0.420548 -0.0261354 0)
(0.421656 -0.0304835 0)
(0.422934 -0.0356478 0)
(0.424444 -0.0417922 0)
(0.426222 -0.0491228 0)
(0.428522 -0.0579021 0)
(0.431082 -0.0684413 0)
(0.435873 -0.0812582 0)
(0.412463 -0.000195046 0)
(0.412478 -0.000600694 0)
(0.412512 -0.00103193 0)
(0.412566 -0.00148555 0)
(0.412639 -0.00195954 0)
(0.412731 -0.00245284 0)
(0.412841 -0.00296615 0)
(0.41297 -0.0035026 0)
(0.413117 -0.00406815 0)
(0.413283 -0.00467182 0)
(0.413469 -0.00532584 0)
(0.413674 -0.00604556 0)
(0.4139 -0.00684952 0)
(0.414148 -0.00775939 0)
(0.414418 -0.00880023 0)
(0.414713 -0.0100011 0)
(0.415035 -0.0113962 0)
(0.415384 -0.0130258 0)
(0.415764 -0.0149382 0)
(0.416175 -0.0171906 0)
(0.416622 -0.0198503 0)
(0.417105 -0.0229971 0)
(0.417631 -0.0267258 0)
(0.418204 -0.0311505 0)
(0.418832 -0.0364116 0)
(0.419541 -0.042685 0)
(0.420336 -0.0501953 0)
(0.421381 -0.0592501 0)
(0.422437 -0.0701673 0)
(0.425066 -0.0838486 0)
(0.412462 -0.000200336 0)
(0.412471 -0.000616878 0)
(0.412494 -0.00105936 0)
(0.412529 -0.00152436 0)
(0.412576 -0.00200969 0)
(0.412634 -0.00251422 0)
(0.412703 -0.00303862 0)
(0.412783 -0.003586 0)
(0.412873 -0.00416234 0)
(0.412973 -0.00477675 0)
(0.413083 -0.0054415 0)
(0.413202 -0.00617207 0)
(0.413329 -0.00698703 0)
(0.413465 -0.00790807 0)
(0.413608 -0.00896023 0)
(0.413756 -0.0101725 0)
(0.41391 -0.0115787 0)
(0.414065 -0.0132191 0)
(0.414218 -0.0151414 0)
(0.414365 -0.0174023 0)
(0.414499 -0.0200687 0)
(0.414612 -0.0232196 0)
(0.414693 -0.026949 0)
(0.414726 -0.031371 0)
(0.414695 -0.0366272 0)
(0.414584 -0.0428973 0)
(0.414361 -0.0504139 0)
(0.414079 -0.0595114 0)
(0.413529 -0.0705071 0)
(0.413699 -0.0845934 0)
(0.412461 -0.000203387 0)
(0.412465 -0.000626183 0)
(0.412475 -0.00107501 0)
(0.412491 -0.00154624 0)
(0.412512 -0.00203756 0)
(0.412536 -0.00254775 0)
(0.412564 -0.00307741 0)
(0.412595 -0.00362962 0)
(0.412628 -0.0042103 0)
(0.412661 -0.00482849 0)
(0.412695 -0.00549641 0)
(0.412727 -0.0062294 0)
(0.412756 -0.00704585 0)
(0.41278 -0.00796717 0)
(0.412795 -0.00901797 0)
(0.412798 -0.0102266 0)
(0.412785 -0.0116263 0)
(0.412747 -0.0132561 0)
(0.412678 -0.0151626 0)
(0.412565 -0.0174004 0)
(0.412392 -0.0200342 0)
(0.412141 -0.0231398 0)
(0.411785 -0.0268077 0)
(0.41129 -0.0311471 0)
(0.41061 -0.0362941 0)
(0.40969 -0.0424229 0)
(0.408456 -0.0497605 0)
(0.406835 -0.0586437 0)
(0.404649 -0.0693749 0)
(0.402207 -0.0833007 0)
(0.41246 -0.000204223 0)
(0.412459 -0.000628651 0)
(0.412457 -0.00107891 0)
(0.412454 -0.00155122 0)
(0.412448 -0.00204314 0)
(0.412439 -0.00255338 0)
(0.412426 -0.00308249 0)
(0.412408 -0.00363343 0)
(0.412384 -0.00421202 0)
(0.412351 -0.00482712 0)
(0.412309 -0.00549072 0)
(0.412256 -0.00621785 0)
(0.412187 -0.00702648 0)
(0.4121 -0.00793744 0)
(0.41199 -0.00897457 0)
(0.411851 -0.0101652 0)
(0.411674 -0.0115413 0)
(0.41145 -0.0131402 0)
(0.411164 -0.0150059 0)
(0.410799 -0.0171904 0)
(0.410332 -0.0197541 0)
(0.409733 -0.0227676 0)
(0.40896 -0.0263142 0)
(0.407962 -0.0304939 0)
(0.406667 -0.0354306 0)
(0.404979 -0.0412828 0)
(0.402783 -0.0482565 0)
(0.399884 -0.0566634 0)
(0.396127 -0.0667715 0)
(0.391117 -0.0799164 0)
(0.412459 -0.000202879 0)
(0.412453 -0.00062439 0)
(0.41244 -0.00107123 0)
(0.412418 -0.00153951 0)
(0.412386 -0.00202669 0)
(0.412344 -0.00253143 0)
(0.412291 -0.00305421 0)
(0.412225 -0.00359786 0)
(0.412144 -0.00416802 0)
(0.412047 -0.00477328 0)
(0.41193 -0.00542526 0)
(0.411793 -0.00613851 0)
(0.411629 -0.00693035 0)
(0.411435 -0.00782077 0)
(0.411203 -0.00883252 0)
(0.410925 -0.00999159 0)
(0.410592 -0.011328 0)
(0.410188 -0.0128768 0)
(0.409696 -0.0146789 0)
(0.409093 -0.0167821 0)
(0.408349 -0.0192412 0)
(0.407424 -0.0221196 0)
(0.406266 -0.0254905 0)
(0.404805 -0.0294405 0)
(0.402949 -0.0340749 0)
(0.400566 -0.0395269 0)
(0.397504 -0.0459669 0)
(0.393463 -0.0536543 0)
(0.388296 -0.0628012 0)
(0.380986 -0.0745629 0)
(0.412458 -0.000199406 0)
(0.412447 -0.000613582 0)
(0.412423 -0.00105229 0)
(0.412382 -0.00151153 0)
(0.412326 -0.00198872 0)
(0.412252 -0.0024825 0)
(0.41216 -0.00299328 0)
(0.412046 -0.00352377 0)
(0.411911 -0.00407933 0)
(0.411751 -0.00466822 0)
(0.411563 -0.00530155 0)
(0.411343 -0.00599325 0)
(0.411088 -0.00675979 0)
(0.41079 -0.00762008 0)
(0.410441 -0.00859552 0)
(0.410032 -0.00971034 0)
(0.40955 -0.0109924 0)
(0.408977 -0.0124737 0)
(0.408292 -0.0141916 0)
(0.407468 -0.0161886 0)
(0.40647 -0.018513 0)
(0.405249 -0.0212189 0)
(0.403744 -0.0243674 0)
(0.401873 -0.0280282 0)
(0.399528 -0.0322831 0)
(0.39655 -0.0372321 0)
(0.392759 -0.042998 0)
(0.387777 -0.0497652 0)
(0.381457 -0.0576717 0)
(0.372327 -0.0675477 0)
(0.412457 -0.000193904 0)
(0.412442 -0.000596508 0)
(0.412407 -0.00102252 0)
(0.412349 -0.00146788 0)
(0.412268 -0.00192997 0)
(0.412164 -0.00240748 0)
(0.412034 -0.00290077 0)
(0.411876 -0.00341241 0)
(0.411687 -0.00394747 0)
(0.411466 -0.00451373 0)
(0.41121 -0.00512176 0)
(0.410912 -0.00578467 0)
(0.410569 -0.00651796 0)
(0.410173 -0.00733924 0)
(0.409714 -0.00826833 0)
(0.409181 -0.00932749 0)
(0.408559 -0.010542 0)
(0.40783 -0.0119407 0)
(0.406968 -0.0135564 0)
(0.405943 -0.0154261 0)
(0.404716 -0.0175905 0)
(0.403234 -0.0200935 0)
(0.40143 -0.0229825 0)
(0.399212 -0.0263082 0)
(0.396462 -0.0301257 0)
(0.393009 -0.0344967 0)
(0.388654 -0.0394894 0)
(0.382984 -0.0451985 0)
(0.375839 -0.0516771 0)
(0.365523 -0.0593362 0)
(0.412456 -0.000186496 0)
(0.412437 -0.000573538 0)
(0.412391 -0.000982534 0)
(0.412317 -0.00140935 0)
(0.412215 -0.00185144 0)
(0.412081 -0.00230756 0)
(0.411915 -0.0027781 0)
(0.411714 -0.00326546 0)
(0.411476 -0.00377437 0)
(0.411198 -0.00431213 0)
(0.410876 -0.0048886 0)
(0.410505 -0.00551602 0)
(0.410079 -0.00620873 0)
(0.409591 -0.00698293 0)
(0.409029 -0.00785669 0)
(0.408381 -0.00885008 0)
(0.407631 -0.00998564 0)
(0.406758 -0.0112887 0)
(0.405737 -0.0127875 0)
(0.404534 -0.0145129 0)
(0.403107 -0.0164976 0)
(0.401402 -0.0187751 0)
(0.399347 -0.0213783 0)
(0.396851 -0.0243384 0)
(0.39379 -0.0276826 0)
(0.389992 -0.0314331 0)
(0.385255 -0.0356018 0)
(0.37917 -0.0401895 0)
(0.371568 -0.0451646 0)
(0.360766 -0.0504892 0)
(0.412455 -0.000177342 0)
(0.412432 -0.000545153 0)
(0.412378 -0.000933089 0)
(0.412289 -0.00133695 0)
(0.412165 -0.00175432 0)
(0.412005 -0.00218418 0)
(0.411805 -0.00262699 0)
(0.411564 -0.00308495 0)
(0.411279 -0.00356242 0)
(0.410947 -0.00406616 0)
(0.410564 -0.00460528 0)
(0.410125 -0.00519104 0)
(0.409623 -0.00583655 0)
(0.409049 -0.00655648 0)
(0.408392 -0.00736702 0)
(0.40764 -0.008286 0)
(0.406773 -0.00933308 0)
(0.405772 -0.01053 0)
(0.40461 -0.0119002 0)
(0.403252 -0.0134686 0)
(0.401655 -0.0152599 0)
(0.399765 -0.0172973 0)
(0.397513 -0.0195997 0)
(0.394806 -0.0221794 0)
(0.391528 -0.0250373 0)
(0.387516 -0.0281583 0)
(0.382577 -0.0315018 0)
(0.376347 -0.0349816 0)
(0.368652 -0.0384915 0)
(0.358033 -0.0415822 0)
(0.412454 -0.000166646 0)
(0.412428 -0.000511969 0)
(0.412366 -0.00087514 0)
(0.412264 -0.00125187 0)
(0.412121 -0.00164004 0)
(0.411936 -0.00203903 0)
(0.411705 -0.00244943 0)
(0.411427 -0.00287324 0)
(0.411099 -0.0033144 0)
(0.410717 -0.00377908 0)
(0.410278 -0.00427559 0)
(0.409776 -0.00481412 0)
(0.409204 -0.00540646 0)
(0.408552 -0.00606572 0)
(0.40781 -0.00680619 0)
(0.406963 -0.0076434 0)
(0.405993 -0.00859414 0)
(0.404879 -0.00967653 0)
(0.403594 -0.0109096 0)
(0.402105 -0.0123123 0)
(0.400368 -0.013902 0)
(0.398332 -0.0156923 0)
(0.395931 -0.0176896 0)
(0.39308 -0.0198893 0)
(0.389673 -0.0222695 0)
(0.385567 -0.0247831 0)
(0.380593 -0.0273459 0)
(0.374456 -0.0298006 0)
(0.366991 -0.0319842 0)
(0.357107 -0.0331242 0)
(0.412454 -0.000154678 0)
(0.412425 -0.000474778 0)
(0.412356 -0.000809845 0)
(0.412243 -0.00115552 0)
(0.412083 -0.00151026 0)
(0.411876 -0.00187407 0)
(0.411617 -0.00224765 0)
(0.411306 -0.00263281 0)
(0.410938 -0.00303312 0)
(0.410512 -0.00345419 0)
(0.410022 -0.00390348 0)
(0.409463 -0.00439006 0)
(0.408827 -0.00492432 0)
(0.408106 -0.00551774 0)
(0.407287 -0.00618271 0)
(0.406356 -0.00693248 0)
(0.405296 -0.0077811 0)
(0.404085 -0.00874325 0)
(0.402696 -0.00983367 0)
(0.401097 -0.0110661 0)
(0.399249 -0.0124513 0)
(0.397102 -0.0139946 0)
(0.394598 -0.0156919 0)
(0.391661 -0.017525 0)
(0.388202 -0.0194543 0)
(0.384106 -0.0214083 0)
(0.379233 -0.0232716 0)
(0.373381 -0.0248374 0)
(0.366398 -0.0259084 0)
(0.357638 -0.0255052 0)
(0.412453 -0.000141817 0)
(0.412423 -0.000434643 0)
(0.41235 -0.000738575 0)
(0.412227 -0.00104939 0)
(0.412054 -0.00136677 0)
(0.411826 -0.00169157 0)
(0.411543 -0.00202449 0)
(0.411202 -0.00236697 0)
(0.410799 -0.00272216 0)
(0.410333 -0.00309509 0)
(0.409797 -0.00349242 0)
(0.409188 -0.00392212 0)
(0.408496 -0.00439326 0)
(0.407713 -0.00491573 0)
(0.406827 -0.00550008 0)
(0.405824 -0.00615736 0)
(0.404686 -0.00689902 0)
(0.403392 -0.00773661 0)
(0.401918 -0.0086811 0)
(0.400231 -0.00974161 0)
(0.398297 -0.0109235 0)
(0.396072 -0.0122254 0)
(0.393503 -0.0136355 0)
(0.39053 -0.0151258 0)
(0.387081 -0.0166446 0)
(0.383072 -0.0181057 0)
(0.378404 -0.019376 0)
(0.372966 -0.0202243 0)
(0.366631 -0.0204401 0)
(0.359202 -0.0189648 0)
(0.412453 -0.000128641 0)
(0.412423 -0.000393122 0)
(0.412347 -0.000663045 0)
(0.412219 -0.000935 0)
(0.412034 -0.00121104 0)
(0.411789 -0.00149325 0)
(0.411485 -0.00178229 0)
(0.411117 -0.0020792 0)
(0.410685 -0.0023867 0)
(0.410184 -0.00270917 0)
(0.409609 -0.00305224 0)
(0.408956 -0.00342262 0)
(0.408216 -0.00382795 0)
(0.40738 -0.00427659 0)
(0.406436 -0.00477731 0)
(0.405371 -0.00533919 0)
(0.404168 -0.00597133 0)
(0.402806 -0.0066825 0)
(0.401262 -0.00748036 0)
(0.399508 -0.00837027 0)
(0.39751 -0.00935337 0)
(0.395232 -0.0104237 0)
(0.39263 -0.0115644 0)
(0.389659 -0.012742 0)
(0.386264 -0.0138994 0)
(0.382396 -0.0149447 0)
(0.377993 -0.0157407 0)
(0.373035 -0.0160557 0)
(0.367426 -0.0156863 0)
(0.361362 -0.0136117 0)
(0.412454 -0.000116021 0)
(0.412425 -0.000352392 0)
(0.412352 -0.000585806 0)
(0.412221 -0.000815083 0)
(0.412026 -0.00104561 0)
(0.411767 -0.00128053 0)
(0.411444 -0.00152044 0)
(0.411055 -0.00176629 0)
(0.410596 -0.00202061 0)
(0.410065 -0.00228718 0)
(0.409457 -0.00257075 0)
(0.408767 -0.0028769 0)
(0.407987 -0.00321196 0)
(0.407107 -0.00358274 0)
(0.406116 -0.00399631 0)
(0.405 -0.00445978 0)
(0.403743 -0.00498016 0)
(0.402326 -0.0055638 0)
(0.400728 -0.00621562 0)
(0.398922 -0.00693803 0)
(0.396881 -0.0077292 0)
(0.394571 -0.00858048 0)
(0.39196 -0.00947262 0)
(0.389015 -0.010371 0)
(0.385701 -0.0112189 0)
(0.382 -0.0119278 0)
(0.377886 -0.012369 0)
(0.373416 -0.0123303 0)
(0.368528 -0.0116316 0)
(0.363714 -0.00937431 0)
(0.412455 -0.000106038 0)
(0.412433 -0.000314036 0)
(0.412367 -0.000507683 0)
(0.412237 -0.000693198 0)
(0.412036 -0.000879602 0)
(0.411766 -0.00106917 0)
(0.411429 -0.00126136 0)
(0.411022 -0.0014571 0)
(0.410544 -0.00165895 0)
(0.409989 -0.0018701 0)
(0.409354 -0.00209415 0)
(0.408634 -0.00233542 0)
(0.40782 -0.0025989 0)
(0.406904 -0.00289001 0)
(0.405875 -0.00321436 0)
(0.404718 -0.00357755 0)
(0.403419 -0.00398493 0)
(0.401961 -0.00444092 0)
(0.400322 -0.00494808 0)
(0.398481 -0.00550661 0)
(0.396411 -0.00611314 0)
(0.394088 -0.00675817 0)
(0.391485 -0.00742292 0)
(0.388582 -0.00807514 0)
(0.385363 -0.00866371 0)
(0.381832 -0.00911065 0)
(0.377998 -0.00930556 0)
(0.373973 -0.00907157 0)
(0.369736 -0.00827003 0)
(0.36596 -0.00619545 0)
(0.412461 -0.000105585 0)
(0.412452 -0.000280409 0)
(0.412398 -0.000418834 0)
(0.412268 -0.000545865 0)
(0.412061 -0.000676186 0)
(0.411783 -0.000811128 0)
(0.411436 -0.000948897 0)
(0.411018 -0.00108944 0)
(0.410524 -0.0012343 0)
(0.409953 -0.00138573 0)
(0.409299 -0.00154648 0)
(0.408558 -0.00171987 0)
(0.407722 -0.00190968 0)
(0.406782 -0.00211994 0)
(0.405726 -0.00235464 0)
(0.404543 -0.00261764 0)
(0.403217 -0.00291286 0)
(0.401733 -0.00324326 0)
(0.400071 -0.00360952 0)
(0.398211 -0.00401022 0)
(0.39613 -0.00444131 0)
(0.393809 -0.00489385 0)
(0.391227 -0.00535157 0)
(0.388375 -0.00578761 0)
(0.38525 -0.006161 0)
(0.381876 -0.00640943 0)
(0.378288 -0.00644852 0)
(0.374623 -0.00613514 0)
(0.370904 -0.00538514 0)
(0.367841 -0.00368095 0)
(0.412479 -0.000134219 0)
(0.412509 -0.000300111 0)
(0.412455 -0.000395306 0)
(0.412317 -0.000473808 0)
(0.412098 -0.000552228 0)
(0.411807 -0.000631863 0)
(0.411444 -0.00071269 0)
(0.411008 -0.000795736 0)
(0.410493 -0.000882178 0)
(0.409898 -0.000973031 0)
(0.40922 -0.00106964 0)
(0.408456 -0.00117395 0)
(0.407598 -0.00128843 0)
(0.406638 -0.0014158 0)
(0.405565 -0.00155884 0)
(0.404363 -0.00172006 0)
(0.403017 -0.0019015 0)
(0.401504 -0.00210434 0)
(0.399802 -0.00232859 0)
(0.397897 -0.00257266 0)
(0.395768 -0.00283264 0)
(0.3934 -0.00310115 0)
(0.390781 -0.00336591 0)
(0.38791 -0.00360772 0)
(0.384802 -0.00379824 0)
(0.381496 -0.00389529 0)
(0.378063 -0.00384251 0)
(0.374624 -0.00354663 0)
(0.371404 -0.00294785 0)
(0.368316 -0.00162331 0)
(0.412262 -7.97741e-05 0)
(0.412079 -0.00016728 0)
(0.411742 -0.000210862 0)
(0.41128 -0.000243551 0)
(0.410742 -0.000274446 0)
(0.41014 -0.000303955 0)
(0.409471 -0.00033239 0)
(0.408729 -0.000360628 0)
(0.407912 -0.000389702 0)
(0.407014 -0.000420801 0)
(0.406033 -0.00045507 0)
(0.40496 -0.00049332 0)
(0.403786 -0.000535997 0)
(0.402501 -0.000583362 0)
(0.401092 -0.000635693 0)
(0.399543 -0.000693363 0)
(0.39784 -0.000756568 0)
(0.395964 -0.00082554 0)
(0.393898 -0.000900796 0)
(0.391623 -0.000982185 0)
(0.389124 -0.00106828 0)
(0.386389 -0.00115634 0)
(0.383419 -0.00124178 0)
(0.380226 -0.00131718 0)
(0.376847 -0.00137133 0)
(0.37335 -0.00138753 0)
(0.369849 -0.00134523 0)
(0.366529 -0.00119879 0)
(0.363646 -0.00101752 0)
(0.361002 -5.47433e-05 0)
(0.491031 -0.00682549 -1.91991e-19)
(0.4955 -0.0103388 -1.92316e-19)
(0.499345 -0.0145569 -2.73216e-18)
(0.502383 -0.0191338 -7.87099e-19)
(0.505039 -0.0239716 7.98136e-19)
(0.507493 -0.0290414 0)
(0.509781 -0.0343619 0)
(0.511955 -0.0399725 8.22111e-19)
(0.514092 -0.0459111 -8.35482e-19)
(0.516247 -0.0522099 -1.68346e-18)
(0.518447 -0.0589022 1.71202e-18)
(0.5207 -0.06603 0)
(0.523006 -0.0736488 -1.74501e-18)
(0.52537 -0.0818226 1.77643e-18)
(0.52781 -0.090645 0)
(0.530334 -0.100223 3.61603e-18)
(0.532954 -0.110686 1.8258e-18)
(0.535689 -0.122192 1.83103e-18)
(0.538551 -0.134942 1.85979e-18)
(0.54155 -0.149184 1.85681e-18)
(0.544688 -0.165234 -1.88243e-18)
(0.547966 -0.183495 5.70649e-18)
(0.551349 -0.204495 0)
(0.55483 -0.228904 -3.76229e-18)
(0.558199 -0.257686 1.84177e-18)
(0.561498 -0.292001 -3.71851e-18)
(0.564035 -0.333245 -5.33336e-18)
(0.564513 -0.38726 0)
(0.567869 -0.437444 0)
(0.545486 -0.563813 -6.00542e-19)
(0.495044 -0.0154727 -3.1285e-18)
(0.497888 -0.0192659 0)
(0.500191 -0.0237234 0)
(0.502057 -0.0284456 -3.22864e-18)
(0.503808 -0.0333593 3.26767e-18)
(0.505575 -0.0385014 3.30786e-18)
(0.507362 -0.0439224 -8.34061e-19)
(0.509172 -0.0496559 8.47904e-19)
(0.511022 -0.0557239 2.58178e-18)
(0.512912 -0.0621511 4.353e-18)
(0.514828 -0.0689745 -1.75566e-18)
(0.516755 -0.0762449 3.58628e-18)
(0.518687 -0.0840258 1.81168e-18)
(0.520627 -0.0923935 1.85061e-18)
(0.522582 -0.101442 1.86162e-18)
(0.524555 -0.111279 3.77849e-18)
(0.526544 -0.122035 0)
(0.528545 -0.133869 -1.92054e-18)
(0.530545 -0.14698 -1.96619e-18)
(0.53252 -0.161613 0)
(0.534435 -0.178078 1.97792e-18)
(0.536237 -0.196763 2.02735e-18)
(0.537824 -0.218172 -4.07679e-18)
(0.539096 -0.242933 0)
(0.539711 -0.271941 1.98356e-18)
(0.539618 -0.306176 2.03379e-18)
(0.537621 -0.347249 -4.01016e-18)
(0.533292 -0.398407 1.82313e-18)
(0.528929 -0.450634 -1.88649e-18)
(0.499851 -0.564515 7.58401e-19)
(0.493477 -0.0237721 3.18467e-18)
(0.495389 -0.027469 0)
(0.497049 -0.0318417 -4.07009e-19)
(0.498665 -0.0365405 7.02059e-18)
(0.500328 -0.0414848 -2.5045e-18)
(0.502028 -0.0466893 -5.07547e-18)
(0.503725 -0.0521792 4.30188e-18)
(0.505397 -0.0579729 -8.68305e-19)
(0.50704 -0.0640947 -2.63564e-18)
(0.508649 -0.0705827 -8.70865e-19)
(0.51022 -0.0774869 9.09128e-19)
(0.511752 -0.0848656 -5.50847e-18)
(0.513249 -0.0927842 3.73705e-18)
(0.514713 -0.101318 -5.68056e-18)
(0.516139 -0.110556 0)
(0.517514 -0.120605 -3.89143e-18)
(0.51882 -0.131594 0)
(0.520031 -0.14368 0)
(0.521109 -0.157059 4.05977e-18)
(0.522004 -0.171968 0)
(0.522641 -0.188705 0)
(0.52292 -0.20764 -4.20975e-18)
(0.522674 -0.229245 4.24863e-18)
(0.521722 -0.254099 0)
(0.519614 -0.283022 0)
(0.51619 -0.316855 -4.28496e-18)
(0.509922 -0.357196 1.92828e-18)
(0.501018 -0.405769 -1.15651e-18)
(0.488669 -0.459056 -1.07892e-18)
(0.454193 -0.560521 0)
(0.49146 -0.0323451 -1.01597e-19)
(0.493017 -0.0361373 -1.02643e-19)
(0.49437 -0.0405666 3.14165e-18)
(0.495801 -0.045308 -6.77341e-18)
(0.49727 -0.0502868 4.2973e-19)
(0.498693 -0.0555182 8.68946e-19)
(0.500046 -0.0610349 -8.62885e-19)
(0.501338 -0.0668679 0)
(0.502578 -0.0730519 4.55901e-18)
(0.503768 -0.0796288 -8.31483e-18)
(0.504906 -0.0866465 3.76799e-18)
(0.505985 -0.0941581 1.90258e-18)
(0.506995 -0.102225 -5.83466e-18)
(0.507922 -0.110919 0)
(0.508745 -0.12033 0)
(0.509437 -0.130562 4.09833e-18)
(0.509964 -0.141745 4.17084e-18)
(0.51028 -0.154031 2.10062e-18)
(0.510327 -0.167607 -1.51223e-20)
(0.510025 -0.1827 -2.18905e-18)
(0.509263 -0.199588 0)
(0.507893 -0.218613 0)
(0.505696 -0.240208 -2.36358e-18)
(0.502414 -0.26489 -7.0597e-18)
(0.49751 -0.293385 0)
(0.490737 -0.326388 -2.51295e-18)
(0.480303 -0.365375 4.6352e-18)
(0.466991 -0.411166 -8.62225e-18)
(0.446899 -0.463339 1.2402e-18)
(0.408789 -0.552213 0)
(0.488573 -0.0408749 0)
(0.489769 -0.044704 3.38929e-18)
(0.490741 -0.049131 -2.99336e-18)
(0.491856 -0.0538725 3.03537e-18)
(0.493017 -0.0588716 4.40821e-19)
(0.494101 -0.0641455 -4.4865e-19)
(0.495095 -0.0697246 -3.62911e-18)
(0.496024 -0.0756369 0)
(0.496891 -0.0819129 3.03094e-20)
(0.497683 -0.0885899 3.8082e-18)
(0.498386 -0.0957128 -4.84348e-18)
(0.498983 -0.103334 4.96927e-18)
(0.499455 -0.111516 5.01512e-18)
(0.499778 -0.120333 -1.02749e-18)
(0.499923 -0.129871 6.29353e-18)
(0.499852 -0.140235 -4.20552e-18)
(0.499517 -0.151546 -4.35001e-18)
(0.498855 -0.163949 -2.22102e-18)
(0.497787 -0.177618 0)
(0.496203 -0.192764 0)
(0.49396 -0.209642 0)
(0.490871 -0.22856 2.39682e-18)
(0.486667 -0.2499 7.37858e-18)
(0.48103 -0.274114 2.46451e-18)
(0.473359 -0.301823 5.13937e-18)
(0.463327 -0.333577 -2.85237e-18)
(0.448981 -0.3707 5.5047e-18)
(0.431495 -0.41335 -3.02073e-19)
(0.404391 -0.462988 4.44706e-18)
(0.364101 -0.539691 7.33322e-18)
(0.4848 -0.0493348 -3.43146e-18)
(0.485646 -0.05322 -3.46319e-18)
(0.486242 -0.0576826 -3.54181e-18)
(0.487034 -0.0624652 0)
(0.487881 -0.0675155 0)
(0.488623 -0.0728466 -3.71658e-18)
(0.489245 -0.078485 0)
(0.489776 -0.0844577 2.8911e-18)
(0.490214 -0.0907958 -6.8214e-18)
(0.49054 -0.0975381 3.98973e-18)
(0.49073 -0.10473 3.05663e-18)
(0.490764 -0.112425 -8.24318e-18)
(0.490619 -0.120684 2.68082e-21)
(0.490263 -0.129578 -3.24503e-18)
(0.489656 -0.139189 6.01762e-20)
(0.488749 -0.149613 -4.44375e-18)
(0.487478 -0.160964 -7.24859e-20)
(0.485763 -0.173377 4.72276e-18)
(0.483503 -0.187011 -2.44852e-18)
(0.480565 -0.202055 -2.46009e-18)
(0.476779 -0.218736 5.09531e-18)
(0.47192 -0.237323 0)
(0.465684 -0.258143 -5.24664e-18)
(0.457704 -0.281574 0)
(0.447337 -0.308128 -5.74232e-18)
(0.434191 -0.338218 5.71703e-18)
(0.41623 -0.372975 2.7553e-19)
(0.394896 -0.412057 6.10158e-18)
(0.36174 -0.45797 -7.9277e-18)
(0.320516 -0.523042 2.30058e-18)
(0.480027 -0.057659 3.39819e-18)
(0.480507 -0.0616028 -1.11654e-19)
(0.480703 -0.0660987 4.30839e-18)
(0.481136 -0.0709109 1.39621e-18)
(0.481628 -0.0759919 0)
(0.481982 -0.0813547 3.81424e-18)
(0.482181 -0.0870262 2.93543e-18)
(0.482259 -0.0930339 -4.94969e-18)
(0.482216 -0.0994093 1.99301e-18)
(0.482023 -0.10619 -2.0309e-18)
(0.481651 -0.113419 -4.19321e-18)
(0.481075 -0.121147 4.28075e-18)
(0.480263 -0.129431 -1.11762e-18)
(0.479174 -0.138336 3.34407e-18)
(0.477759 -0.147939 -1.10014e-18)
(0.475956 -0.158329 -1.18075e-18)
(0.473689 -0.16961 7.23966e-18)
(0.470863 -0.181903 -7.42888e-18)
(0.467359 -0.195349 5.05262e-18)
(0.463025 -0.210113 1.34518e-18)
(0.457666 -0.226388 -3.99245e-18)
(0.451033 -0.244403 2.8296e-18)
(0.442791 -0.264424 0)
(0.43254 -0.286752 -1.49161e-18)
(0.419619 -0.311788 7.67113e-18)
(0.403582 -0.339816 0)
(0.382396 -0.371749 -1.18149e-17)
(0.357659 -0.40688 1.79974e-18)
(0.31958 -0.448196 0)
(0.278474 -0.502391 -7.78145e-18)
(0.474133 -0.0657113 -1.82376e-18)
(0.474224 -0.069708 -2.3094e-19)
(0.473992 -0.074225 -1.42174e-18)
(0.474035 -0.0790501 -2.14761e-18)
(0.474139 -0.0841419 4.87674e-19)
(0.47407 -0.0895139 -4.97566e-19)
(0.473809 -0.0951921 -2.01774e-18)
(0.473397 -0.101203 -2.08346e-18)
(0.472831 -0.107576 2.10104e-18)
(0.472076 -0.114347 -1.06685e-18)
(0.471096 -0.121556 -1.10445e-18)
(0.46986 -0.129249 0)
(0.468329 -0.13748 3.45315e-18)
(0.466456 -0.146309 -1.18633e-18)
(0.464182 -0.155804 -2.41353e-18)
(0.461436 -0.166046 -1.24918e-18)
(0.458131 -0.177126 -1.26091e-18)