/*--------------------------------*- C++ -*----------------------------------*\
  =========                 |
  \\      /  F ield         | OpenFOAM: The Open Source CFD Toolbox
   \\    /   O peration     | Website:  https://openfoam.org
    \\  /    A nd           | Version:  11
     \\/     M anipulation  |
\*---------------------------------------------------------------------------*/
FoamFile
{
    format      ascii;
    class       volScalarField;
    location    "4.3";
    object      p;
}
// * * * * * * * * * * * * * * * * * * * * * * * * * * * * * * * * * * * * * //

dimensions      [0 2 -2 0 0 0 0];

internalField   nonuniform List<scalar> 
12600
(
0.088955
0.0888193
0.0887561
0.0887385
0.0887236
0.088703
0.0886804
0.0886575
0.088634
0.0886091
0.088582
0.0885523
0.0885192
0.0884819
0.0884396
0.0883908
0.0883342
0.0882683
0.0881911
0.0880996
0.08799
0.0878587
0.0877008
0.0875095
0.0872761
0.0869892
0.0866367
0.0861939
0.0856427
0.084877
0.08888
0.0888102
0.0887582
0.0887375
0.0887215
0.0887017
0.0886796
0.0886569
0.0886337
0.088609
0.0885821
0.0885526
0.0885198
0.0884828
0.0884409
0.0883926
0.0883366
0.0882715
0.0881952
0.0881047
0.0879969
0.0878676
0.0877115
0.0875222
0.0872922
0.0870097
0.0866666
0.0862318
0.0857363
0.0851962
0.0888441
0.0888111
0.0887662
0.0887394
0.0887218
0.0887029
0.0886813
0.0886588
0.0886357
0.0886112
0.0885847
0.0885554
0.088523
0.0884867
0.0884455
0.0883983
0.0883436
0.0882798
0.0882047
0.088116
0.0880105
0.087884
0.0877316
0.0875471
0.0873229
0.0870487
0.0867143
0.0863027
0.0858232
0.0852569
0.0888191
0.0887988
0.0887635
0.0887366
0.0887188
0.0887008
0.0886803
0.0886584
0.0886358
0.0886119
0.0885859
0.0885574
0.0885256
0.08849
0.0884498
0.088404
0.088351
0.088289
0.0882161
0.0881302
0.0880281
0.087906
0.087759
0.0875812
0.0873653
0.087102
0.0867808
0.0863889
0.0859147
0.0853405
0.0888008
0.0887876
0.0887614
0.0887372
0.0887191
0.0887016
0.0886819
0.0886606
0.0886385
0.0886152
0.0885899
0.0885621
0.0885313
0.0884966
0.0884575
0.088413
0.0883618
0.0883022
0.0882323
0.08815
0.0880523
0.0879356
0.0877955
0.0876262
0.087421
0.0871711
0.0868661
0.0864939
0.0860341
0.0854767
0.0887872
0.0887781
0.0887581
0.0887365
0.0887183
0.0887011
0.0886822
0.0886617
0.0886402
0.0886174
0.0885927
0.0885656
0.088536
0.0885028
0.0884653
0.0884227
0.0883737
0.088317
0.0882507
0.0881727
0.0880804
0.0879704
0.0878385
0.0876796
0.0874871
0.0872532
0.0869674
0.0866182
0.0861821
0.0856517
0.088777
0.0887702
0.0887545
0.0887355
0.088718
0.0887013
0.0886834
0.0886639
0.0886431
0.088621
0.0885973
0.0885715
0.0885428
0.0885111
0.0884754
0.0884349
0.0883886
0.0883352
0.088273
0.0882
0.0881139
0.0880116
0.0878893
0.0877423
0.0875647
0.0873491
0.0870857
0.0867636
0.0863584
0.0858648
0.0887692
0.0887638
0.0887511
0.0887346
0.0887181
0.0887019
0.0886847
0.088666
0.088646
0.0886247
0.0886019
0.0885772
0.0885499
0.0885197
0.088486
0.088448
0.0884048
0.088355
0.0882974
0.0882301
0.088151
0.0880574
0.0879459
0.0878123
0.0876514
0.0874565
0.0872186
0.0869277
0.0865599
0.0861121
0.0887633
0.0887589
0.0887483
0.0887337
0.0887183
0.0887028
0.0886864
0.0886685
0.0886493
0.088629
0.0886072
0.0885837
0.088558
0.0885296
0.0884982
0.0884629
0.088423
0.0883773
0.0883248
0.0882637
0.0881923
0.0881082
0.0880086
0.0878897
0.0877471
0.0875751
0.0873655
0.0871098
0.0867855
0.0863915
0.088759
0.0887553
0.0887461
0.0887332
0.0887189
0.088704
0.0886883
0.0886713
0.088653
0.0886336
0.088613
0.0885907
0.0885666
0.0885403
0.0885112
0.0884788
0.0884425
0.0884012
0.0883541
0.0882998
0.0882366
0.0881628
0.0880759
0.0879729
0.0878501
0.0877028
0.0875241
0.087307
0.0870314
0.0866984
0.088756
0.0887527
0.0887447
0.0887331
0.0887197
0.0887056
0.0886905
0.0886743
0.088657
0.0886386
0.0886191
0.0885983
0.0885759
0.0885516
0.0885251
0.0884959
0.0884633
0.0884268
0.0883854
0.0883382
0.0882839
0.0882209
0.0881475
0.0880613
0.0879594
0.0878383
0.0876927
0.0875172
0.0872949
0.0870292
0.0887541
0.0887512
0.088744
0.0887334
0.0887209
0.0887074
0.088693
0.0886776
0.0886612
0.0886439
0.0886256
0.0886063
0.0885857
0.0885636
0.0885397
0.0885137
0.0884852
0.0884536
0.0884182
0.0883784
0.0883332
0.0882816
0.0882222
0.0881535
0.0880734
0.0879797
0.0878686
0.087737
0.0875716
0.0873784
0.0887533
0.0887506
0.088744
0.0887341
0.0887224
0.0887096
0.0886958
0.0886812
0.0886657
0.0886494
0.0886324
0.0886146
0.0885958
0.088576
0.0885549
0.0885323
0.0885078
0.0884813
0.0884522
0.08842
0.0883843
0.0883443
0.0882993
0.0882485
0.0881908
0.0881252
0.0880497
0.0879634
0.0878573
0.0877401
0.0887534
0.0887509
0.0887447
0.0887354
0.0887242
0.088712
0.0886989
0.088685
0.0886704
0.0886551
0.0886394
0.0886231
0.0886063
0.0885887
0.0885704
0.0885513
0.0885311
0.0885097
0.0884869
0.0884625
0.0884364
0.0884082
0.0883778
0.0883451
0.08831
0.0882727
0.0882331
0.0881926
0.0881469
0.0881074
0.0887543
0.0887519
0.088746
0.0887371
0.0887264
0.0887147
0.0887021
0.0886889
0.0886752
0.088661
0.0886465
0.0886318
0.0886169
0.0886017
0.0885862
0.0885705
0.0885546
0.0885384
0.088522
0.0885055
0.0884889
0.0884725
0.0884567
0.088442
0.0884294
0.0884202
0.0884162
0.0884211
0.0884354
0.0884732
0.0887561
0.0887538
0.088748
0.0887393
0.0887289
0.0887176
0.0887056
0.088693
0.0886801
0.088667
0.0886538
0.0886406
0.0886275
0.0886147
0.088602
0.0885898
0.0885781
0.0885672
0.0885571
0.0885484
0.0885413
0.0885366
0.0885352
0.0885383
0.0885476
0.0885658
0.0885964
0.0886451
0.0887174
0.0888297
0.0887587
0.0887564
0.0887506
0.088742
0.0887317
0.0887207
0.0887092
0.0886972
0.0886851
0.0886729
0.088661
0.0886493
0.0886381
0.0886276
0.0886178
0.088609
0.0886015
0.0885957
0.0885919
0.0885908
0.0885931
0.0885998
0.0886124
0.0886326
0.0886632
0.0887076
0.0887711
0.0888613
0.0889879
0.0891694
0.0887621
0.0887597
0.0887538
0.088745
0.0887348
0.088724
0.0887129
0.0887015
0.0886901
0.0886789
0.0886681
0.088658
0.0886486
0.0886403
0.0886332
0.0886278
0.0886244
0.0886236
0.0886259
0.0886322
0.0886436
0.0886613
0.0886873
0.088724
0.0887747
0.0888439
0.088938
0.0890663
0.0892424
0.0894856
0.0887663
0.0887638
0.0887575
0.0887484
0.0887381
0.0887274
0.0887166
0.0887058
0.088695
0.0886847
0.0886751
0.0886664
0.0886588
0.0886526
0.0886482
0.0886461
0.0886467
0.0886506
0.0886588
0.0886723
0.0886923
0.0887206
0.0887593
0.0888115
0.0888809
0.088973
0.0890951
0.0892575
0.0894767
0.0897725
0.0887715
0.0887687
0.0887619
0.0887522
0.0887415
0.0887309
0.0887204
0.08871
0.0886998
0.0886903
0.0886818
0.0886745
0.0886686
0.0886645
0.0886627
0.0886636
0.088668
0.0886766
0.0886904
0.0887106
0.0887388
0.088777
0.0888277
0.0888942
0.0889809
0.0890937
0.0892407
0.0894327
0.0896881
0.0900258
0.0887776
0.0887745
0.0887667
0.0887561
0.088745
0.0887344
0.0887242
0.0887141
0.0887044
0.0886957
0.0886882
0.0886822
0.0886779
0.0886758
0.0886764
0.0886802
0.0886882
0.0887011
0.0887201
0.0887467
0.0887825
0.0888299
0.0888916
0.0889713
0.0890736
0.0892048
0.0893734
0.0895903
0.0898745
0.0902432
0.0887849
0.0887811
0.0887721
0.0887602
0.0887486
0.088738
0.0887279
0.088718
0.0887088
0.0887008
0.0886943
0.0886894
0.0886866
0.0886864
0.0886892
0.0886958
0.0887071
0.088724
0.0887479
0.0887804
0.0888233
0.0888791
0.0889508
0.0890423
0.0891585
0.0893057
0.0894926
0.0897297
0.0900355
0.0904243
0.0887935
0.0887888
0.0887779
0.0887644
0.0887521
0.0887415
0.0887314
0.0887217
0.0887129
0.0887055
0.0886999
0.0886961
0.0886946
0.088696
0.0887009
0.08871
0.0887244
0.088745
0.0887733
0.0888111
0.0888603
0.0889237
0.0890044
0.0891064
0.0892346
0.0893955
0.0895974
0.0898503
0.0901712
0.0905706
0.0888038
0.0887977
0.088784
0.0887683
0.0887554
0.0887448
0.0887348
0.0887251
0.0887167
0.08871
0.0887051
0.0887023
0.0887021
0.088705
0.0887118
0.0887232
0.0887403
0.0887642
0.0887965
0.088839
0.088894
0.0889641
0.0890526
0.0891636
0.0893021
0.0894743
0.0896883
0.0899529
0.0902834
0.0906859
0.0888162
0.0888079
0.08879
0.0887719
0.0887586
0.0887481
0.0887378
0.088728
0.0887198
0.0887135
0.0887093
0.0887074
0.0887082
0.0887125
0.0887209
0.0887343
0.0887538
0.0887806
0.0888164
0.0888631
0.088923
0.0889989
0.0890942
0.0892129
0.0893599
0.0895412
0.0897644
0.0900373
0.0903735
0.0907743
0.0888317
0.0888194
0.0887954
0.0887748
0.0887619
0.0887515
0.088741
0.0887311
0.0887232
0.0887174
0.0887138
0.0887126
0.0887143
0.0887197
0.0887295
0.0887446
0.0887662
0.0887955
0.0888342
0.0888845
0.0889486
0.0890293
0.0891302
0.0892552
0.0894091
0.0895974
0.0898272
0.0901056
0.0904448
0.0908421
0.0888516
0.0888323
0.0887993
0.0887762
0.0887637
0.0887532
0.0887423
0.0887324
0.0887247
0.0887193
0.0887162
0.0887156
0.0887182
0.0887246
0.0887356
0.0887521
0.0887754
0.0888067
0.088848
0.0889011
0.0889687
0.0890535
0.0891589
0.0892888
0.089448
0.0896414
0.0898756
0.0901568
0.0904989
0.0908938
0.0888778
0.088846
0.0888034
0.0887802
0.0887682
0.088757
0.0887453
0.0887353
0.0887278
0.0887226
0.0887197
0.0887195
0.0887226
0.0887297
0.0887416
0.0887591
0.0887837
0.0888167
0.0888597
0.088915
0.0889851
0.089073
0.0891818
0.0893155
0.0894784
0.0896752
0.0899113
0.0901918
0.0905363
0.0909414
0.0889145
0.088846
0.0887967
0.0887794
0.0887691
0.0887571
0.0887451
0.0887353
0.0887281
0.0887232
0.0887206
0.0887209
0.0887245
0.0887321
0.0887446
0.088763
0.0887885
0.0888226
0.0888672
0.0889242
0.0889962
0.0890861
0.0891973
0.0893336
0.089499
0.0896979
0.089934
0.0902101
0.0905421
0.0909666
0.0889903
0.0888554
0.0887948
0.0887809
0.0887717
0.088759
0.0887466
0.0887368
0.0887295
0.0887247
0.0887222
0.0887226
0.0887263
0.0887342
0.088747
0.0887657
0.0887917
0.0888265
0.0888719
0.08893
0.0890029
0.0890939
0.0892064
0.0893442
0.0895111
0.0897111
0.0899467
0.0902188
0.0905121
0.0907903
0.084797
0.084011
0.0836038
0.0835479
0.0834822
0.0833126
0.0830947
0.0828755
0.0826654
0.082462
0.0822646
0.0820733
0.0818872
0.0817043
0.0815221
0.081338
0.0811482
0.0809474
0.0807278
0.0804773
0.0801779
0.0797948
0.079302
0.078494
0.0776588
0.0749089
0.0743045
0.0609122
0.0647029
-0.00982689
0.0852658
0.0845409
0.084058
0.0839307
0.0837984
0.0835872
0.0833625
0.0831634
0.082984
0.0828129
0.0826479
0.0824901
0.0823393
0.0821941
0.0820533
0.0819155
0.0817787
0.0816394
0.0814924
0.0813295
0.081137
0.0808919
0.0805593
0.0800313
0.079359
0.0774779
0.0766134
0.0663853
0.0686025
0.00523132
0.0848511
0.0844318
0.084145
0.0840475
0.0839392
0.0837677
0.0835906
0.0834346
0.0832908
0.0831512
0.0830173
0.0828924
0.082777
0.0826707
0.082573
0.082484
0.0824031
0.0823289
0.0822591
0.0821893
0.0821112
0.0820103
0.0818594
0.0815952
0.0811869
0.0800259
0.0792524
0.071771
0.0729945
0.0205246
0.0848427
0.0846238
0.0844559
0.0843357
0.0842063
0.0840524
0.0839035
0.0837735
0.083656
0.0835462
0.0834456
0.0833569
0.0832807
0.0832172
0.0831673
0.0831322
0.0831132
0.0831112
0.0831269
0.0831599
0.0832081
0.0832655
0.0833161
0.0833263
0.0832453
0.0827404
0.0823033
0.0772487
0.0779876
0.0357212
0.0849593
0.084812
0.0846933
0.0845772
0.0844588
0.0843408
0.0842321
0.0841368
0.084052
0.0839765
0.0839124
0.0838622
0.0838276
0.08381
0.0838115
0.0838348
0.0838829
0.0839593
0.0840677
0.0842125
0.0843976
0.0846258
0.0848945
0.0851932
0.0854841
0.0855988
0.0856916
0.0827812
0.0835727
0.0506912
0.0851454
0.0850461
0.0849723
0.08488
0.0847823
0.0846932
0.084616
0.0845503
0.084496
0.0844543
0.0844273
0.0844175
0.0844272
0.0844589
0.0845158
0.0846021
0.0847228
0.0848838
0.0850925
0.0853578
0.0856901
0.0861017
0.0866035
0.087207
0.0878999
0.0886231
0.0893759
0.0883882
0.0896311
0.0653861
0.0853851
0.0853224
0.0852832
0.0852144
0.0851388
0.0850775
0.0850321
0.0849992
0.0849791
0.0849739
0.0849866
0.0850199
0.0850767
0.0851608
0.0852768
0.0854304
0.0856287
0.0858802
0.0861961
0.0865899
0.0870789
0.087685
0.088433
0.0893559
0.0904716
0.0918011
0.0932983
0.0940425
0.0960439
0.079665
0.0856684
0.0856374
0.0856296
0.0855868
0.0855367
0.0855046
0.0854911
0.0854913
0.0855057
0.0855378
0.0855913
0.0856693
0.0857755
0.0859149
0.0860933
0.0863182
0.0865985
0.0869459
0.0873749
0.0879043
0.0885581
0.0893679
0.0903727
0.0916261
0.0931779
0.095113
0.0974013
0.0997097
0.102718
0.093343
0.0859921
0.08599
0.0860113
0.0859948
0.0859712
0.0859681
0.0859862
0.08602
0.0860702
0.0861411
0.086237
0.0863616
0.0865195
0.0867167
0.0869603
0.0872596
0.0876258
0.0880732
0.0886203
0.0892907
0.0901155
0.0911357
0.0924043
0.093995
0.0959888
0.0985241
0.10162
0.10534
0.109532
0.106241
0.0863512
0.0863763
0.0864249
0.0864351
0.0864387
0.086465
0.086515
0.086583
0.0866696
0.0867802
0.0869194
0.0870918
0.0873028
0.0875594
0.0878704
0.0882464
0.088701
0.0892515
0.0899198
0.0907348
0.0917343
0.0929684
0.0945037
0.0964327
0.0988667
0.101989
0.105882
0.110871
0.11635
0.118188
0.086742
0.0867923
0.0868662
0.0869028
0.086934
0.0869898
0.0870715
0.0871736
0.0872971
0.0874476
0.0876307
0.0878516
0.0881165
0.0884335
0.0888127
0.0892667
0.0898109
0.0904656
0.0912565
0.0922171
0.0933916
0.0948394
0.0966394
0.0989016
0.101765
0.105451
0.110109
0.116226
0.123021
0.129037
0.087158
0.0872317
0.0873288
0.0873913
0.0874503
0.0875352
0.0876483
0.0877842
0.0879442
0.0881345
0.0883613
0.0886304
0.088949
0.0893262
0.0897734
0.0903048
0.0909383
0.0916964
0.0926085
0.0937127
0.0950594
0.096716
0.0987731
0.101356
0.10463
0.108844
0.114215
0.121318
0.129386
0.138659
0.0875923
0.0876873
0.0878053
0.0878927
0.087979
0.0880924
0.0882357
0.0884044
0.0886001
0.0888292
0.0890985
0.0894147
0.0897856
0.0902215
0.090735
0.0913418
0.0920618
0.0929202
0.0939495
0.0951921
0.0967039
0.0985598
0.100861
0.103745
0.107399
0.112097
0.118111
0.126052
0.13528
0.146912
0.088036
0.0881499
0.0882863
0.0883973
0.0885099
0.0886505
0.0888226
0.0890224
0.089252
0.0895181
0.0898278
0.0901887
0.0906093
0.0911009
0.0916772
0.0923554
0.0931572
0.0941101
0.0952495
0.0966217
0.0982874
0.100328
0.102853
0.106012
0.110009
0.115134
0.121706
0.13033
0.140533
0.153597
0.0884794
0.0886099
0.0887616
0.0888943
0.0890316
0.0891977
0.0893963
0.0896247
0.0898856
0.0901857
0.0905327
0.0909347
0.0914011
0.0919437
0.0925776
0.0933211
0.0941976
0.0952366
0.096476
0.0979652
0.0997693
0.101975
0.104698
0.108098
0.112391
0.117878
0.124911
0.134063
0.145014
0.15862
0.0889119
0.0890562
0.0892205
0.0893723
0.0895322
0.0897212
0.0899432
0.0901971
0.0904856
0.0908159
0.0911959
0.0916342
0.0921408
0.0927283
0.0934127
0.0942135
0.0951552
0.0962691
0.0975953
0.0991857
0.101109
0.103455
0.106345
0.109946
0.114481
0.120258
0.127646
0.137173
0.148632
0.162213
0.089323
0.0894784
0.0896521
0.08982
0.0899996
0.0902082
0.0904501
0.0907252
0.0910371
0.0913927
0.0918002
0.0922686
0.0928086
0.0934334
0.0941596
0.0950075
0.0960029
0.0971782
0.0985752
0.100248
0.102266
0.104724
0.107747
0.111503
0.11622
0.122207
0.129841
0.139591
0.151333
0.164523
0.0897027
0.0898663
0.0900464
0.0902271
0.0904226
0.090647
0.0909044
0.0911961
0.091526
0.0919011
0.0923297
0.0928212
0.0933865
0.0940395
0.0947972
0.0956806
0.0967162
0.0979373
0.0993867
0.101119
0.103207
0.105746
0.10886
0.112722
0.117558
0.123671
0.131438
0.141258
0.153059
0.165357
0.0900426
0.0902116
0.0903949
0.0905846
0.090792
0.0910278
0.091296
0.0915988
0.0919407
0.0923288
0.0927713
0.0932778
0.0938596
0.0945307
0.0953084
0.0962143
0.0972751
0.0985248
0.100007
0.101776
0.103905
0.106489
0.109655
0.113569
0.118458
0.124612
0.132396
0.142124
0.153715
0.16476
0.0903366
0.0905082
0.090692
0.0908867
0.0911014
0.0913438
0.0916175
0.0919257
0.0922734
0.0926674
0.093116
0.0936288
0.0942173
0.0948956
0.0956812
0.0965957
0.0976661
0.0989262
0.100419
0.1022
0.104342
0.106937
0.11011
0.114024
0.118898
0.125005
0.132688
0.142154
0.153245
0.162872
0.090581
0.0907525
0.0909341
0.0911296
0.0913468
0.0915908
0.0918647
0.0921724
0.0925191
0.0929118
0.0933585
0.0938688
0.0944541
0.0951285
0.0959096
0.0968186
0.0978824
0.0991345
0.100617
0.102386
0.104509
0.10708
0.110219
0.114081
0.118874
0.124848
0.132312
0.141346
0.151766
0.15961
0.0907763
0.0909453
0.0911221
0.0913146
0.0915295
0.0917701
0.0920388
0.0923399
0.0926791
0.0930632
0.0934998
0.0939985
0.0945707
0.0952302
0.0959942
0.0968838
0.0979252
0.0991512
0.100603
0.102334
0.104413
0.106926
0.109989
0.113749
0.1184
0.124161
0.131303
0.139748
0.149439
0.154836
0.0909246
0.0910886
0.0912582
0.0914439
0.091652
0.0918843
0.0921429
0.0924321
0.0927577
0.0931263
0.0935454
0.0940242
0.0945738
0.0952079
0.0959431
0.0968
0.0978039
0.0989867
0.100388
0.10206
0.104066
0.106491
0.109441
0.113055
0.117507
0.122979
0.129711
0.13742
0.146336
0.148723
0.0910332
0.0911901
0.0913498
0.0915249
0.0917217
0.0919409
0.0921841
0.0924556
0.0927613
0.0931077
0.093502
0.0939529
0.0944712
0.0950701
0.0957657
0.0965777
0.0975306
0.0986548
0.0999883
0.10158
0.10349
0.105797
0.108602
0.112026
0.116228
0.121345
0.127594
0.134437
0.142555
0.141628
0.0911098
0.0912574
0.0914041
0.0915652
0.0917481
0.091952
0.0921768
0.0924264
0.0927072
0.0930256
0.0933885
0.0938042
0.094283
0.0948375
0.0954833
0.0962391
0.0971282
0.0981794
0.0994287
0.100921
0.102715
0.10488
0.107509
0.110709
0.114619
0.119325
0.125038
0.1309
0.138218
0.133574
0.0911706
0.0913066
0.0914327
0.0915718
0.0917351
0.0919194
0.092122
0.0923461
0.0925983
0.0928844
0.0932111
0.0935859
0.094019
0.0945224
0.0951106
0.0958016
0.0966171
0.097584
0.0987356
0.100114
0.101773
0.103776
0.106206
0.109153
0.112737
0.116988
0.122131
0.126895
0.133466
0.124425
0.0912302
0.0913522
0.0914532
0.091573
0.0917205
0.0918837
0.0920584
0.092251
0.0924691
0.092718
0.0930029
0.0933308
0.0937113
0.0941559
0.0946784
0.0952958
0.0960285
0.0969014
0.0979453
0.0991986
0.100709
0.102535
0.104747
0.10742
0.110655
0.114414
0.118969
0.122501
0.128417
0.114303
0.0913402
0.0913852
0.091406
0.0915018
0.0916508
0.0918059
0.0919584
0.0921196
0.0923023
0.0925127
0.0927545
0.0930338
0.0933592
0.0937415
0.0941941
0.094733
0.0953769
0.0961471
0.0970713
0.098187
0.0995379
0.101174
0.103155
0.105537
0.108408
0.111644
0.115619
0.11777
0.123175
0.10348
0.0917331
0.0916186
0.0914706
0.0914984
0.0916261
0.0917681
0.0919002
0.0920283
0.0921697
0.092334
0.0925259
0.0927506
0.0930152
0.0933296
0.0937061
0.0941613
0.0947152
0.0953862
0.0961933
0.0971703
0.0983579
0.099799
0.101544
0.103627
0.106127
0.108813
0.112231
0.112833
0.117877
0.0922179
0.0916977
0.0913892
0.0912757
0.0913894
0.091548
0.0916765
0.091774
0.0918775
0.0919905
0.0921159
0.0922599
0.092431
0.092636
0.0928826
0.0931808
0.0935415
0.093981
0.0945252
0.0951985
0.0960246
0.0970364
0.0982702
0.0997686
0.101541
0.103674
0.105773
0.108729
0.10757
0.112507
0.0806924
0.0702508
0.0595422
0.0477933
0.0355179
0.0232694
0.0113714
0.000124451
-0.0101239
-0.0189811
-0.0259926
-0.0307008
-0.0329405
-0.0331768
-0.0328316
-0.0336694
-0.0361724
-0.0398856
-0.0432403
-0.044822
-0.045256
-0.04565
-0.0462537
-0.0469671
-0.0479148
-0.0491915
-0.0504712
-0.0512201
-0.0513859
-0.0508959
-0.049008
0.106975
0.0994335
0.0909208
0.0822065
0.0732676
0.0638135
0.0539508
0.043985
0.0341266
0.0245295
0.0154924
0.00759536
0.000782826
-0.00527218
-0.0116452
-0.0195397
-0.0283905
-0.0366707
-0.0419988
-0.0436598
-0.0439779
-0.0451486
-0.0477139
-0.0514776
-0.0560316
-0.0606965
-0.0650653
-0.0683518
-0.0693914
-0.0677476
0.103116
0.097989
0.092109
0.0857019
0.0782795
0.0698415
0.0607025
0.0510483
0.0412178
0.0318206
0.0231855
0.0153397
0.00821103
0.00155831
-0.00546664
-0.0137024
-0.0219839
-0.0283747
-0.0330276
-0.0365709
-0.0398803
-0.0449856
-0.0517396
-0.0589257
-0.0664348
-0.073148
-0.0769141
-0.0762684
-0.0724149
-0.0646775
0.105936
0.102736
0.0987601
0.0937749
0.0878054
0.0809342
0.0731817
0.0646456
0.0555634
0.0462382
0.0369343
0.0279407
0.0194971
0.0115767
0.00396653
-0.00346191
-0.0100459
-0.0154216
-0.0207012
-0.0264486
-0.0318035
-0.0379298
-0.0451566
-0.0514717
-0.0552594
-0.0544858
-0.0476885
-0.0356847
-0.0220243
-0.00667944
0.103548
0.101393
0.0986485
0.0950815
0.0906581
0.0852903
0.0789778
0.0717375
0.063651
0.0549321
0.0459056
0.0369234
0.0282893
0.020159
0.012568
0.00552093
-0.000808761
-0.00636325
-0.0114568
-0.015879
-0.0193989
-0.022592
-0.0249638
-0.0242064
-0.0184541
-0.00737287
0.00751726
0.0257559
0.0447929
0.0614062
0.102003
0.100622
0.0987715
0.0961024
0.0925332
0.0880722
0.0826806
0.0763109
0.0689923
0.0608843
0.0522701
0.0434968
0.0349072
0.0267644
0.0192183
0.0123437
0.00627673
0.00119559
-0.00281355
-0.00556455
-0.00691583
-0.00656177
-0.00342852
0.00380742
0.0154688
0.030527
0.0481161
0.0670298
0.0852957
0.0980606
0.100198
0.0992717
0.0979845
0.0959713
0.0931642
0.0895491
0.0850405
0.0795428
0.0730359
0.0656198
0.0575196
0.04906
0.0406143
0.0325285
0.025066
0.0184209
0.0128094
0.00848166
0.00563028
0.00449361
0.00545639
0.00910343
0.0161258
0.0268376
0.0407344
0.05677
0.0737457
0.0904843
0.104779
0.111758
0.0986816
0.0980707
0.0971826
0.0956526
0.0934031
0.0904097
0.0865808
0.0817971
0.0759982
0.0692329
0.0616746
0.0536164
0.0454382
0.0375401
0.0302772
0.0239481
0.0188446
0.0152718
0.0135187
0.0139363
0.016971
0.0230578
0.0324064
0.0447213
0.0591487
0.0743902
0.0890832
0.102171
0.11179
0.113679
0.0973696
0.0969578
0.0963288
0.0951372
0.0933071
0.0908108
0.0875413
0.0833599
0.0781766
0.0720013
0.0649667
0.0573355
0.0494844
0.0418485
0.0348528
0.02888
0.0242942
0.0214643
0.0207583
0.0225654
0.027247
0.0349896
0.0456119
0.0584208
0.0722371
0.0855428
0.0972079
0.106222
0.111325
0.108931
0.0962801
0.0960004
0.0955486
0.0946042
0.0930943
0.0909828
0.0881599
0.0844778
0.0798253
0.0741803
0.0676385
0.0604323
0.0529289
0.045587
0.0388875
0.033286
0.029215
0.0270994
0.0273417
0.0302996
0.0361881
0.0449491
0.0560657
0.0685207
0.080938
0.0919127
0.100352
0.105304
0.106158
0.101029
0.0953819
0.0951875
0.0948532
0.0940863
0.0928176
0.0910075
0.0885457
0.0852802
0.0810847
0.0759118
0.0698257
0.0630301
0.0558793
0.0488463
0.0424566
0.0372279
0.0336514
0.0321891
0.033243
0.0371117
0.0438117
0.053053
0.0640671
0.075607
0.0862322
0.0946447
0.0997925
0.101024
0.0976806
0.0907227
0.0946498
0.0945111
0.0942548
0.0936172
0.0925324
0.0909581
0.0887883
0.0858678
0.0820618
0.0773037
0.0716314
0.0652227
0.0584167
0.0516945
0.0456158
0.0407491
0.037632
0.0367451
0.0384735
0.0429922
0.0501903
0.0595272
0.0700019
0.0802663
0.0888964
0.0947248
0.0969098
0.0952834
0.0894164
0.080737
0.094059
0.0939566
0.0937513
0.0932079
0.0922635
0.0908753
0.08894
0.0863056
0.0828317
0.0784368
0.0731371
0.0670872
0.0606107
0.0541916
0.0484156
0.0438913
0.0411916
0.0408
0.0430763
0.0480237
0.0554504
0.0645902
0.0742441
0.0830389
0.0896461
0.09309
0.0928378
0.0890493
0.0817362
0.0727163
0.0935857
0.0935059
0.0933355
0.0928622
0.0920254
0.0907843
0.0890388
0.0866417
0.08345
0.0793715
0.0744048
0.0686838
0.0625167
0.0563871
0.0508994
0.0466935
0.0443663
0.0443945
0.0471047
0.0523113
0.0597519
0.0684619
0.0771265
0.0843985
0.0890959
0.0904741
0.0883319
0.0830897
0.0752068
0.0666793
0.0932017
0.0931393
0.0929973
0.0925781
0.0918248
0.0907007
0.0891096
0.0869094
0.0839571
0.0801532
0.0754821
0.0700595
0.0641791
0.0583212
0.0531038
0.0491902
0.047191
0.0475658
0.0505537
0.0559667
0.0632469
0.0713645
0.0789649
0.0847565
0.0877375
0.087424
0.0839384
0.0779417
0.0703242
0.062819
0.0928869
0.092843
0.0927262
0.0923504
0.0916638
0.0906339
0.0891695
0.0871329
0.0843834
0.0808169
0.0764065
0.0712524
0.0656342
0.0600278
0.0550603
0.0514117
0.0496991
0.0503631
0.0535224
0.0590303
0.0660628
0.0734916
0.0800187
0.0844352
0.0859424
0.0843341
0.0800319
0.0739182
0.0671996
0.0611916
0.0926306
0.0926052
0.0925109
0.0921725
0.0915415
0.0905891
0.0892291
0.0873296
0.084752
0.0813901
0.0772081
0.0722932
0.0669122
0.0615355
0.0567958
0.0533852
0.0519217
0.0528168
0.0561332
0.0615931
0.0682676
0.0749938
0.0804961
0.0836834
0.0839861
0.0814717
0.0768307
0.0711215
0.0656191
0.0614073
0.0924227
0.0924145
0.0923414
0.0920373
0.0914552
0.0905687
0.0892959
0.0875121
0.0850804
0.0818942
0.0779111
0.0732072
0.0680382
0.0628682
0.0583336
0.0551347
0.0538859
0.0549669
0.0583747
0.0637305
0.0699954
0.0760274
0.0805757
0.0826988
0.0820648
0.0789953
0.074401
0.0694099
0.0652821
0.0627522
0.0922536
0.0922614
0.092209
0.0919375
0.0914008
0.0905728
0.0893754
0.0876889
0.0853816
0.0823463
0.0785353
0.0740157
0.0690332
0.0640463
0.0596936
0.0566811
0.0556162
0.0568416
0.0603013
0.0654849
0.0713565
0.0767166
0.0803944
0.0816253
0.0803053
0.0769751
0.0727057
0.0685813
0.06576
0.0646041
0.092116
0.0921382
0.092106
0.0918668
0.0913741
0.0906
0.089469
0.0878667
0.0856661
0.0827602
0.0790969
0.0747361
0.0699151
0.0650873
0.0608931
0.0580428
0.0571349
0.0584725
0.0619514
0.0669453
0.072421
0.0771476
0.0800562
0.0805664
0.078784
0.0754357
0.0716281
0.0683858
0.0667763
0.0666487
0.0920035
0.0920379
0.0920248
0.0918186
0.0913708
0.0906486
0.0895779
0.0880501
0.085942
0.0831472
0.0796099
0.0753837
0.0706994
0.0660061
0.0619467
0.0592358
0.0584617
0.0598898
0.0633541
0.0681662
0.0732532
0.0773984
0.0796426
0.0795889
0.0775279
0.0743189
0.0710422
0.068655
0.0680888
0.0686828
0.0919114
0.0919559
0.0919593
0.0917862
0.0913856
0.0907159
0.0897021
0.0882422
0.0862152
0.0835161
0.0800855
0.0759714
0.0713994
0.0668157
0.062867
0.0602737
0.0596141
0.061114
0.0645527
0.0691901
0.0739113
0.077534
0.0792168
0.0787413
0.0765517
0.0735501
0.0708055
0.0692139
0.0694817
0.0706487
0.0918378
0.0918904
0.0919038
0.0917646
0.0914131
0.0907969
0.0898404
0.0884449
0.0864911
0.0838747
0.0805334
0.0765103
0.0720269
0.0675277
0.0636655
0.061169
0.0606071
0.0621651
0.0655769
0.0700518
0.0744394
0.0775983
0.0788104
0.0780284
0.0758046
0.073046
0.0708177
0.0699442
0.0708482
0.0724186
0.0917835
0.09184
0.091857
0.0917499
0.0914489
0.0908884
0.0899901
0.0886547
0.0867726
0.0842296
0.0809628
0.07701
0.0725907
0.0681502
0.0643502
0.0619316
0.0614569
0.0630683
0.0664616
0.0707941
0.0748854
0.0776427
0.0784731
0.0774803
0.0752668
0.0727387
0.0709891
0.0707507
0.0721865
0.0739519
0.0917422
0.0918011
0.0918181
0.0917398
0.0914895
0.0909877
0.0901509
0.0888777
0.0870594
0.0845838
0.0813824
0.0774841
0.0731059
0.0686964
0.0649315
0.0625679
0.0621654
0.0638244
0.0672144
0.0714314
0.0752594
0.0776613
0.0781757
0.0770425
0.0748567
0.0725288
0.0712309
0.0716008
0.0734575
0.0753048
0.0917077
0.0917755
0.0917883
0.0917341
0.0915315
0.0910895
0.0903203
0.0891155
0.0873568
0.0849348
0.0817835
0.0779232
0.0735665
0.0691647
0.0654151
0.063099
0.0627727
0.0644846
0.0678903
0.0720265
0.075635
0.077739
0.0779978
0.0767502
0.0745429
0.0723436
0.0714294
0.0723472
0.0745528
0.076471
0.0916806
0.0917524
0.0917615
0.0917333
0.0915736
0.0911858
0.0904849
0.089364
0.0876931
0.0853307
0.0822186
0.0783722
0.0740067
0.0695724
0.0657906
0.0634875
0.0632093
0.0650042
0.0684451
0.0725232
0.0759459
0.077793
0.0778549
0.0765337
0.0742556
0.0721798
0.0716763
0.0730181
0.0753348
0.0772336
0.0916632
0.0917173
0.0917306
0.0917392
0.0916271
0.0912857
0.0906274
0.0895502
0.0879358
0.0856737
0.0826145
0.0787857
0.0744077
0.0699529
0.0661322
0.0638433
0.063625
0.0655156
0.0690098
0.073051
0.0763418
0.0779402
0.0778064
0.0763774
0.0739122
0.0719126
0.072052
0.0740811
0.0764423
0.0780275
0.091692
0.0916799
0.0916865
0.0917314
0.0916936
0.0914446
0.0908732
0.08988
0.0883263
0.0860743
0.083026
0.0791663
0.0747054
0.070152
0.0662338
0.0639491
0.0638307
0.0658251
0.0694094
0.0734762
0.07669
0.0781174
0.0778302
0.0761586
0.0735
0.0713451
0.0716023
0.0741746
0.0768948
0.0785062
0.0917904
0.0916877
0.0916616
0.0916754
0.091645
0.0914682
0.0909999
0.090116
0.0887197
0.0866204
0.0836471
0.0798099
0.0753113
0.0705882
0.0665116
0.0641289
0.0640533
0.0662533
0.0700478
0.0741866
0.0771635
0.0783128
0.0777486
0.0757722
0.0729916
0.0713997
0.0727477
0.0755123
0.0778457
0.0787897
-0.0081466
0.0054835
-0.00531377
0.0177959
0.0243916
0.0406461
0.047299
0.055729
0.0598896
0.0642575
0.0669447
0.0691195
0.0705859
0.071616
0.0722733
0.0726652
0.0728609
0.0729192
0.0728864
0.072795
0.072676
0.0725335
0.072412
0.0722685
0.0722193
0.0721302
0.0722831
0.0723559
0.0731075
0.0714839
-0.00865903
0.00854272
-0.00654556
0.0135491
0.0212367
0.0377821
0.0456278
0.0538178
0.0588755
0.0633743
0.0664623
0.0688338
0.0705299
0.0717271
0.0725252
0.0730223
0.0732934
0.073399
0.0733891
0.0732995
0.0731668
0.0729981
0.0728339
0.0726399
0.0724901
0.0722768
0.0721701
0.0718434
0.0719325
0.0710047
-0.00893517
0.0165018
-0.00540331
0.00806415
0.0168856
0.0335869
0.0430536
0.0512718
0.0572397
0.0620565
0.0656375
0.068339
0.0703446
0.0717871
0.0727801
0.0734224
0.0737952
0.0739642
0.0739852
0.073901
0.0737516
0.0735566
0.0733467
0.0731143
0.0728917
0.072631
0.0724104
0.0720753
0.0719431
0.0715921
-0.00930344
0.0241833
-0.00340264
0.00120852
0.0126521
0.0297792
0.040897
0.0494906
0.0560968
0.0613008
0.0652687
0.0682612
0.0705024
0.0721278
0.0732548
0.0739884
0.0744165
0.0746111
0.0746335
0.0745331
0.0743529
0.074122
0.0738697
0.0736066
0.073355
0.073103
0.0728879
0.0726508
0.0724868
0.0722441
-0.01095
0.0273055
-0.00187209
-0.00765179
0.00823725
0.0257357
0.0385619
0.047882
0.055017
0.0606357
0.0649579
0.0682379
0.0707089
0.0725177
0.0737842
0.0746169
0.0751083
0.0753353
0.0753639
0.075249
0.0750376
0.0747659
0.0744654
0.0741562
0.0738587
0.0735754
0.0733231
0.0730791
0.0728757
0.0726278
-0.0130861
0.0255286
-0.00121083
-0.0171142
0.00261313
0.020482
0.0353493
0.0458107
0.0535558
0.0596511
0.0643845
0.0680128
0.070775
0.0728254
0.0742844
0.0752621
0.0758539
0.0761413
0.0761951
0.076076
0.0758364
0.0755192
0.0751607
0.0747879
0.074423
0.0740768
0.0737618
0.0734704
0.0732265
0.0729686
-0.0153391
0.0213936
-0.00204778
-0.0260845
-0.00499079
0.0137402
0.0311217
0.0431273
0.0516627
0.0583197
0.0635296
0.0675674
0.0706813
0.0730299
0.0747323
0.0758987
0.0766272
0.0770032
0.0771028
0.0769928
0.0767314
0.0763686
0.0759468
0.0755013
0.0750605
0.0746436
0.0742665
0.0739278
0.0736518
0.0733687
-0.0186134
0.0166458
-0.00522937
-0.0342645
-0.0151343
0.00553521
0.0258287
0.0397959
0.0493472
0.0566585
0.0623889
0.0668722
0.0703789
0.0730714
0.0750648
0.076466
0.0773728
0.0778732
0.0780475
0.0779688
0.0777011
0.0773007
0.0768165
0.0762909
0.0757609
0.0752551
0.0747981
0.0743943
0.0740751
0.0737572
-0.0236859
0.00911038
-0.0124147
-0.041877
-0.0274385
-0.00398814
0.0191674
0.0355904
0.0464839
0.0545726
0.060863
0.0658122
0.0697406
0.0728198
0.0751571
0.0768499
0.07799
0.0786642
0.0789555
0.0789415
0.0786924
0.0782707
0.0777327
0.0771285
0.0765028
0.0758928
0.075333
0.0748368
0.0744491
0.0740747
-0.0307669
-0.00135711
-0.0236114