/*--------------------------------*- C++ -*----------------------------------*\
  =========                 |
  \\      /  F ield         | OpenFOAM: The Open Source CFD Toolbox
   \\    /   O peration     | Website:  https://openfoam.org
    \\  /    A nd           | Version:  11
     \\/     M anipulation  |
\*---------------------------------------------------------------------------*/
FoamFile
{
    format      ascii;
    class       volVectorField;
    location    "4.3";
    object      U;
}
// * * * * * * * * * * * * * * * * * * * * * * * * * * * * * * * * * * * * * //

dimensions      [0 1 -1 0 0 0 0];

internalField   nonuniform List<vector> 
12600
(
(0.412284 5.02731e-05 0)
(0.412207 0.000101074 0)
(0.412108 8.97101e-05 0)
(0.412021 7.547e-05 0)
(0.41199 5.57169e-05 0)
(0.412031 2.82704e-05 0)
(0.412151 -3.1723e-06 0)
(0.412353 -3.25732e-05 0)
(0.412644 -6.19065e-05 0)
(0.41303 -9.51146e-05 0)
(0.413521 -0.000132622 0)
(0.414127 -0.00017537 0)
(0.414862 -0.000224865 0)
(0.415742 -0.000282841 0)
(0.416786 -0.000350918 0)
(0.418019 -0.000430543 0)
(0.41947 -0.000523234 0)
(0.421175 -0.000630935 0)
(0.423175 -0.000756203 0)
(0.425521 -0.000902161 0)
(0.428269 -0.0010723 0)
(0.431488 -0.00127017 0)
(0.435253 -0.00149919 0)
(0.439647 -0.00176252 0)
(0.444767 -0.00206513 0)
(0.450713 -0.00240475 0)
(0.457594 -0.00279837 0)
(0.465484 -0.00315873 0)
(0.4745 -0.00383554 0)
(0.486069 -0.0031615 0)
(0.41248 9.73048e-05 0)
(0.412588 9.36787e-05 0)
(0.412731 5.45648e-05 0)
(0.4129 -3.35965e-06 0)
(0.413118 -7.41996e-05 0)
(0.413403 -0.000153906 0)
(0.413766 -0.000242092 0)
(0.41421 -0.000339105 0)
(0.414745 -0.000445021 0)
(0.415379 -0.000560036 0)
(0.416122 -0.000685369 0)
(0.416981 -0.000822949 0)
(0.417967 -0.000975205 0)
(0.419088 -0.00114542 0)
(0.420357 -0.00133811 0)
(0.421791 -0.00155903 0)
(0.423417 -0.00181493 0)
(0.425264 -0.00211324 0)
(0.427372 -0.00246202 0)
(0.429787 -0.00287004 0)
(0.432561 -0.00334688 0)
(0.435755 -0.00390261 0)
(0.439443 -0.00454752 0)
(0.443704 -0.00529219 0)
(0.448631 -0.0061468 0)
(0.454323 -0.00711371 0)
(0.460889 -0.00821146 0)
(0.468443 -0.00933335 0)
(0.477081 -0.0109063 0)
(0.487088 -0.0107349 0)
(0.412478 1.10177e-05 0)
(0.412546 -1.71486e-05 0)
(0.412667 -9.47514e-05 0)
(0.412832 -0.00019654 0)
(0.413048 -0.000312093 0)
(0.413328 -0.000442199 0)
(0.413681 -0.000587979 0)
(0.414115 -0.000748391 0)
(0.414636 -0.000923102 0)
(0.415252 -0.00111343 0)
(0.415969 -0.00132104 0)
(0.416796 -0.00154745 0)
(0.417743 -0.00179495 0)
(0.418822 -0.00206814 0)
(0.420048 -0.00237464 0)
(0.421441 -0.00272462 0)
(0.423025 -0.0031297 0)
(0.424828 -0.00360229 0)
(0.426886 -0.00415554 0)
(0.429242 -0.00480374 0)
(0.431947 -0.00556248 0)
(0.43506 -0.00644864 0)
(0.438654 -0.00748018 0)
(0.44281 -0.00867564 0)
(0.44762 -0.0100533 0)
(0.453198 -0.0116229 0)
(0.459634 -0.0134107 0)
(0.467148 -0.0153129 0)
(0.475565 -0.0177469 0)
(0.486193 -0.0186654 0)
(0.412472 -1.42826e-05 0)
(0.412523 -7.47044e-05 0)
(0.412629 -0.000175701 0)
(0.412785 -0.000309205 0)
(0.412993 -0.000466938 0)
(0.413261 -0.00064665 0)
(0.413601 -0.000847778 0)
(0.41402 -0.00106904 0)
(0.414523 -0.0013096 0)
(0.415118 -0.00157 0)
(0.415811 -0.00185217 0)
(0.416608 -0.00215958 0)
(0.417519 -0.00249759 0)
(0.418557 -0.0028738 0)
(0.419735 -0.00329813 0)
(0.421074 -0.00378273 0)
(0.422597 -0.00434179 0)
(0.42433 -0.00499143 0)
(0.426309 -0.00574977 0)
(0.428573 -0.00663709 0)
(0.431173 -0.00767601 0)
(0.434168 -0.00889145 0)
(0.437628 -0.0103103 0)
(0.441635 -0.0119601 0)
(0.446283 -0.013869 0)
(0.451691 -0.0160555 0)
(0.457952 -0.0185576 0)
(0.465318 -0.0212718 0)
(0.473578 -0.0246313 0)
(0.484252 -0.0266285 0)
(0.412469 -3.73687e-05 0)
(0.412509 -0.000132517 0)
(0.412601 -0.000270386 0)
(0.412745 -0.000445205 0)
(0.412942 -0.000650148 0)
(0.413197 -0.000881837 0)
(0.413521 -0.00113911 0)
(0.413919 -0.0014211 0)
(0.414398 -0.00172738 0)
(0.414964 -0.00205872 0)
(0.415622 -0.00241736 0)
(0.41638 -0.00280728 0)
(0.417247 -0.00323479 0)
(0.418233 -0.00370906 0)
(0.419353 -0.00424246 0)
(0.420624 -0.0048504 0)
(0.422068 -0.00555099 0)
(0.42371 -0.00636485 0)
(0.425584 -0.00731516 0)
(0.427728 -0.00842798 0)
(0.430191 -0.0097325 0)
(0.433029 -0.0112611 0)
(0.436312 -0.0130494 0)
(0.440122 -0.0151346 0)
(0.444551 -0.0175558 0)
(0.449725 -0.0203441 0)
(0.455738 -0.0235488 0)
(0.462876 -0.0270876 0)
(0.470891 -0.0313709 0)
(0.48152 -0.0345503 0)
(0.412468 -5.40013e-05 0)
(0.412501 -0.000183069 0)
(0.412583 -0.000354351 0)
(0.412715 -0.000565039 0)
(0.412899 -0.000810773 0)
(0.413139 -0.00108827 0)
(0.413442 -0.00139596 0)
(0.413816 -0.00173288 0)
(0.414266 -0.00209846 0)
(0.414797 -0.00249325 0)
(0.415415 -0.00291975 0)
(0.416125 -0.00338303 0)
(0.416937 -0.00389116 0)
(0.41786 -0.00445557 0)
(0.418907 -0.00509103 0)
(0.420094 -0.00581559 0)
(0.42144 -0.00665041 0)
(0.422972 -0.00761983 0)
(0.424717 -0.00875162 0)
(0.426715 -0.0100774 0)
(0.429009 -0.011633 0)
(0.431653 -0.0134589 0)
(0.434715 -0.0155999 0)
(0.438273 -0.0181046 0)
(0.442422 -0.0210246 0)
(0.447289 -0.0244065 0)
(0.452971 -0.0283143 0)
(0.459786 -0.0326946 0)
(0.467452 -0.037933 0)
(0.477941 -0.0423717 0)
(0.412467 -6.81751e-05 0)
(0.412496 -0.000226984 0)
(0.412568 -0.000430332 0)
(0.412689 -0.00067637 0)
(0.412857 -0.000962056 0)
(0.413079 -0.00128428 0)
(0.413359 -0.00164099 0)
(0.413705 -0.0020309 0)
(0.41412 -0.00245344 0)
(0.41461 -0.00290937 0)
(0.41518 -0.00340158 0)
(0.415835 -0.00393583 0)
(0.416582 -0.00452124 0)
(0.417432 -0.0051707 0)
(0.418394 -0.00590102 0)
(0.419483 -0.00673284 0)
(0.420717 -0.00769053 0)
(0.422118 -0.00880227 0)
(0.423715 -0.0101004 0)
(0.425539 -0.0116218 0)
(0.427634 -0.0134088 0)
(0.430048 -0.0155096 0)
(0.432845 -0.0179785 0)
(0.436102 -0.0208756 0)
(0.439908 -0.0242668 0)
(0.444394 -0.0282167 0)
(0.449654 -0.0328081 0)
(0.45604 -0.0380253 0)
(0.463233 -0.0442319 0)
(0.473443 -0.0500082 0)
(0.412466 -8.03689e-05 0)
(0.412491 -0.000265708 0)
(0.412556 -0.000498941 0)
(0.412663 -0.000777984 0)
(0.412816 -0.00110038 0)
(0.413017 -0.00146324 0)
(0.413271 -0.00186427 0)
(0.413585 -0.00230195 0)
(0.413961 -0.00277564 0)
(0.414406 -0.00328613 0)
(0.414922 -0.00383656 0)
(0.415514 -0.00443333 0)
(0.41619 -0.00508667 0)
(0.416956 -0.00581111 0)
(0.417822 -0.00662543 0)
(0.418801 -0.00755268 0)
(0.419908 -0.00862003 0)
(0.421162 -0.009859 0)
(0.422589 -0.0113059 0)
(0.424217 -0.0130025 0)
(0.426084 -0.0149973 0)
(0.428235 -0.017346 0)
(0.430726 -0.0201125 0)
(0.433629 -0.0233691 0)
(0.437028 -0.027197 0)
(0.441053 -0.0316817 0)
(0.445794 -0.0369282 0)
(0.451626 -0.0429677 0)
(0.4582 -0.0501466 0)
(0.467938 -0.0573368 0)
(0.412465 -9.09679e-05 0)
(0.412487 -0.000299695 0)
(0.412544 -0.00055982 0)
(0.412638 -0.000868788 0)
(0.412774 -0.00122436 0)
(0.412952 -0.00162386 0)
(0.413178 -0.00206483 0)
(0.413457 -0.00254552 0)
(0.413791 -0.00306517 0)
(0.414185 -0.00362464 0)
(0.414641 -0.00422738 0)
(0.415165 -0.0048803 0)
(0.415761 -0.00559455 0)
(0.416435 -0.00638583 0)
(0.417196 -0.00727454 0)
(0.418053 -0.00828571 0)
(0.41902 -0.00944898 0)
(0.420113 -0.0107988 0)
(0.421353 -0.0123751 0)
(0.422764 -0.0142241 0)
(0.424378 -0.0163998 0)
(0.426233 -0.0189647 0)
(0.42838 -0.0219921 0)
(0.43088 -0.0255662 0)
(0.433811 -0.0297841 0)
(0.437295 -0.0347534 0)
(0.441414 -0.0406054 0)
(0.446554 -0.0474256 0)
(0.452342 -0.0555494 0)
(0.461353 -0.0641979 0)
(0.412464 -0.000100106 0)
(0.412483 -0.000329101 0)
(0.412532 -0.000612828 0)
(0.412613 -0.000948258 0)
(0.41273 -0.00133314 0)
(0.412885 -0.00176485 0)
(0.41308 -0.00224079 0)
(0.413321 -0.00275901 0)
(0.41361 -0.00331861 0)
(0.413949 -0.00392045 0)
(0.414341 -0.00456813 0)
(0.414791 -0.00526897 0)
(0.415301 -0.0060348 0)
(0.415876 -0.00688233 0)
(0.416523 -0.00783335 0)
(0.41725 -0.00891457 0)
(0.418066 -0.0101577 0)
(0.418985 -0.0115996 0)
(0.420023 -0.0132832 0)
(0.421199 -0.0152583 0)
(0.422538 -0.0175835 0)
(0.424072 -0.0203278 0)
(0.425839 -0.0235724 0)
(0.427893 -0.027413 0)
(0.430298 -0.0319623 0)
(0.433163 -0.0373502 0)
(0.436555 -0.0437366 0)
(0.440855 -0.0512663 0)
(0.445673 -0.0602704 0)
(0.453643 -0.0703676 0)
(0.412464 -0.000107827 0)
(0.412479 -0.000353985 0)
(0.41252 -0.000657831 0)
(0.412588 -0.0010159 0)
(0.412686 -0.00142582 0)
(0.412815 -0.00188491 0)
(0.412979 -0.00239046 0)
(0.413179 -0.00294031 0)
(0.413419 -0.00353342 0)
(0.413701 -0.00417061 0)
(0.414025 -0.00485557 0)
(0.414396 -0.00559594 0)
(0.414815 -0.00640405 0)
(0.415286 -0.0072974 0)
(0.415813 -0.00829874 0)
(0.416401 -0.00943607 0)
(0.417058 -0.0107426 0)
(0.417793 -0.0122571 0)
(0.418617 -0.0140245 0)
(0.419544 -0.0160976 0)
(0.420591 -0.0185386 0)
(0.421781 -0.0214213 0)
(0.423141 -0.0248338 0)
(0.424711 -0.0288815 0)
(0.426539 -0.0336909 0)
(0.428713 -0.039413 0)
(0.431282 -0.0462358 0)
(0.43459 -0.054365 0)
(0.438251 -0.0641325 0)
(0.444815 -0.0755854 0)
(0.412463 -0.000114143 0)
(0.412476 -0.000374348 0)
(0.412508 -0.000694684 0)
(0.412562 -0.00107132 0)
(0.41264 -0.0015017 0)
(0.412743 -0.00198305 0)
(0.412873 -0.00251252 0)
(0.413032 -0.00308778 0)
(0.413221 -0.00370763 0)
(0.413443 -0.0043728 0)
(0.413697 -0.00508702 0)
(0.413985 -0.00585808 0)
(0.414309 -0.00669861 0)
(0.414671 -0.00762658 0)
(0.415073 -0.00866541 0)
(0.415517 -0.00984391 0)
(0.416009 -0.0111963 0)
(0.416553 -0.0127625 0)
(0.417155 -0.0145887 0)
(0.417823 -0.0167296 0)
(0.418566 -0.0192496 0)
(0.419396 -0.0222258 0)
(0.420329 -0.0257513 0)
(0.421387 -0.0299384 0)
(0.422597 -0.0349248 0)
(0.424021 -0.0408786 0)
(0.425681 -0.0480128 0)
(0.42786 -0.0565892 0)
(0.430185 -0.0669438 0)
(0.434956 -0.0795505 0)
(0.412462 -0.000119057 0)
(0.412472 -0.000390172 0)
(0.412496 -0.00072327 0)
(0.412536 -0.00111421 0)
(0.412594 -0.00156026 0)
(0.41267 -0.00205851 0)
(0.412766 -0.00260598 0)
(0.412881 -0.00320018 0)
(0.413019 -0.00383973 0)
(0.413178 -0.00452525 0)
(0.413359 -0.00526042 0)
(0.413563 -0.00605304 0)
(0.413789 -0.00691586 0)
(0.414039 -0.00786706 0)
(0.414313 -0.00893034 0)
(0.414611 -0.0101349 0)
(0.414933 -0.0115153 0)
(0.415282 -0.0131119 0)
(0.415658 -0.0149714 0)
(0.416062 -0.0171489 0)
(0.416494 -0.0197097 0)
(0.416956 -0.0227324 0)
(0.417449 -0.0263121 0)
(0.417978 -0.030565 0)
(0.418546 -0.0356351 0)
(0.419179 -0.0417022 0)
(0.419868 -0.0489971 0)
(0.420805 -0.0578261 0)
(0.421647 -0.0685279 0)
(0.424257 -0.0819592 0)
(0.412461 -0.000122575 0)
(0.412468 -0.000401455 0)
(0.412484 -0.000743533 0)
(0.41251 -0.00114441 0)
(0.412548 -0.00160117 0)
(0.412597 -0.0021108 0)
(0.412657 -0.00267018 0)
(0.412729 -0.00327666 0)
(0.412813 -0.00392871 0)
(0.412909 -0.00462679 0)
(0.413016 -0.00537444 0)
(0.413134 -0.00617938 0)
(0.413262 -0.00705429 0)
(0.413398 -0.00801724 0)
(0.413542 -0.00909187 0)
(0.413692 -0.0103072 0)
(0.413845 -0.0116977 0)
(0.413998 -0.0133033 0)
(0.414146 -0.0151702 0)
(0.414285 -0.0173528 0)
(0.414406 -0.0199157 0)
(0.4145 -0.0229365 0)
(0.414553 -0.0265095 0)
(0.414549 -0.0307506 0)
(0.414468 -0.0358047 0)
(0.414294 -0.0418548 0)
(0.413982 -0.049139 0)
(0.413609 -0.0579899 0)
(0.412871 -0.0687412 0)
(0.413031 -0.0825402 0)
(0.412461 -0.000124709 0)
(0.412464 -0.000408218 0)
(0.412472 -0.000755468 0)
(0.412485 -0.00116185 0)
(0.412502 -0.00162431 0)
(0.412523 -0.0021397 0)
(0.412548 -0.00270481 0)
(0.412576 -0.00331684 0)
(0.412607 -0.00397411 0)
(0.412639 -0.00467689 0)
(0.412672 -0.00542854 0)
(0.412704 -0.00623657 0)
(0.412733 -0.00711337 0)
(0.412756 -0.0080767 0)
(0.412771 -0.00914974 0)
(0.412773 -0.010361 0)
(0.412757 -0.011744 0)
(0.412717 -0.0133376 0)
(0.412642 -0.0151866 0)
(0.41252 -0.0173435 0)
(0.412337 -0.0198703 0)
(0.412069 -0.0228414 0)
(0.411692 -0.0263472 0)
(0.411167 -0.0304986 0)
(0.410449 -0.0354346 0)
(0.409481 -0.0413325 0)
(0.408177 -0.0484234 0)
(0.406486 -0.0570422 0)
(0.404149 -0.0675035 0)
(0.40171 -0.0811093 0)
(0.41246 -0.000125486 0)
(0.41246 -0.000410542 0)
(0.41246 -0.000759175 0)
(0.412459 -0.00116663 0)
(0.412456 -0.00162973 0)
(0.41245 -0.00214524 0)
(0.41244 -0.00270986 0)
(0.412425 -0.0033207 0)
(0.412402 -0.00397592 0)
(0.412371 -0.0046756 0)
(0.412331 -0.00542286 0)
(0.412277 -0.00622487 0)
(0.412208 -0.00709361 0)
(0.41212 -0.00804624 0)
(0.412008 -0.00910515 0)
(0.411865 -0.0102978 0)
(0.411685 -0.0116564 0)
(0.411456 -0.013218 0)
(0.411164 -0.0150251 0)
(0.410792 -0.0171269 0)
(0.410315 -0.0195813 0)
(0.409704 -0.0224573 0)
(0.408916 -0.0258381 0)
(0.407898 -0.0298251 0)
(0.406579 -0.0345447 0)
(0.404859 -0.040158 0)
(0.402618 -0.0468743 0)
(0.399673 -0.0550032 0)
(0.395806 -0.0648204 0)
(0.390816 -0.0776193 0)
(0.412459 -0.000124946 0)
(0.412457 -0.000408536 0)
(0.412449 -0.000754832 0)
(0.412435 -0.00115896 0)
(0.412412 -0.00161769 0)
(0.412379 -0.00212771 0)
(0.412335 -0.00268569 0)
(0.412276 -0.00328867 0)
(0.412202 -0.00393468 0)
(0.412109 -0.00462359 0)
(0.411996 -0.00535825 0)
(0.411858 -0.00614541 0)
(0.411694 -0.00699646 0)
(0.411497 -0.00792776 0)
(0.411261 -0.00896063 0)
(0.41098 -0.0101211 0)
(0.410641 -0.0114395 0)
(0.410231 -0.0129504 0)
(0.409733 -0.0146932 0)
(0.409124 -0.016713 0)
(0.408373 -0.0190619 0)
(0.40744 -0.0218017 0)
(0.406274 -0.0250052 0)
(0.404804 -0.0287603 0)
(0.402938 -0.0331745 0)
(0.400542 -0.0383831 0)
(0.397461 -0.044559 0)
(0.393402 -0.0519594 0)
(0.388172 -0.0608005 0)
(0.380904 -0.0721985 0)
(0.412459 -0.00012314 0)
(0.412453 -0.000402358 0)
(0.412438 -0.000742704 0)
(0.412411 -0.00113924 0)
(0.412369 -0.00158866 0)
(0.412311 -0.00208768 0)
(0.412233 -0.00263299 0)
(0.412132 -0.00322158 0)
(0.412007 -0.00385138 0)
(0.411855 -0.00452209 0)
(0.411671 -0.00523623 0)
(0.411453 -0.00600006 0)
(0.411196 -0.00682427 0)
(0.410894 -0.00772423 0)
(0.410541 -0.00871992 0)
(0.410126 -0.00983559 0)
(0.409636 -0.0110993 0)
(0.409057 -0.0125428 0)
(0.408366 -0.0142014 0)
(0.407537 -0.0161152 0)
(0.406534 -0.0183299 0)
(0.405311 -0.0208978 0)
(0.403807 -0.0238797 0)
(0.401939 -0.0273462 0)
(0.399599 -0.0313809 0)
(0.396628 -0.0360857 0)
(0.392844 -0.0415853 0)
(0.387875 -0.0480619 0)
(0.381543 -0.0556546 0)
(0.372478 -0.0651588 0)
(0.412458 -0.000120146 0)
(0.41245 -0.000392248 0)
(0.412428 -0.000723181 0)
(0.412389 -0.00110796 0)
(0.412329 -0.00154329 0)
(0.412246 -0.00202596 0)
(0.412136 -0.00255272 0)
(0.411995 -0.0031206 0)
(0.411822 -0.00372747 0)
(0.411611 -0.00437285 0)
(0.41136 -0.00505892 0)
(0.411065 -0.00579142 0)
(0.41072 -0.00658022 0)
(0.410319 -0.00743955 0)
(0.409854 -0.00838787 0)
(0.409313 -0.00944739 0)
(0.408683 -0.0106436 0)
(0.407946 -0.0120047 0)
(0.407079 -0.0135621 0)
(0.40605 -0.01535 0)
(0.404822 -0.0174066 0)
(0.403343 -0.0197743 0)
(0.401548 -0.0224997 0)
(0.399345 -0.0256344 0)
(0.396617 -0.0292351 0)
(0.393192 -0.0333651 0)
(0.388872 -0.038094 0)
(0.383245 -0.0435143 0)
(0.376141 -0.0496785 0)
(0.365912 -0.0569672 0)
(0.412458 -0.000116061 0)
(0.412447 -0.000378499 0)
(0.412419 -0.00069675 0)
(0.412368 -0.00106581 0)
(0.412291 -0.00148243 0)
(0.412185 -0.00194358 0)
(0.412045 -0.00244616 0)
(0.411866 -0.0029873 0)
(0.411646 -0.00356482 0)
(0.411381 -0.00417811 0)
(0.411067 -0.00482903 0)
(0.410698 -0.00552274 0)
(0.410271 -0.00626824 0)
(0.409776 -0.00707851 0)
(0.409207 -0.0079703 0)
(0.40855 -0.00896362 0)
(0.407791 -0.0100811 0)
(0.40691 -0.0113476 0)
(0.405883 -0.0127896 0)
(0.404678 -0.0144357 0)
(0.403254 -0.0163162 0)
(0.401558 -0.0184629 0)
(0.399521 -0.020908 0)
(0.397051 -0.0236832 0)
(0.394028 -0.0268173 0)
(0.39028 -0.030334 0)
(0.385605 -0.034246 0)
(0.379595 -0.0385523 0)
(0.372084 -0.0432198 0)
(0.361392 -0.0481844 0)
(0.412457 -0.000111007 0)
(0.412444 -0.000361492 0)
(0.412411 -0.000664031 0)
(0.41235 -0.00101361 0)
(0.412258 -0.00140711 0)
(0.41213 -0.00184181 0)
(0.411961 -0.00231488 0)
(0.411747 -0.00282356 0)
(0.411484 -0.00336569 0)
(0.411167 -0.00394056 0)
(0.410794 -0.00454972 0)
(0.410357 -0.00519778 0)
(0.409853 -0.00589278 0)
(0.409272 -0.00664642 0)
(0.408607 -0.00747365 0)
(0.407844 -0.00839218 0)
(0.406968 -0.00942175 0)
(0.405958 -0.0105835 0)
(0.40479 -0.0118994 0)
(0.403432 -0.0133922 0)
(0.401841 -0.0150843 0)
(0.399967 -0.0169971 0)
(0.39774 -0.0191492 0)
(0.395072 -0.021553 0)
(0.391848 -0.0242109 0)
(0.387906 -0.0271089 0)
(0.383057 -0.0302075 0)
(0.376932 -0.0334186 0)
(0.369377 -0.0366353 0)
(0.358888 -0.0393839 0)
(0.412457 -0.000105145 0)
(0.412442 -0.000341712 0)
(0.412404 -0.000625795 0)
(0.412334 -0.000952341 0)
(0.412228 -0.00131853 0)
(0.41208 -0.00172212 0)
(0.411886 -0.00216065 0)
(0.411639 -0.00263153 0)
(0.411336 -0.00313268 0)
(0.410973 -0.00366333 0)
(0.410544 -0.00422475 0)
(0.410045 -0.00482094 0)
(0.40947 -0.00545902 0)
(0.408811 -0.0061493 0)
(0.408058 -0.00690496 0)
(0.4072 -0.0077414 0)
(0.406219 -0.00867546 0)
(0.405097 -0.00972472 0)
(0.403807 -0.0109068 0)
(0.402319 -0.0122386 0)
(0.400592 -0.0137356 0)
(0.398576 -0.0154096 0)
(0.396209 -0.0172666 0)
(0.393409 -0.0193021 0)
(0.390071 -0.0214954 0)
(0.386055 -0.0238004 0)
(0.381196 -0.0261343 0)
(0.375193 -0.0283376 0)
(0.367914 -0.0302491 0)
(0.358175 -0.031073 0)
(0.412457 -9.86848e-05 0)
(0.412441 -0.000319797 0)
(0.412399 -0.000582987 0)
(0.412322 -0.000883163 0)
(0.412204 -0.00121808 0)
(0.412039 -0.0015862 0)
(0.41182 -0.00198548 0)
(0.411544 -0.00241356 0)
(0.411205 -0.0028685 0)
(0.410799 -0.0033496 0)
(0.410321 -0.00385793 0)
(0.409765 -0.00439688 0)
(0.409127 -0.00497261 0)
(0.408397 -0.00559405 0)
(0.407567 -0.0062726 0)
(0.406624 -0.00702136 0)
(0.405552 -0.00785441 0)
(0.404332 -0.00878593 0)
(0.402939 -0.00982941 0)
(0.401343 -0.0109968 0)
(0.399508 -0.012297 0)
(0.397387 -0.0137339 0)
(0.394924 -0.015303 0)
(0.392049 -0.016986 0)
(0.388674 -0.0187444 0)
(0.384686 -0.0205075 0)
(0.379952 -0.0221615 0)
(0.374258 -0.0234972 0)
(0.367501 -0.0243227 0)
(0.358895 -0.0236349 0)
(0.412456 -9.19295e-05 0)
(0.41244 -0.000296617 0)
(0.412397 -0.000536738 0)
(0.412315 -0.000807327 0)
(0.412187 -0.00110727 0)
(0.412006 -0.00143601 0)
(0.411767 -0.00179187 0)
(0.411464 -0.00217261 0)
(0.411093 -0.00257652 0)
(0.410649 -0.003003 0)
(0.410126 -0.00345296 0)
(0.40952 -0.00392928 0)
(0.408826 -0.00443722 0)
(0.408034 -0.00498442 0)
(0.407136 -0.00558054 0)
(0.406119 -0.00623659 0)
(0.404969 -0.00696406 0)
(0.403666 -0.00777407 0)
(0.402187 -0.00867644 0)
(0.400506 -0.00967875 0)
(0.398587 -0.0107848 0)
(0.396392 -0.011992 0)
(0.393873 -0.0132879 0)
(0.390971 -0.0146447 0)
(0.387619 -0.0160114 0)
(0.383736 -0.0173024 0)
(0.379227 -0.0183862 0)
(0.373968 -0.0190284 0)
(0.367894 -0.0190289 0)
(0.360623 -0.0173022 0)
(0.412457 -8.53587e-05 0)
(0.412441 -0.000273482 0)
(0.412398 -0.000488465 0)
(0.412313 -0.000726042 0)
(0.412177 -0.000987297 0)
(0.411983 -0.00127304 0)
(0.411726 -0.00158192 0)
(0.411401 -0.00191189 0)
(0.411002 -0.00226151 0)
(0.410525 -0.00263029 0)
(0.409964 -0.00301889 0)
(0.409315 -0.0034296 0)
(0.408572 -0.00386672 0)
(0.407727 -0.00433663 0)
(0.40677 -0.00484732 0)
(0.405691 -0.00540783 0)
(0.404474 -0.00602735 0)
(0.403103 -0.00671428 0)
(0.401555 -0.00747531 0)
(0.399807 -0.00831457 0)
(0.397827 -0.00923198 0)
(0.395584 -0.0102206 0)
(0.393038 -0.0112629 0)
(0.390146 -0.0123255 0)
(0.386861 -0.0133516 0)
(0.383132 -0.0142498 0)
(0.378908 -0.0148844 0)
(0.374148 -0.0150195 0)
(0.368828 -0.0144661 0)
(0.362921 -0.0121705 0)
(0.412457 -7.97972e-05 0)
(0.412445 -0.000252413 0)
(0.412405 -0.000440492 0)
(0.412321 -0.000641682 0)
(0.412179 -0.000860251 0)
(0.411974 -0.00109832 0)
(0.411702 -0.00135481 0)
(0.411357 -0.00162817 0)
(0.410935 -0.00191757 0)
(0.410429 -0.00222285 0)
(0.409836 -0.00254456 0)
(0.40915 -0.00288447 0)
(0.408366 -0.00324599 0)
(0.407476 -0.00363422 0)
(0.406471 -0.00405562 0)
(0.40534 -0.00451746 0)
(0.40407 -0.00502699 0)
(0.402643 -0.00559022 0)
(0.401041 -0.00621117 0)
(0.399242 -0.00689138 0)
(0.39722 -0.00762826 0)
(0.394949 -0.00841238 0)
(0.392399 -0.00922401 0)
(0.389541 -0.0100283 0)
(0.386347 -0.0107685 0)
(0.382799 -0.0113559 0)
(0.37888 -0.0116632 0)
(0.374625 -0.0114723 0)
(0.37005 -0.0106231 0)
(0.365395 -0.00817734 0)
(0.41246 -7.66079e-05 0)
(0.412453 -0.000234627 0)
(0.412422 -0.000393703 0)
(0.412341 -0.000557943 0)
(0.412196 -0.000734986 0)
(0.411983 -0.000926887 0)
(0.4117 -0.00113222 0)
(0.411341 -0.00134978 0)
(0.410899 -0.00157926 0)
(0.410371 -0.00182078 0)
(0.409751 -0.0020748 0)
(0.409035 -0.00234267 0)
(0.408219 -0.00262699 0)
(0.407293 -0.00293177 0)
(0.406249 -0.0032621 0)
(0.405077 -0.00362375 0)
(0.403764 -0.00402251 0)
(0.402295 -0.00446211 0)
(0.400653 -0.00494416 0)
(0.398818 -0.00546888 0)
(0.39677 -0.00603277 0)
(0.394488 -0.00662583 0)
(0.391951 -0.00722875 0)
(0.389142 -0.00780889 0)
(0.386053 -0.00831496 0)
(0.382689 -0.00866769 0)
(0.379067 -0.00875783 0)
(0.375275 -0.00839812 0)
(0.371372 -0.00747487 0)
(0.367767 -0.00522859 0)
(0.412463 -8.30278e-05 0)
(0.412472 -0.000221558 0)
(0.412455 -0.000337085 0)
(0.412377 -0.000451007 0)
(0.412229 -0.00057535 0)
(0.41201 -0.000711249 0)
(0.411719 -0.000857167 0)
(0.411349 -0.00101243 0)
(0.410895 -0.00117699 0)
(0.410351 -0.00135088 0)
(0.409713 -0.00153431 0)
(0.408978 -0.00172795 0)
(0.408139 -0.00193327 0)
(0.40719 -0.00215286 0)
(0.406121 -0.00239035 0)
(0.404923 -0.00265042 0)
(0.403584 -0.00293898 0)
(0.402092 -0.00325815 0)
(0.40043 -0.00360658 0)
(0.398581 -0.00398342 0)
(0.396526 -0.00438522 0)
(0.394251 -0.00480301 0)
(0.391742 -0.00522022 0)
(0.388992 -0.00560953 0)
(0.386007 -0.00592926 0)
(0.382813 -0.00611483 0)
(0.379455 -0.00608256 0)
(0.376042 -0.00567559 0)
(0.372687 -0.00484036 0)
(0.369789 -0.00297271 0)
(0.412475 -0.000120058 0)
(0.412539 -0.000264181 0)
(0.412515 -0.000346323 0)
(0.412422 -0.000417775 0)
(0.41226 -0.000495052 0)
(0.41203 -0.000577775 0)
(0.411728 -0.000664935 0)
(0.411347 -0.000757057 0)
(0.410879 -0.000854705 0)
(0.410319 -0.000958115 0)
(0.409661 -0.00106752 0)
(0.408901 -0.00118349 0)
(0.408035 -0.00130712 0)
(0.407058 -0.00144022 0)
(0.405964 -0.00158516 0)
(0.404745 -0.00174461 0)
(0.403388 -0.00192103 0)
(0.401858 -0.00211594 0)
(0.400157 -0.0023294 0)
(0.398267 -0.00256002 0)
(0.39617 -0.00280421 0)
(0.393853 -0.00305487 0)
(0.391308 -0.00329983 0)
(0.388537 -0.00351969 0)
(0.385557 -0.0036852 0)
(0.382411 -0.00375215 0)
(0.379185 -0.00366177 0)
(0.375967 -0.00330856 0)
(0.373086 -0.00265043 0)
(0.370092 -0.00111004 0)
(0.412268 -7.51285e-05 0)
(0.412106 -0.000156084 0)
(0.411807 -0.00019449 0)
(0.411395 -0.000224935 0)
(0.410907 -0.000256826 0)
(0.410353 -0.000289528 0)
(0.409726 -0.000322354 0)
(0.409017 -0.000355354 0)
(0.408222 -0.000388658 0)
(0.407338 -0.000422656 0)
(0.406359 -0.000458276 0)
(0.405281 -0.000496846 0)
(0.404095 -0.000539684 0)
(0.402793 -0.000587734 0)
(0.401363 -0.000641526 0)
(0.399793 -0.000700998 0)
(0.398069 -0.000764756 0)
(0.396179 -0.000832949 0)
(0.394106 -0.000906873 0)
(0.391832 -0.000985816 0)
(0.389345 -0.00106808 0)
(0.386636 -0.00115097 0)
(0.383708 -0.00122999 0)
(0.380576 -0.00129779 0)
(0.377279 -0.00134343 0)
(0.373889 -0.00134967 0)
(0.370525 -0.00129822 0)
(0.367386 -0.0011256 0)
(0.364758 -0.00092242 0)
(0.362289 0.000120613 0)
(0.48986 -0.00663375 -7.04842e-20)
(0.494157 -0.0100184 -6.98637e-20)
(0.497915 -0.0141519 -9.97608e-19)
(0.500893 -0.0186889 -2.85691e-19)
(0.503506 -0.0235156 2.897e-19)
(0.505925 -0.028589 0)
(0.508178 -0.033919 0)
(0.51031 -0.0395412 2.93303e-19)
(0.51239 -0.0454927 -2.98076e-19)
(0.514475 -0.0518058 -5.94065e-19)
(0.516591 -0.0585136 6.04167e-19)
(0.518746 -0.0656568 0)
(0.520939 -0.0732884 -6.03071e-19)
(0.523175 -0.0814753 6.13979e-19)
(0.525459 -0.0902984 0)
(0.527809 -0.0998636 1.21706e-18)
(0.530234 -0.110296 6.04017e-19)
(0.532749 -0.121751 5.92156e-19)
(0.535363 -0.134418 5.93721e-19)
(0.538085 -0.148539 5.72883e-19)
(0.540918 -0.164419 -5.69156e-19)
(0.543861 -0.182448 1.69515e-18)
(0.546884 -0.203142 0)
(0.549968 -0.227159 -9.8851e-19)
(0.552948 -0.255423 4.24862e-19)
(0.555752 -0.289138 -8.33565e-19)
(0.558002 -0.329443 -9.15539e-19)
(0.557607 -0.382822 0)
(0.560997 -0.430979 0)
(0.536537 -0.55622 1.85358e-19)
(0.493813 -0.0152155 -1.15672e-18)
(0.496608 -0.0189878 0)
(0.498904 -0.0234362 0)
(0.500762 -0.0281533 -1.18173e-18)
(0.502486 -0.0330601 1.19196e-18)
(0.504209 -0.0381912 1.20201e-18)
(0.505937 -0.0435994 -3.00691e-19)
(0.507673 -0.0493213 3.05693e-19)
(0.509436 -0.0553801 9.27842e-19)
(0.511229 -0.0618002 1.55447e-18)
(0.513037 -0.0686167 -6.20042e-19)
(0.514844 -0.0758782 1.27075e-18)
(0.516643 -0.0836462 6.35819e-19)
(0.518435 -0.0919945 6.50085e-19)
(0.520224 -0.10101 6.43584e-19)
(0.522014 -0.110799 1.29433e-18)
(0.523803 -0.121488 0)
(0.525582 -0.133231 -6.33779e-19)
(0.527339 -0.146218 -6.482e-19)
(0.529049 -0.160687 0)
(0.530678 -0.176939 6.11593e-19)
(0.532172 -0.195352 6.2459e-19)
(0.533434 -0.216418 -1.21579e-18)
(0.534356 -0.240757 0)
(0.534635 -0.269225 4.91387e-19)
(0.534109 -0.302848 4.94224e-19)
(0.531898 -0.343003 -8.59061e-19)
(0.526709 -0.393497 2.09349e-19)
(0.522607 -0.443673 -2.16698e-19)
(0.49136 -0.556728 -1.01316e-19)
(0.492169 -0.0234344 1.17766e-18)
(0.494052 -0.0271077 0)
(0.495686 -0.031447 -1.49349e-19)
(0.497262 -0.0361134 2.57417e-18)
(0.49887 -0.0410304 -9.13961e-19)
(0.500508 -0.0462129 -1.84545e-18)
(0.502135 -0.0516858 1.56382e-18)
(0.503729 -0.0574662 -3.12946e-19)
(0.505287 -0.0635763 -9.44542e-19)
(0.506804 -0.0700517 -3.03389e-19)
(0.508273 -0.0769406 3.24718e-19)
(0.509693 -0.0842992 -1.94602e-18)
(0.511065 -0.0921908 1.31608e-18)
(0.51239 -0.100688 -1.98478e-18)
(0.513662 -0.109876 0)
(0.51487 -0.119857 -1.33325e-18)
(0.515993 -0.130758 0)
(0.517004 -0.14273 0)
(0.517866 -0.155962 1.33937e-18)
(0.518526 -0.170685 0)
(0.518913 -0.187188 0)
(0.518925 -0.205833 -1.29957e-18)
(0.518402 -0.227082 1.26708e-18)
(0.517153 -0.251505 0)
(0.514766 -0.279888 0)
(0.51097 -0.313113 -1.05151e-18)
(0.504547 -0.352566 2.78176e-19)
(0.494827 -0.40045 -2.88942e-19)
(0.482891 -0.451745 -1.74703e-19)
(0.446174 -0.552549 0)
(0.490113 -0.0319074 -3.76146e-20)
(0.491652 -0.0356792 -3.78232e-20)
(0.49298 -0.040077 1.16238e-18)
(0.494364 -0.0447897 -2.49286e-18)
(0.495773 -0.0497452 1.57928e-19)
(0.497134 -0.0549561 3.17348e-19)
(0.498419 -0.0604524 -3.07678e-19)
(0.499634 -0.0662635 0)
(0.500787 -0.0724229 1.65458e-18)
(0.501882 -0.078972 -2.99952e-18)
(0.502914 -0.0859574 1.35855e-18)
(0.503877 -0.0934306 6.77975e-19)
(0.504762 -0.10145 -2.0828e-18)
(0.505554 -0.110087 0)
(0.50623 -0.119425 0)
(0.506763 -0.129568 1.4381e-18)
(0.507119 -0.140638 1.45239e-18)
(0.507251 -0.152786 7.14513e-19)
(0.507101 -0.166191 -1.4322e-20)
(0.50659 -0.181074 -7.35448e-19)
(0.505608 -0.197708 0)
(0.504008 -0.216426 0)
(0.501573 -0.23765 -7.81614e-19)
(0.49804 -0.261893 -2.19374e-18)
(0.492907 -0.289848 0)
(0.485813 -0.322247 -7.72777e-19)
(0.475278 -0.360361 1.05957e-18)
(0.461185 -0.405458 -2.05657e-18)
(0.441659 -0.455667 2.55942e-19)
(0.401197 -0.54403 0)
(0.487181 -0.0403097 0)
(0.488362 -0.0441232 1.26172e-18)
(0.489309 -0.0485193 -1.107e-18)
(0.490368 -0.0532289 1.11944e-18)
(0.491458 -0.0581977 1.62395e-19)
(0.492474 -0.0634417 -1.65286e-19)
(0.493397 -0.0689899 -1.32749e-18)
(0.494246 -0.0748694 0)
(0.495025 -0.0811098 2.20401e-20)
(0.495723 -0.0877475 1.37876e-18)
(0.496324 -0.0948256 -1.74734e-18)
(0.496811 -0.102395 1.80119e-18)
(0.497166 -0.110515 1.79291e-18)
(0.497363 -0.119256 -3.68116e-19)
(0.497373 -0.128705 2.24594e-18)
(0.497158 -0.13896 -1.46315e-18)
(0.496669 -0.150139 -1.52935e-18)
(0.495845 -0.162384 -7.7638e-19)
(0.494604 -0.175864 0)
(0.492839 -0.190784 0)
(0.490409 -0.207392 0)
(0.487125 -0.225992 7.8846e-19)
(0.482724 -0.246955 2.40225e-18)
(0.47688 -0.270726 7.6191e-19)
(0.469023 -0.2979 1.58691e-18)
(0.458719 -0.329056 -9.78703e-19)
(0.444324 -0.365322 1.6299e-18)
(0.42609 -0.407285 -2.69386e-19)
(0.399712 -0.454982 1.20105e-18)
(0.356931 -0.531285 1.56738e-18)
(0.483357 -0.0486346 -1.28626e-18)
(0.484194 -0.0525046 -1.28936e-18)
(0.484771 -0.0569333 -1.32546e-18)
(0.485504 -0.0616788 0)
(0.486275 -0.0666923 0)
(0.486946 -0.0719865 -1.38305e-18)
(0.487499 -0.0775864 0)
(0.487953 -0.0835179 1.07387e-18)
(0.488309 -0.0898108 -2.51086e-18)
(0.488545 -0.0965022 1.47235e-18)
(0.48864 -0.103637 1.12807e-18)
(0.488573 -0.111265 -3.00733e-18)
(0.488319 -0.119446 2.36633e-21)
(0.487847 -0.128248 -1.18665e-18)
(0.487118 -0.137752 4.62787e-20)
(0.486081 -0.14805 -1.58307e-18)
(0.484674 -0.159252 -5.67371e-20)
(0.482816 -0.171491 1.69626e-18)
(0.480407 -0.18492 -8.88643e-19)
(0.477315 -0.199724 -8.64698e-19)
(0.47337 -0.216125 1.79638e-18)
(0.468351 -0.234386 0)
(0.461954 -0.254826 -1.74527e-18)
(0.453805 -0.277815 0)
(0.443291 -0.303839 -1.93441e-18)
(0.429916 -0.333337 1.76596e-18)
(0.411953 -0.367255 2.42678e-19)
(0.389898 -0.405665 1.70529e-18)
(0.357649 -0.449653 -2.03286e-18)
(0.313727 -0.514442 9.82081e-19)
(0.47854 -0.0568022 1.27382e-18)
(0.479017 -0.0607303 -4.19198e-20)
(0.479202 -0.065189 1.61329e-18)
(0.479577 -0.0699591 5.26671e-19)
(0.479991 -0.074997 0)
(0.480273 -0.0803153 1.41956e-18)
(0.480405 -0.0859396 1.09893e-18)
(0.480412 -0.0918964 -1.83708e-18)
(0.480291 -0.0982159 7.28764e-19)
(0.480015 -0.104934 -7.40283e-19)
(0.479556 -0.112094 -1.54382e-18)
(0.478887 -0.119742 1.5719e-18)
(0.477977 -0.127934 -4.19206e-19)
(0.476786 -0.136735 1.21703e-18)
(0.475262 -0.146217 -3.82496e-19)
(0.473346 -0.156467 -4.32391e-19)
(0.470961 -0.167586 2.63133e-18)
(0.468014 -0.179692 -2.6893e-18)
(0.464384 -0.192922 1.80514e-18)
(0.459922 -0.207437 4.99705e-19)
(0.454434 -0.223426 -1.39901e-18)
(0.447671 -0.241111 1.025e-18)
(0.439301 -0.260751 0)
(0.428917 -0.28264 -5.18654e-19)
(0.415883 -0.307154 2.60109e-18)
(0.399657 -0.334598 0)
(0.378506 -0.365713 -3.90672e-18)
(0.353072 -0.400191 5.94986e-19)
(0.316073 -0.439597 0)
(0.271866 -0.493656 -2.12556e-18)
(0.472614 -0.0646826 -6.93728e-19)
(0.472708 -0.0686619 -8.74692e-20)
(0.472478 -0.0731376 -5.42212e-19)
(0.472467 -0.0779153 -8.09631e-19)
(0.472493 -0.0829575 1.84207e-19)
(0.472355 -0.0882776 -1.87953e-19)
(0.472031 -0.0939004 -7.57021e-19)
(0.471553 -0.0998515 -7.90189e-19)
(0.470917 -0.106159 7.8609e-19)
(0.470087 -0.112858 -3.96225e-19)
(0.46903 -0.119986 -4.15e-19)
(0.467712 -0.127589 0)
(0.466096 -0.135717 1.28661e-18)
(0.464134 -0.144429 -4.44147e-19)
(0.461767 -0.153792 -8.93581e-19)