/*--------------------------------*- C++ -*----------------------------------*\
  =========                 |
  \\      /  F ield         | OpenFOAM: The Open Source CFD Toolbox
   \\    /   O peration     | Website:  https://openfoam.org
    \\  /    A nd           | Version:  11
     \\/     M anipulation  |
\*---------------------------------------------------------------------------*/
FoamFile
{
    format      ascii;
    class       surfaceScalarField;
    location    "8.5";
    object      phi;
}
// * * * * * * * * * * * * * * * * * * * * * * * * * * * * * * * * * * * * * //

dimensions      [0 3 -1 0 0 0 0];

internalField   nonuniform List<scalar> 
24840
(
1.53202e-05
1.31495e-08
1.53029e-05
1.73136e-08
1.52872e-05
1.56251e-08
1.52726e-05
1.46607e-08
1.52585e-05
1.40839e-08
1.52452e-05
1.32788e-08
1.5233e-05
1.21775e-08
1.52222e-05
1.08327e-08
1.5213e-05
9.21195e-09
1.52059e-05
7.09128e-09
1.52013e-05
4.56181e-09
1.51999e-05
1.48536e-09
1.52022e-05
-2.34284e-09
1.52093e-05
-7.08598e-09
1.52222e-05
-1.29278e-08
1.52424e-05
-2.01684e-08
1.52715e-05
-2.90888e-08
1.53115e-05
-4.00117e-08
1.53654e-05
-5.3865e-08
1.54356e-05
-7.02786e-08
1.55256e-05
-8.99593e-08
1.56406e-05
-1.15048e-07
1.57866e-05
-1.45996e-07
1.59705e-05
-1.83867e-07
1.62008e-05
-2.30256e-07
1.64873e-05
-2.86532e-07
1.68428e-05
-3.55472e-07
1.72772e-05
-4.3441e-07
1.78284e-05
-5.51257e-07
-5.68709e-07
1.83971e-05
1.53395e-05
7.03091e-09
1.53441e-05
1.27019e-08
1.53487e-05
1.09914e-08
1.53536e-05
9.77112e-09
1.53589e-05
8.72566e-09
1.53651e-05
7.12499e-09
1.53723e-05
5.02138e-09
1.53806e-05
2.4434e-09
1.53905e-05
-6.36702e-10
1.54023e-05
-4.69046e-09
1.54163e-05
-9.48431e-09
1.54332e-05
-1.53584e-08
1.54534e-05
-2.25738e-08
1.54777e-05
-3.14108e-08
1.5507e-05
-4.22451e-08
1.55424e-05
-5.54908e-08
1.55849e-05
-7.16295e-08
1.56366e-05
-9.16774e-08
1.56986e-05
-1.15873e-07
1.57749e-05
-1.46565e-07
1.58705e-05
-1.85585e-07
1.59882e-05
-2.32776e-07
1.61325e-05
-2.9027e-07
1.63095e-05
-3.60923e-07
1.6527e-05
-4.47738e-07
1.67944e-05
-5.53944e-07
1.7123e-05
-6.84055e-07
1.75266e-05
-8.3802e-07
1.80206e-05
-1.04524e-06
-1.1711e-06
1.8623e-05
1.53364e-05
4.00411e-09
1.53406e-05
8.49306e-09
1.53442e-05
7.38641e-09
1.53485e-05
5.45244e-09
1.53536e-05
3.66147e-09
1.53594e-05
1.27474e-09
1.53662e-05
-1.76686e-09
1.53741e-05
-5.50741e-09
1.53836e-05
-1.01121e-08
1.53948e-05
-1.58477e-08
1.54081e-05
-2.28213e-08
1.54241e-05
-3.13712e-08
1.54434e-05
-4.18674e-08
1.54667e-05
-5.47304e-08
1.5495e-05
-7.04904e-08
1.55293e-05
-8.98008e-08
1.55711e-05
-1.13457e-07
1.56221e-05
-1.42664e-07
1.56848e-05
-1.78528e-07
1.57613e-05
-2.23117e-07
1.58545e-05
-2.78784e-07
1.59688e-05
-3.47091e-07
1.61093e-05
-4.30699e-07
1.62818e-05
-5.33463e-07
1.64939e-05
-6.5981e-07
1.67546e-05
-8.14639e-07
1.70754e-05
-1.00488e-06
1.74691e-05
-1.23173e-06
1.79535e-05
-1.52964e-06
-1.77236e-06
1.85548e-05
1.53352e-05
2.14519e-09
1.53389e-05
4.82107e-09
1.53424e-05
3.85188e-09
1.53464e-05
1.49002e-09
1.53511e-05
-1.12181e-09
1.53568e-05
-4.33911e-09
1.53633e-05
-8.30353e-09
1.5371e-05
-1.32274e-08
1.53802e-05
-1.92531e-08
1.5391e-05
-2.66585e-08
1.54039e-05
-3.57356e-08
1.54194e-05
-4.6867e-08
1.5438e-05
-6.05274e-08
1.54606e-05
-7.72742e-08
1.54879e-05
-9.77985e-08
1.55211e-05
-1.22968e-07
1.55615e-05
-1.53863e-07
1.56107e-05
-1.91933e-07
1.5671e-05
-2.38831e-07
1.57448e-05
-2.96843e-07
1.58348e-05
-3.6878e-07
1.5945e-05
-4.57353e-07
1.60804e-05
-5.66095e-07
1.62468e-05
-6.99832e-07
1.64513e-05
-8.6437e-07
1.6703e-05
-1.0663e-06
1.70129e-05
-1.31476e-06
1.73947e-05
-1.61356e-06
1.78637e-05
-1.99866e-06
-2.36161e-06
1.8453e-05
1.53346e-05
9.04879e-10
1.53375e-05
1.90057e-09
1.53407e-05
6.01791e-10
1.53445e-05
-2.25221e-09
1.5349e-05
-5.67362e-09
1.53544e-05
-9.69606e-09
1.53607e-05
-1.45974e-08
1.53681e-05
-2.06317e-08
1.53768e-05
-2.80023e-08
1.53872e-05
-3.70308e-08
1.53996e-05
-4.81101e-08
1.54144e-05
-6.17029e-08
1.54323e-05
-7.8381e-08
1.54538e-05
-9.88287e-08
1.54799e-05
-1.23893e-07
1.55116e-05
-1.54639e-07
1.55501e-05
-1.92406e-07
1.55971e-05
-2.38911e-07
1.56545e-05
-2.96232e-07
1.57247e-05
-3.67011e-07
1.58104e-05
-4.54508e-07
1.59154e-05
-5.62336e-07
1.60443e-05
-6.94954e-07
1.62026e-05
-8.58153e-07
1.63973e-05
-1.05906e-06
1.6637e-05
-1.306e-06
1.69324e-05
-1.61014e-06
1.72975e-05
-1.97868e-06
1.77463e-05
-2.44745e-06
-2.92901e-06
1.83137e-05
1.53342e-05
7.77183e-12
1.53366e-05
-4.66459e-10
1.53396e-05
-2.41889e-09
1.53432e-05
-5.7978e-09
1.53474e-05
-9.9405e-09
1.53525e-05
-1.47641e-08
1.53585e-05
-2.05699e-08
1.53655e-05
-2.76541e-08
1.53738e-05
-3.62917e-08
1.53836e-05
-4.68563e-08
1.53953e-05
-5.98169e-08
1.54093e-05
-7.57231e-08
1.54262e-05
-9.5238e-08
1.54465e-05
-1.19163e-07
1.54711e-05
-1.48491e-07
1.5501e-05
-1.84472e-07
1.55372e-05
-2.28675e-07
1.55814e-05
-2.83085e-07
1.56353e-05
-3.50139e-07
1.57012e-05
-4.32862e-07
1.57816e-05
-5.34973e-07
1.58801e-05
-6.60834e-07
1.60009e-05
-8.15777e-07
1.61493e-05
-1.00656e-06
1.63319e-05
-1.24157e-06
1.65567e-05
-1.53083e-06
1.68341e-05
-1.88751e-06
1.71778e-05
-2.32239e-06
1.76011e-05
-2.87078e-06
-3.46826e-06
1.81403e-05
1.53341e-05
-7.18812e-10
1.5336e-05
-2.41676e-09
1.53387e-05
-5.15021e-09
1.5342e-05
-9.08735e-09
1.5346e-05
-1.38935e-08
1.53507e-05
-1.94928e-08
1.53563e-05
-2.61577e-08
1.53629e-05
-3.42258e-08
1.53706e-05
-4.4043e-08
1.53798e-05
-5.60384e-08
1.53907e-05
-7.07453e-08
1.54038e-05
-8.87932e-08
1.54195e-05
-1.10933e-07
1.54384e-05
-1.38073e-07
1.54613e-05
-1.7134e-07
1.54889e-05
-2.12152e-07
1.55226e-05
-2.62289e-07
1.55634e-05
-3.23982e-07
1.56133e-05
-3.99987e-07
1.56741e-05
-4.93698e-07
1.57484e-05
-6.0928e-07
1.58393e-05
-7.51735e-07
1.59508e-05
-9.27195e-07
1.60875e-05
-1.14334e-06
1.62557e-05
-1.40975e-06
1.64629e-05
-1.73805e-06
1.67188e-05
-2.14337e-06
1.70366e-05
-2.64016e-06
1.7429e-05
-3.26324e-06
-3.97252e-06
1.79333e-05
1.53339e-05
-1.31012e-09
1.53356e-05
-4.06114e-09
1.5338e-05
-7.58511e-09
1.5341e-05
-1.21119e-08
1.53447e-05
-1.75422e-08
1.5349e-05
-2.38626e-08
1.53542e-05
-3.13268e-08
1.53603e-05
-4.03032e-08
1.53674e-05
-5.11983e-08
1.53759e-05
-6.44971e-08
1.5386e-05
-8.07925e-08
1.53979e-05
-1.00786e-07
1.54123e-05
-1.25308e-07
1.54296e-05
-1.55365e-07
1.54505e-05
-1.92204e-07
1.54757e-05
-2.37391e-07
1.55063e-05
-2.92893e-07
1.55435e-05
-3.61165e-07
1.55888e-05
-4.45245e-07
1.56439e-05
-5.48865e-07
1.57112e-05
-6.76599e-07
1.57935e-05
-8.34008e-07
1.58943e-05
-1.02793e-06
1.60178e-05
-1.26688e-06
1.61696e-05
-1.56155e-06
1.63566e-05
-1.92506e-06
1.65876e-05
-2.37439e-06
1.68751e-05
-2.92761e-06
1.7231e-05
-3.61921e-06
-4.43428e-06
1.76928e-05
1.53338e-05
-1.79713e-09
1.53352e-05
-5.46926e-09
1.53374e-05
-9.73943e-09
1.53401e-05
-1.48563e-08
1.53435e-05
-2.08687e-08
1.53474e-05
-2.78419e-08
1.53521e-05
-3.60321e-08
1.53577e-05
-4.58288e-08
1.53642e-05
-5.76885e-08
1.53718e-05
-7.21501e-08
1.53809e-05
-8.98605e-08
1.53917e-05
-1.11583e-07
1.54046e-05
-1.38221e-07
1.54201e-05
-1.70866e-07
1.54388e-05
-2.10869e-07
1.54613e-05
-2.59927e-07
1.54886e-05
-3.20167e-07
1.55216e-05
-3.94244e-07
1.55618e-05
-4.85439e-07
1.56108e-05
-5.97781e-07
1.56704e-05
-7.36204e-07
1.57431e-05
-9.06742e-07
1.5832e-05
-1.11683e-06
1.59409e-05
-1.37574e-06
1.60744e-05
-1.69513e-06
1.62388e-05
-2.08946e-06
1.64419e-05
-2.57743e-06
1.66948e-05
-3.18054e-06
1.70087e-05
-3.93309e-06
-4.84547e-06
1.74199e-05
1.53337e-05
-2.20712e-09
1.5335e-05
-6.67961e-09
1.53368e-05
-1.16298e-08
1.53393e-05
-1.73088e-08
1.53423e-05
-2.38557e-08
1.53458e-05
-3.14083e-08
1.53501e-05
-4.02403e-08
1.5355e-05
-5.07591e-08
1.53608e-05
-6.34612e-08
1.53675e-05
-7.89329e-08
1.53756e-05
-9.78693e-08
1.53851e-05
-1.21087e-07
1.53964e-05
-1.4955e-07
1.54099e-05
-1.84424e-07
1.54262e-05
-2.27149e-07
1.54458e-05
-2.79531e-07
1.54695e-05
-3.43836e-07
1.54981e-05
-4.22884e-07
1.55329e-05
-5.20158e-07
1.5575e-05
-6.39936e-07
1.56263e-05
-7.87456e-07
1.56887e-05
-9.69138e-07
1.57647e-05
-1.19291e-06
1.58577e-05
-1.46867e-06
1.59714e-05
-1.80887e-06
1.61111e-05
-2.22913e-06
1.62833e-05
-2.74964e-06
1.64978e-05
-3.39502e-06
1.67641e-05
-4.19947e-06
-5.1978e-06
1.71165e-05
1.53337e-05
-2.55566e-09
1.53347e-05
-7.71658e-09
1.53364e-05
-1.32717e-08
1.53385e-05
-1.94654e-08
1.53412e-05
-2.64907e-08
1.53443e-05
-3.45445e-08
1.5348e-05
-4.39258e-08
1.53523e-05
-5.50586e-08
1.53573e-05
-6.84704e-08
1.53631e-05
-8.47876e-08
1.537e-05
-1.04746e-07
1.53781e-05
-1.29208e-07
1.53878e-05
-1.59186e-07
1.53993e-05
-1.95907e-07
1.5413e-05
-2.40883e-07
1.54295e-05
-2.96011e-07
1.54493e-05
-3.63663e-07
1.54732e-05
-4.46793e-07
1.55021e-05
-5.49048e-07
1.55371e-05
-6.74898e-07
1.55794e-05
-8.29821e-07
1.56308e-05
-1.02053e-06
1.56932e-05
-1.25534e-06
1.57692e-05
-1.54459e-06
1.58617e-05
-1.9014e-06
1.59748e-05
-2.34226e-06
1.61138e-05
-2.88858e-06
1.62863e-05
-3.56757e-06
1.65002e-05
-4.41333e-06
-5.48315e-06
1.67855e-05
1.53336e-05
-2.85121e-09
1.53345e-05
-8.59805e-09
1.53359e-05
-1.46788e-08
1.53378e-05
-2.13262e-08
1.53401e-05
-2.87648e-08
1.53427e-05
-3.72367e-08
1.53459e-05
-4.70676e-08
1.53495e-05
-5.86978e-08
1.53537e-05
-7.26783e-08
1.53586e-05
-8.9667e-08
1.53643e-05
-1.10434e-07
1.5371e-05
-1.35874e-07
1.53788e-05
-1.67043e-07
1.53881e-05
-2.0521e-07
1.53992e-05
-2.51944e-07
1.54124e-05
-3.09208e-07
1.54282e-05
-3.79457e-07
1.54471e-05
-4.65742e-07
1.54699e-05
-5.71827e-07
1.54973e-05
-7.02324e-07
1.55304e-05
-8.62874e-07
1.55702e-05
-1.0604e-06
1.56184e-05
-1.30345e-06
1.56765e-05
-1.6027e-06
1.57467e-05
-1.97166e-06
1.58319e-05
-2.42744e-06
1.59356e-05
-2.99225e-06
1.60633e-05
-3.69532e-06
1.62204e-05
-4.57036e-06
-5.69414e-06
1.64313e-05
1.53336e-05
-3.0991e-09
1.53343e-05
-9.33772e-09
1.53355e-05
-1.58633e-08
1.53371e-05
-2.28941e-08
1.5339e-05
-3.06728e-08
1.53412e-05
-3.94749e-08
1.53438e-05
-4.96506e-08
1.53468e-05
-6.1655e-08
1.53501e-05
-7.60563e-08
1.5354e-05
-9.3535e-08
1.53585e-05
-1.14886e-07
1.53636e-05
-1.41031e-07
1.53696e-05
-1.73052e-07
1.53767e-05
-2.12249e-07
1.53849e-05
-2.6023e-07
1.53947e-05
-3.19002e-07
1.54064e-05
-3.91072e-07
1.54202e-05
-4.79555e-07
1.54366e-05
-5.88286e-07
1.54563e-05
-7.21958e-07
1.54797e-05
-8.86307e-07
1.55077e-05
-1.08836e-06
1.5541e-05
-1.33679e-06
1.55807e-05
-1.64241e-06
1.5628e-05
-2.01892e-06
1.56842e-05
-2.48368e-06
1.57512e-05
-3.05928e-06
1.58321e-05
-3.77616e-06
1.5929e-05
-4.66728e-06
-5.82466e-06
1.60595e-05
1.53335e-05
-3.30336e-09
1.53341e-05
-9.94666e-09
1.53351e-05
-1.68364e-08
1.53364e-05
-2.41751e-08
1.53379e-05
-3.22142e-08
1.53397e-05
-4.12539e-08
1.53417e-05
-5.16656e-08
1.5344e-05
-6.39162e-08
1.53465e-05
-7.85847e-08
1.53494e-05
-9.63664e-08
1.53525e-05
-1.18072e-07
1.53562e-05
-1.4464e-07
1.53603e-05
-1.77165e-07
1.5365e-05
-2.16968e-07
1.53704e-05
-2.65673e-07
1.53767e-05
-3.2531e-07
1.53841e-05
-3.98411e-07
1.53926e-05
-4.88117e-07
1.54026e-05
-5.98288e-07
1.54143e-05
-7.33642e-07
1.54279e-05
-8.99933e-07
1.54438e-05
-1.10419e-06
1.54621e-05
-1.3551e-06
1.54831e-05
-1.66342e-06
1.5507e-05
-2.04278e-06
1.55338e-05
-2.51048e-06
1.55634e-05
-3.08895e-06
1.55962e-05
-3.80893e-06
1.5631e-05
-4.70208e-06
-5.87058e-06
1.56769e-05
1.53335e-05
-3.46749e-09
1.5334e-05
-1.04349e-08
1.53348e-05
-1.76098e-08
1.53358e-05
-2.51773e-08
1.53369e-05
-3.33922e-08
1.53383e-05
-4.25734e-08
1.53397e-05
-5.31091e-08
1.53413e-05
-6.54746e-08
1.53429e-05
-8.02534e-08
1.53447e-05
-9.81471e-08
1.53466e-05
-1.19974e-07
1.53486e-05
-1.46678e-07
1.53508e-05
-1.79357e-07
1.53532e-05
-2.19334e-07
1.53558e-05
-2.68236e-07
1.53586e-05
-3.28091e-07
1.53616e-05
-4.01426e-07
1.53648e-05
-4.91372e-07
1.53683e-05
-6.01771e-07
1.5372e-05
-7.37309e-07
1.53757e-05
-9.03683e-07
1.53794e-05
-1.10784e-06
1.53826e-05
-1.35832e-06
1.53849e-05
-1.66568e-06
1.53853e-05
-2.04324e-06
1.53827e-05
-2.50785e-06
1.5375e-05
-3.08124e-06
1.53596e-05
-3.79355e-06
1.53319e-05
-4.67434e-06
-5.83023e-06
1.52915e-05
1.53335e-05
-3.59507e-09
1.53338e-05
-1.08126e-08
1.53344e-05
-1.81964e-08
1.53352e-05
-2.59119e-08
1.5336e-05
-3.42142e-08
1.53368e-05
-4.34378e-08
1.53377e-05
-5.3984e-08
1.53386e-05
-6.63312e-08
1.53394e-05
-8.10612e-08
1.53401e-05
-9.88747e-08
1.53407e-05
-1.20589e-07
1.53412e-05
-1.47141e-07
1.53415e-05
-1.79622e-07
1.53415e-05
-2.19343e-07
1.53411e-05
-2.67914e-07
1.53404e-05
-3.27339e-07
1.53391e-05
-4.00114e-07
1.5337e-05
-4.89325e-07
1.5334e-05
-5.9875e-07
1.53297e-05
-7.32987e-07
1.53236e-05
-8.9761e-07
1.53152e-05
-1.09939e-06
1.53034e-05
-1.3466e-06
1.52872e-05
-1.64943e-06
1.52646e-05
-2.02065e-06
1.52331e-05
-2.47632e-06
1.51888e-05
-3.03693e-06
1.51263e-05
-3.73106e-06
1.50373e-05
-4.58538e-06
-5.70491e-06
1.4912e-05
1.53334e-05
-3.69011e-09
1.53337e-05
-1.10912e-08
1.53341e-05
-1.86113e-08
1.53346e-05
-2.63931e-08
1.53351e-05
-3.46915e-08
1.53355e-05
-4.38564e-08
1.53358e-05
-5.4299e-08
1.5336e-05
-6.64945e-08
1.53359e-05
-8.10166e-08
1.53356e-05
-9.8558e-08
1.5335e-05
-1.19925e-07
1.53339e-05
-1.46041e-07
1.53322e-05
-1.77976e-07
1.53299e-05
-2.17014e-07
1.53267e-05
-2.64732e-07
1.53224e-05
-3.23089e-07
1.53169e-05
-3.94523e-07
1.53096e-05
-4.82039e-07
1.53001e-05
-5.89312e-07
1.52879e-05
-7.20798e-07
1.52722e-05
-8.81881e-07
1.52519e-05
-1.07907e-06
1.52256e-05
-1.32027e-06
1.51913e-05
-1.61516e-06
1.51464e-05
-1.97572e-06
1.5087e-05
-2.41692e-06
1.50076e-05
-2.95753e-06
1.49001e-05
-3.62364e-06
1.47531e-05
-4.43832e-06
-5.4991e-06
1.45473e-05
1.53334e-05
-3.75745e-09
1.53336e-05
-1.12842e-08
1.53339e-05
-1.88724e-08
1.53341e-05
-2.6638e-08
1.53342e-05
-3.48389e-08
1.53342e-05
-4.38434e-08
1.5334e-05
-5.40689e-08
1.53335e-05
-6.59803e-08
1.53326e-05
-8.0137e-08
1.53313e-05
-9.7217e-08
1.53294e-05
-1.18008e-07
1.53267e-05
-1.43408e-07
1.53232e-05
-1.74454e-07
1.53186e-05
-2.12392e-07
1.53126e-05
-2.58747e-07
1.53049e-05
-3.15415e-07
1.52951e-05
-3.84746e-07
1.52827e-05
-4.69635e-07
1.5267e-05
-5.73613e-07
1.52472e-05
-7.00947e-07
1.52221e-05
-8.56773e-07
1.51903e-05
-1.04726e-06
1.51499e-05
-1.27986e-06
1.50983e-05
-1.56358e-06
1.5032e-05
-1.90948e-06
1.49463e-05
-2.33114e-06
1.48339e-05
-2.84522e-06
1.46849e-05
-3.47456e-06
1.44845e-05
-4.238e-06
-5.22035e-06
1.42058e-05
1.53334e-05
-3.80324e-09
1.53335e-05
-1.14087e-08
1.53336e-05
-1.90018e-08
1.53337e-05
-2.66673e-08
1.53335e-05
-3.46749e-08
1.53331e-05
-4.34179e-08
1.53323e-05
-5.33147e-08
1.53311e-05
-6.48117e-08
1.53295e-05
-7.84484e-08
1.53271e-05
-9.48825e-08
1.5324e-05
-1.14875e-07
1.53199e-05
-1.39286e-07
1.53145e-05
-1.69113e-07
1.53077e-05
-2.05547e-07
1.5299e-05
-2.50047e-07
1.5288e-05
-3.04424e-07
1.52742e-05
-3.70919e-07
1.52568e-05
-4.52287e-07
1.52351e-05
-5.51877e-07
1.52079e-05
-6.73726e-07
1.51738e-05
-8.22665e-07
1.5131e-05
-1.00447e-06
1.50771e-05
-1.22604e-06
1.50092e-05
-1.49565e-06
1.4923e-05
-1.82325e-06
1.48127e-05
-2.22087e-06
1.46703e-05
-2.70277e-06
1.44837e-05
-3.28798e-06
1.42364e-05
-3.99071e-06
-4.87895e-06
1.3895e-05
1.53334e-05
-3.83547e-09
1.53334e-05
-1.14868e-08
1.53335e-05
-1.90264e-08
1.53333e-05
-2.65046e-08
1.53329e-05
-3.42209e-08
1.5332e-05
-4.2603e-08
1.53308e-05
-5.20628e-08
1.5329e-05
-6.30188e-08
1.53265e-05
-7.59858e-08
1.53232e-05
-9.15961e-08
1.53189e-05
-1.10575e-07
1.53134e-05
-1.33738e-07
1.53063e-05
-1.62027e-07
1.52973e-05
-1.96571e-07
1.5286e-05
-2.38746e-07
1.52719e-05
-2.90261e-07
1.52542e-05
-3.53223e-07
1.52321e-05
-4.30221e-07
1.52046e-05
-5.24391e-07
1.51704e-05
-6.39499e-07
1.51278e-05
-7.80031e-07
1.50746e-05
-9.51309e-07
1.50082e-05
-1.15963e-06
1.4925e-05
-1.41246e-06
1.48203e-05
-1.71857e-06
1.46878e-05
-2.08831e-06
1.45184e-05
-2.5334e-06
1.42992e-05
-3.06874e-06
1.40123e-05
-3.70382e-06
-4.48721e-06
1.36205e-05
1.53334e-05
-3.86512e-09
1.53334e-05
-1.15482e-08
1.53334e-05
-1.89789e-08
1.5333e-05
-2.61757e-08
1.53323e-05
-3.35007e-08
1.53312e-05
-4.14283e-08
1.53294e-05
-5.03481e-08
1.53271e-05
-6.06399e-08
1.53239e-05
-7.2792e-08
1.53197e-05
-8.74074e-08
1.53143e-05
-1.05168e-07
1.53074e-05
-1.26836e-07
1.52986e-05
-1.53289e-07
1.52876e-05
-1.85579e-07
1.52739e-05
-2.24987e-07
1.52567e-05
-2.73101e-07
1.52354e-05
-3.31878e-07
1.52089e-05
-4.03712e-07
1.5176e-05
-4.91499e-07
1.51352e-05
-5.98703e-07
1.50846e-05
-7.29426e-07
1.50218e-05
-8.88501e-07
1.49437e-05
-1.08159e-06
1.48465e-05
-1.31528e-06
1.47251e-05
-1.59716e-06
1.45727e-05
-1.93586e-06
1.43799e-05
-2.34058e-06
1.41332e-05
-2.82205e-06
1.38147e-05
-3.38534e-06
-4.05856e-06
1.3386e-05
1.53334e-05
-3.90806e-09
1.53335e-05
-1.16343e-08
1.53334e-05
-1.88955e-08
1.53329e-05
-2.57048e-08
1.5332e-05
-3.25459e-08
1.53305e-05
-3.99292e-08
1.53283e-05
-4.82016e-08
1.53254e-05
-5.77088e-08
1.53215e-05
-6.89142e-08
1.53165e-05
-8.23811e-08
1.531e-05
-9.87356e-08
1.53019e-05
-1.18676e-07
1.52916e-05
-1.43012e-07
1.52787e-05
-1.72707e-07
1.52627e-05
-2.08936e-07
1.52427e-05
-2.5315e-07
1.5218e-05
-3.07137e-07
1.51874e-05
-3.73076e-07
1.51494e-05
-4.53597e-07
1.51026e-05
-5.51833e-07
1.50446e-05
-6.71476e-07
1.4973e-05
-8.16842e-07
1.48843e-05
-9.9293e-07
1.47745e-05
-1.20547e-06
1.46382e-05
-1.46085e-06
1.44684e-05
-1.76605e-06
1.42557e-05
-2.1279e-06
1.39868e-05
-2.55322e-06
1.36448e-05
-3.04327e-06
-3.6065e-06
1.31927e-05
1.53334e-05
-3.98893e-09
1.53336e-05
-1.18017e-08
1.53335e-05
-1.88262e-08
1.53329e-05
-2.51242e-08
1.53318e-05
-3.13788e-08
1.533e-05
-3.81349e-08
1.53274e-05
-4.56679e-08
1.5324e-05
-5.4281e-08
1.53195e-05
-6.44131e-08
1.53137e-05
-7.65839e-08
1.53063e-05
-9.13564e-08
1.5297e-05
-1.09358e-07
1.52853e-05
-1.31321e-07
1.52707e-05
-1.58111e-07
1.52526e-05
-1.90786e-07
1.52301e-05
-2.30646e-07
1.52022e-05
-2.79291e-07
1.51678e-05
-3.3867e-07
1.51253e-05
-4.11126e-07
1.5073e-05
-4.99437e-07
1.50083e-05
-6.06865e-07
1.49287e-05
-7.37192e-07
1.48305e-05
-8.94753e-07
1.47095e-05
-1.08442e-06
1.45601e-05
-1.31149e-06
1.43754e-05
-1.58138e-06
1.41464e-05
-1.89884e-06
1.38604e-05
-2.26726e-06
1.35023e-05
-2.68513e-06
-3.14357e-06
1.30394e-05
1.53335e-05
-4.148e-09
1.53338e-05
-1.21328e-08
1.53338e-05
-1.88143e-08
1.53331e-05
-2.44564e-08
1.53318e-05
-3.004e-08
1.53298e-05
-3.60901e-08
1.53269e-05
-4.27863e-08
1.5323e-05
-5.04008e-08
1.53179e-05
-5.93471e-08
1.53114e-05
-7.00916e-08
1.53032e-05
-8.31239e-08
1.52928e-05
-9.89959e-08
1.52799e-05
-1.18355e-07
1.52637e-05
-1.41964e-07
1.52437e-05
-1.70746e-07
1.52189e-05
-2.05845e-07
1.51883e-05
-2.4866e-07
1.51505e-05
-3.0089e-07
1.51039e-05
-3.64571e-07
1.50466e-05
-4.42114e-07
1.49761e-05
-5.36331e-07
1.48893e-05
-6.50467e-07
1.47828e-05
-7.88202e-07
1.4652e-05
-9.53605e-07
1.44914e-05
-1.15094e-06
1.42943e-05
-1.38428e-06
1.40521e-05
-1.65664e-06
1.37535e-05
-1.96865e-06
1.33857e-05
-2.31734e-06
-2.68032e-06
1.29225e-05
1.53336e-05
-4.45921e-09
1.53343e-05
-1.27439e-08
1.53343e-05
-1.88918e-08
1.53336e-05
-2.37231e-08
1.53321e-05
-2.85758e-08
1.53299e-05
-3.38442e-08
1.53267e-05
-3.96086e-08
1.53224e-05
-4.61309e-08
1.53169e-05
-5.37915e-08
1.53098e-05
-6.29927e-08
1.53008e-05
-7.41424e-08
1.52895e-05
-8.77157e-08
1.52754e-05
-1.0427e-07
1.52579e-05
-1.24452e-07
1.52362e-05
-1.49048e-07
1.52094e-05
-1.7903e-07
1.51763e-05
-2.15585e-07
1.51356e-05
-2.60151e-07
1.50855e-05
-3.14445e-07
1.50239e-05
-3.80492e-07
1.49482e-05
-4.60646e-07
1.48553e-05
-5.57612e-07
1.47415e-05
-6.74437e-07
1.46024e-05
-8.14439e-07
1.44324e-05
-9.81005e-07
1.42252e-05
-1.17701e-06
1.39727e-05
-1.40418e-06
1.36652e-05
-1.66109e-06
1.32927e-05
-1.94493e-06
-2.22453e-06
1.28369e-05
1.53339e-05
-5.06494e-09
1.5335e-05
-1.38103e-08
1.53352e-05
-1.9056e-08
1.53344e-05
-2.29375e-08
1.53328e-05
-2.70201e-08
1.53304e-05
-3.14222e-08
1.5327e-05
-3.61664e-08
1.53224e-05
-4.1521e-08
1.53164e-05
-4.78148e-08
1.53088e-05
-5.53771e-08
1.52991e-05
-6.45218e-08
1.52871e-05
-7.56551e-08
1.5272e-05
-8.92327e-08
1.52534e-05
-1.05778e-07
1.52303e-05
-1.25938e-07
1.52017e-05
-1.50504e-07
1.51666e-05
-1.80441e-07
1.51233e-05
-2.16912e-07
1.50702e-05
-2.61304e-07
1.5005e-05
-3.15246e-07
1.49249e-05
-3.8063e-07
1.4827e-05
-4.59621e-07
1.47072e-05
-5.54658e-07
1.45611e-05
-6.68379e-07
1.43836e-05
-8.03464e-07
1.41683e-05
-9.61771e-07
1.39083e-05
-1.1441e-06
1.35948e-05
-1.34765e-06
1.32219e-05
-1.57197e-06
-1.78052e-06
1.27778e-05
1.53345e-05
-6.21984e-09
1.53362e-05
-1.55622e-08
1.53365e-05
-1.9313e-08
1.53358e-05
-2.21908e-08
1.53342e-05
-2.5444e-08
1.53316e-05
-2.88642e-08
1.5328e-05
-3.25109e-08
1.53231e-05
-3.66365e-08
1.53168e-05
-4.14939e-08
1.53087e-05
-4.73408e-08
1.52986e-05
-5.43684e-08
1.52859e-05
-6.29529e-08
1.527e-05
-7.34178e-08
1.52504e-05
-8.61615e-08
1.52262e-05
-1.01685e-07
1.51963e-05
-1.20596e-07
1.51595e-05
-1.43632e-07
1.51142e-05
-1.71674e-07
1.50587e-05
-2.05769e-07
1.49906e-05
-2.47145e-07
1.49072e-05
-2.97227e-07
1.48052e-05
-3.57646e-07
1.46808e-05
-4.30257e-07
1.45296e-05
-5.17124e-07
1.43466e-05
-6.20494e-07
1.41261e-05
-7.4131e-07
1.38618e-05
-8.79759e-07
1.35458e-05
-1.03172e-06
1.31764e-05
-1.2025e-06
-1.34882e-06
1.27447e-05
1.53355e-05
-8.41956e-09
1.53379e-05
-1.79358e-08
1.53382e-05
-1.95912e-08
1.53376e-05
-2.16094e-08
1.53361e-05
-2.38914e-08
1.53334e-05
-2.62045e-08
1.53296e-05
-2.87062e-08
1.53245e-05
-3.15596e-08
1.53179e-05
-3.49183e-08
1.53096e-05
-3.90089e-08
1.52991e-05
-4.38275e-08
1.52859e-05
-4.97795e-08
1.52695e-05
-5.70228e-08
1.52492e-05
-6.58407e-08
1.52241e-05
-7.6584e-08
1.51931e-05
-8.96715e-08
1.51551e-05
-1.05607e-07
1.51084e-05
-1.24992e-07
1.50512e-05
-1.48537e-07
1.49811e-05
-1.7708e-07
1.48955e-05
-2.11598e-07
1.47911e-05
-2.53222e-07
1.46641e-05
-3.0325e-07
1.45102e-05
-3.63291e-07
1.43251e-05
-4.35333e-07
1.4103e-05
-5.19274e-07
1.3838e-05
-6.14678e-07
1.35227e-05
-7.16413e-07
1.31565e-05
-8.3632e-07
-9.14385e-07
1.2722e-05
1.53392e-05
-1.43127e-08
1.53415e-05
-2.02112e-08
1.53414e-05
-1.95036e-08
1.53403e-05
-2.05043e-08
1.53382e-05
-2.17969e-08
1.5335e-05
-2.29954e-08
1.53306e-05
-2.42761e-08
1.53248e-05
-2.5743e-08
1.53173e-05
-2.74731e-08
1.53079e-05
-2.96122e-08
1.52962e-05
-3.20878e-08
1.52816e-05
-3.52002e-08
1.52636e-05
-3.89966e-08
1.52414e-05
-4.36336e-08
1.52141e-05
-4.93083e-08
1.51807e-05
-5.62537e-08
1.51398e-05
-6.47508e-08
1.509e-05
-7.51354e-08
1.50292e-05
-8.7805e-08
1.49554e-05
-1.03228e-07
1.48657e-05
-1.21949e-07
1.47571e-05
-1.44592e-07
1.46257e-05
-1.71821e-07
1.44665e-05
-2.04108e-07
1.42726e-05
-2.41419e-07
1.4038e-05
-2.84755e-07
1.37579e-05
-3.34548e-07
1.34295e-05
-3.88009e-07
1.30425e-05
-4.49349e-07
-4.27895e-07
1.25561e-05
1.5319e-05
1.52988e-05
1.52793e-05
1.52588e-05
1.5237e-05
1.5214e-05
1.51897e-05
1.5164e-05
1.51365e-05
1.51069e-05
1.50748e-05
1.50396e-05
1.50006e-05
1.4957e-05
1.49077e-05
1.48514e-05
1.47867e-05
1.47115e-05
1.46237e-05
1.45205e-05
1.43986e-05
1.4254e-05
1.40821e-05
1.3878e-05
1.36366e-05
1.33519e-05
1.30173e-05
1.26293e-05
1.218e-05
1.17521e-05
1.8163e-05
-8.48372e-06
8.71782e-06
1.79481e-05
-8.65913e-06
8.87408e-06
1.76905e-05
-8.83177e-06
9.08939e-06
1.73937e-05
-8.99343e-06
9.29015e-06
1.70654e-05
-9.15457e-06
9.48288e-06
1.67131e-05
-9.32074e-06
9.6731e-06
1.63413e-05
-9.4939e-06
9.86572e-06
1.59527e-05
-9.67517e-06
1.00637e-05
1.55488e-05
-9.86544e-06
1.02694e-05
1.51297e-05
-1.00652e-05
1.04843e-05
1.46949e-05
-1.02748e-05
1.07096e-05
1.42432e-05
-1.04944e-05
1.09461e-05
1.37737e-05
-1.07248e-05
1.11944e-05
1.3285e-05
-1.09669e-05
1.14555e-05
1.27764e-05
-1.12222e-05
1.17309e-05
1.22464e-05
-1.14926e-05
1.20225e-05
1.16937e-05
-1.17801e-05
1.23328e-05
1.11165e-05
-1.20876e-05
1.26648e-05
1.05123e-05
-1.24181e-05
1.30222e-05
9.8784e-06
-1.27757e-05
1.34097e-05
9.21079e-06
-1.31652e-05
1.38328e-05
8.5046e-06
-1.35926e-05
1.42988e-05
7.75338e-06
-1.40654e-05
1.48166e-05
6.94875e-06
-1.45933e-05
1.53979e-05
6.07865e-06
-1.51875e-05
1.60576e-05
5.12953e-06
-1.58653e-05
1.68145e-05
4.08506e-06
-1.66411e-05
1.76855e-05
2.86323e-06
-1.75728e-05
1.87946e-05
1.61474e-06
-1.85061e-05
1.97546e-05
-2.01589e-05
2.17736e-05
1.83625e-05
-8.22317e-06
1.806e-05
-8.35662e-06
1.77259e-05
-8.49776e-06
1.73733e-05
-8.64079e-06
1.70078e-05
-8.78907e-06
1.66319e-05
-8.94486e-06
1.62463e-05
-9.10824e-06
1.58501e-05
-9.279e-06
1.54419e-05
-9.45728e-06
1.50201e-05
-9.64337e-06
1.45829e-05
-9.83766e-06
1.41293e-05
-1.00408e-05
1.36581e-05
-1.02536e-05
1.31686e-05
-1.04774e-05
1.26597e-05
-1.07133e-05
1.21303e-05
-1.09632e-05
1.15789e-05
-1.12287e-05
1.10034e-05
-1.15121e-05
1.04015e-05
-1.18163e-05
9.77021e-06
-1.21444e-05
9.10556e-06
-1.25005e-05
8.40267e-06
-1.28897e-05
7.65517e-06
-1.33179e-05
6.85477e-06
-1.37929e-05
5.9906e-06
-1.43233e-05
5.04866e-06
-1.49234e-05
4.00921e-06
-1.56016e-05
2.83453e-06
-1.63981e-05
1.56265e-06
-1.72342e-05
-1.85962e-05
1.82432e-05
-7.91161e-06
1.79148e-05
-8.02818e-06
1.75718e-05
-8.15485e-06
1.72199e-05
-8.2888e-06
1.68597e-05
-8.42887e-06
1.64896e-05
-8.57482e-06
1.6108e-05
-8.72664e-06
1.57135e-05
-8.88451e-06
1.53051e-05
-9.04883e-06
1.48819e-05
-9.22015e-06
1.44433e-05
-9.39907e-06
1.39888e-05
-9.58629e-06
1.35178e-05
-9.78262e-06
1.30294e-05
-9.98901e-06
1.25226e-05
-1.02065e-05
1.1996e-05
-1.04365e-05
1.14478e-05
-1.06805e-05
1.08761e-05
-1.09404e-05
1.02784e-05
-1.12185e-05
9.65146e-06
-1.15175e-05
8.99154e-06
-1.18406e-05
8.29365e-06
-1.21918e-05
7.55152e-06
-1.25757e-05
6.75707e-06
-1.29985e-05
5.89985e-06
-1.34661e-05
4.9662e-06
-1.39897e-05
3.93799e-06
-1.45734e-05
2.78834e-06
-1.52485e-05
1.51549e-06
-1.59613e-05
-1.70807e-05
1.81293e-05
-7.58794e-06
1.77954e-05
-7.69425e-06
1.74501e-05
-7.80956e-06
1.70948e-05
-7.93347e-06
1.67293e-05
-8.06343e-06
1.63527e-05
-8.19816e-06
1.5964e-05
-8.33794e-06
1.55628e-05
-8.48338e-06
1.51489e-05
-8.63492e-06
1.47218e-05
-8.79299e-06
1.42807e-05
-8.95802e-06
1.3825e-05
-9.13059e-06
1.33537e-05
-9.31134e-06
1.28658e-05
-9.50106e-06
1.23599e-05
-9.70068e-06
1.18348e-05
-9.91132e-06
1.12885e-05
-1.01343e-05
1.07192e-05
-1.03711e-05
1.01243e-05
-1.06236e-05
9.50077e-06
-1.08939e-05
8.84467e-06
-1.11845e-05
8.1512e-06
-1.14984e-05
7.4143e-06
-1.18388e-05
6.62624e-06
-1.22104e-05
5.7772e-06
-1.26171e-05
4.85445e-06
-1.3067e-05
3.84154e-06
-1.35605e-05
2.71685e-06
-1.41238e-05
1.46317e-06
-1.47077e-05
-1.56176e-05
1.79804e-05
-7.25465e-06
1.76381e-05
-7.35201e-06
1.72857e-05
-7.45718e-06
1.69237e-05
-7.57144e-06
1.6552e-05
-7.69175e-06
1.61701e-05
-7.81623e-06
1.57773e-05
-7.94514e-06
1.53731e-05
-8.07922e-06
1.49571e-05
-8.21885e-06
1.45284e-05
-8.36431e-06
1.40863e-05
-8.51596e-06
1.363e-05
-8.67429e-06
1.31586e-05
-8.8399e-06
1.2671e-05
-9.01346e-06
1.2166e-05
-9.19572e-06
1.16423e-05
-9.38759e-06
1.10981e-05
-9.59009e-06
1.05314e-05
-9.8044e-06
9.93962e-06
-1.00319e-05
9.31977e-06
-1.02741e-05
8.66806e-06
-1.05328e-05
7.97985e-06
-1.08101e-05
7.24935e-06
-1.11083e-05
6.46928e-06
-1.14303e-05
5.63053e-06
-1.17783e-05
4.72146e-06
-1.21579e-05
3.72728e-06
-1.25663e-05
2.62905e-06
-1.30255e-05
1.40552e-06
-1.34841e-05
-1.4212e-05
1.77992e-05
-6.91353e-06
1.74501e-05
-7.00284e-06
1.70918e-05
-7.09895e-06
1.67246e-05
-7.20425e-06
1.63483e-05
-7.3154e-06
1.59622e-05
-7.43012e-06
1.55657e-05
-7.54865e-06
1.51583e-05
-7.6718e-06
1.47394e-05
-7.79995e-06
1.43084e-05
-7.9333e-06
1.38645e-05
-8.07213e-06
1.34071e-05
-8.21687e-06
1.29352e-05
-8.368e-06
1.24478e-05
-8.52604e-06
1.19436e-05
-8.69157e-06
1.14213e-05
-8.86526e-06
1.08791e-05
-9.04787e-06
1.03149e-05
-9.24024e-06
9.72637e-06
-9.44332e-06
9.11047e-06
-9.65817e-06
8.46361e-06
-9.88594e-06
7.78137e-06
-1.01279e-05
7.05834e-06
-1.03853e-05
6.28777e-06
-1.06598e-05
5.46136e-06
-1.09519e-05
4.56857e-06
-1.12651e-05
3.59629e-06
-1.1594e-05
2.52791e-06
-1.19572e-05
1.3421e-06
-1.22983e-05
-1.28699e-05
1.75852e-05
-6.56542e-06
1.72297e-05
-6.64736e-06
1.68659e-05
-6.73515e-06
1.64936e-05
-6.83198e-06
1.61126e-05
-6.93437e-06
1.57223e-05
-7.03979e-06
1.53221e-05
-7.14849e-06
1.49116e-05
-7.26129e-06
1.44902e-05
-7.37857e-06
1.40573e-05
-7.50041e-06
1.36122e-05
-7.62705e-06
1.31542e-05
-7.75879e-06
1.26822e-05
-7.89601e-06
1.21952e-05
-8.03908e-06
1.16921e-05
-8.18844e-06
1.11713e-05
-8.34453e-06
1.06313e-05
-8.50787e-06
1.00701e-05
-8.67899e-06
9.48525e-06
-8.85847e-06
8.87396e-06
-9.04688e-06
8.23283e-06
-9.24481e-06
7.55772e-06
-9.45279e-06
6.84363e-06
-9.67122e-06
6.08443e-06
-9.90057e-06
5.27264e-06
-1.01401e-05
4.39889e-06
-1.03914e-05
3.45176e-06
-1.06469e-05
2.41681e-06
-1.09222e-05
1.27478e-06
-1.11563e-05
-1.15952e-05
1.73384e-05
-6.21099e-06
1.69771e-05
-6.28614e-06
1.66083e-05
-6.36626e-06
1.62314e-05
-6.45512e-06
1.58462e-05
-6.54918e-06
1.54522e-05
-6.64581e-06
1.50489e-05
-6.7452e-06
1.46358e-05
-6.84819e-06
1.42124e-05
-6.95511e-06
1.3778e-05
-7.06599e-06
1.33319e-05
-7.18095e-06
1.28733e-05
-7.30024e-06
1.24014e-05
-7.42411e-06
1.19151e-05
-7.55281e-06
1.14133e-05
-7.68661e-06
1.08946e-05
-7.82577e-06
1.03572e-05
-7.97055e-06
9.79947e-06
-8.12123e-06
9.21901e-06
-8.27801e-06
8.6132e-06
-8.44107e-06
7.97886e-06
-8.61047e-06
7.3122e-06
-8.78614e-06
6.60868e-06
-8.9677e-06
5.86279e-06
-9.15468e-06
5.06794e-06
-9.34526e-06
4.21591e-06
-9.53936e-06
3.29702e-06
-9.728e-06
2.29889e-06
-9.92409e-06
1.20548e-06
-1.00629e-05
-1.03897e-05
1.70598e-05
-5.85086e-06
1.66934e-05
-5.91978e-06
1.632e-05
-5.99285e-06
1.5939e-05
-6.07418e-06
1.55502e-05
-6.16034e-06
1.5153e-05
-6.24863e-06
1.4747e-05
-6.33921e-06
1.43318e-05
-6.43291e-06
1.39066e-05
-6.52999e-06
1.34711e-05
-6.63043e-06
1.30244e-05
-6.73427e-06
1.25658e-05
-6.84167e-06
1.20945e-05
-6.95279e-06
1.16094e-05
-7.06774e-06
1.11095e-05
-7.18664e-06
1.05933e-05
-7.30958e-06
1.00593e-05
-7.43661e-06
9.50584e-06
-7.56773e-06
8.9307e-06
-7.70287e-06
8.33146e-06
-7.84182e-06
7.7052e-06
-7.98421e-06
7.04851e-06
-8.12944e-06
6.35732e-06
-8.27651e-06
5.62676e-06
-8.42412e-06
4.85115e-06
-8.56964e-06
4.02339e-06
-8.7116e-06
3.13552e-06
-8.84013e-06
2.17707e-06
-8.96564e-06
1.13565e-06
-9.02145e-06
-9.25403e-06
1.67513e-05
-5.48569e-06
1.63804e-05
-5.54891e-06
1.60031e-05
-5.61549e-06
1.56187e-05
-5.68976e-06
1.52267e-05
-5.76842e-06
1.48269e-05
-5.84884e-06
1.44188e-05
-5.93111e-06
1.40019e-05
-6.01601e-06
1.35757e-05
-6.10377e-06
1.31396e-05
-6.1943e-06
1.26929e-05
-6.28758e-06
1.22349e-05
-6.38367e-06
1.17647e-05
-6.48265e-06
1.12815e-05
-6.58451e-06
1.07841e-05
-6.68922e-06
1.02712e-05
-6.79673e-06
9.74151e-06
-6.90688e-06
9.19324e-06
-7.01947e-06
8.62451e-06
-7.13414e-06