/*--------------------------------*- C++ -*----------------------------------*\
  =========                 |
  \\      /  F ield         | OpenFOAM: The Open Source CFD Toolbox
   \\    /   O peration     | Website:  https://openfoam.org
    \\  /    A nd           | Version:  11
     \\/     M anipulation  |
\*---------------------------------------------------------------------------*/
FoamFile
{
    format      ascii;
    class       surfaceScalarField;
    location    "0.1";
    object      phi;
}
// * * * * * * * * * * * * * * * * * * * * * * * * * * * * * * * * * * * * * //

dimensions      [0 3 -1 0 0 0 0];

internalField   nonuniform List<scalar> 
24840
(
1.92233e-05
2.4827e-08
1.92266e-05
-3.34573e-09
1.92265e-05
1.44835e-10
1.92298e-05
-3.28154e-09
1.92345e-05
-4.76176e-09
1.92403e-05
-5.79738e-09
1.92471e-05
-6.78405e-09
1.9255e-05
-7.86363e-09
1.92641e-05
-9.11291e-09
1.92747e-05
-1.05929e-08
1.92871e-05
-1.23652e-08
1.93016e-05
-1.45005e-08
1.93186e-05
-1.70835e-08
1.93389e-05
-2.0219e-08
1.93629e-05
-2.4038e-08
1.93916e-05
-2.87053e-08
1.9426e-05
-3.44296e-08
1.94675e-05
-4.14763e-08
1.95177e-05
-5.01854e-08
1.95787e-05
-6.09951e-08
1.96532e-05
-7.44782e-08
1.97446e-05
-9.13958e-08
1.98574e-05
-1.1279e-07
1.99975e-05
-1.40153e-07
2.01733e-05
-1.75779e-07
2.03969e-05
-2.23588e-07
2.06883e-05
-2.91386e-07
2.10864e-05
-3.98113e-07
2.16885e-05
-6.02029e-07
-1.12442e-06
2.28129e-05
1.92645e-05
8.43585e-09
1.92638e-05
-2.6389e-09
1.92689e-05
-4.90994e-09
1.92733e-05
-7.67321e-09
1.92783e-05
-9.782e-09
1.92841e-05
-1.16347e-08
1.92909e-05
-1.35312e-08
1.92986e-05
-1.56499e-08
1.93077e-05
-1.81175e-08
1.93181e-05
-2.10465e-08
1.93303e-05
-2.45563e-08
1.93446e-05
-2.87847e-08
1.93614e-05
-3.38986e-08
1.93813e-05
-4.01045e-08
1.94049e-05
-4.76601e-08
1.94331e-05
-5.68903e-08
1.94669e-05
-6.82054e-08
1.95075e-05
-8.21277e-08
1.95567e-05
-9.93239e-08
1.96163e-05
-1.20653e-07
1.96891e-05
-1.4723e-07
1.97782e-05
-1.80529e-07
1.9888e-05
-2.22542e-07
2.00239e-05
-2.76062e-07
2.01933e-05
-3.45221e-07
2.04064e-05
-4.36615e-07
2.06768e-05
-5.61825e-07
2.1022e-05
-7.43265e-07
2.14466e-05
-1.02666e-06
-1.49334e-06
2.18155e-05
1.92584e-05
-1.86125e-09
1.92626e-05
-6.77292e-09
1.92674e-05
-9.70227e-09
1.92721e-05
-1.24306e-08
1.92773e-05
-1.49451e-08
1.92831e-05
-1.74478e-08
1.92897e-05
-2.01543e-08
1.92973e-05
-2.32419e-08
1.9306e-05
-2.68647e-08
1.93162e-05
-3.11764e-08
1.9328e-05
-3.63466e-08
1.93418e-05
-4.25751e-08
1.9358e-05
-5.0105e-08
1.93771e-05
-5.92374e-08
1.93998e-05
-7.03487e-08
1.94268e-05
-8.39127e-08
1.94591e-05
-1.00528e-07
1.9498e-05
-1.20954e-07
1.95448e-05
-1.46158e-07
1.96015e-05
-1.77383e-07
1.96705e-05
-2.16233e-07
1.97548e-05
-2.64802e-07
1.98582e-05
-3.25877e-07
1.99853e-05
-4.0325e-07
2.01424e-05
-5.02264e-07
2.03366e-05
-6.30782e-07
2.05756e-05
-8.00899e-07
2.0864e-05
-1.03161e-06
2.11881e-05
-1.35077e-06
-1.78565e-06
2.14804e-05
1.92557e-05
-9.4283e-09
1.92609e-05
-1.20024e-08
1.92658e-05
-1.46077e-08
1.92707e-05
-1.73077e-08
1.92759e-05
-2.0115e-08
1.92816e-05
-2.31472e-08
1.9288e-05
-2.65652e-08
1.92953e-05
-3.05354e-08
1.93036e-05
-3.5228e-08
1.93133e-05
-4.08277e-08
1.93245e-05
-4.7547e-08
1.93376e-05
-5.564e-08
1.93529e-05
-6.54179e-08
1.93709e-05
-7.72669e-08
1.93922e-05
-9.16698e-08
1.94175e-05
-1.09234e-07
1.94477e-05
-1.30725e-07
1.94839e-05
-1.57115e-07
1.95274e-05
-1.89636e-07
1.95799e-05
-2.29863e-07
1.96435e-05
-2.79816e-07
1.97208e-05
-3.42103e-07
1.9815e-05
-4.20124e-07
1.99301e-05
-5.1837e-07
2.00707e-05
-6.42854e-07
2.02417e-05
-8.01749e-07
2.0447e-05
-1.00617e-06
2.0686e-05
-1.27065e-06
2.09465e-05
-1.6112e-06
-2.0364e-06
2.11972e-05
1.92543e-05
-1.55693e-08
1.92595e-05
-1.72055e-08
1.92643e-05
-1.94604e-08
1.92691e-05
-2.21252e-08
1.92742e-05
-2.51596e-08
1.92797e-05
-2.86317e-08
1.92858e-05
-3.26683e-08
1.92927e-05
-3.74262e-08
1.93005e-05
-4.30856e-08
1.93095e-05
-4.98549e-08
1.932e-05
-5.79816e-08
1.93321e-05
-6.77656e-08
1.93463e-05
-7.95762e-08
1.93629e-05
-9.38725e-08
1.93824e-05
-1.11229e-07
1.94056e-05
-1.32365e-07
1.9433e-05
-1.58192e-07
1.94658e-05
-1.89857e-07
1.9505e-05
-2.28817e-07
1.9552e-05
-2.7692e-07
1.96087e-05
-3.36522e-07
1.96773e-05
-4.1063e-07
1.97602e-05
-5.03095e-07
1.98607e-05
-6.18858e-07
1.99821e-05
-7.64254e-07
2.01277e-05
-9.47326e-07
2.02995e-05
-1.17796e-06
2.04962e-05
-1.46729e-06
2.071e-05
-1.82506e-06
-2.25366e-06
2.09273e-05
1.92534e-05
-2.08095e-08
1.92582e-05
-2.20527e-08
1.92628e-05
-2.40844e-08
1.92674e-05
-2.67368e-08
1.92722e-05
-2.99604e-08
1.92774e-05
-3.38017e-08
1.92831e-05
-3.83694e-08
1.92895e-05
-4.38146e-08
1.92967e-05
-5.03246e-08
1.9305e-05
-5.81255e-08
1.93145e-05
-6.74922e-08
1.93255e-05
-7.87612e-08
1.93383e-05
-9.23487e-08
1.93532e-05
-1.08772e-07
1.93706e-05
-1.28679e-07
1.93912e-05
-1.52882e-07
1.94154e-05
-1.82403e-07
1.94441e-05
-2.18532e-07
1.94781e-05
-2.62899e-07
1.95188e-05
-3.17566e-07
1.95674e-05
-3.8514e-07
1.96257e-05
-4.68922e-07
1.96957e-05
-5.73075e-07
1.97797e-05
-7.02823e-07
1.98801e-05
-8.64647e-07
1.99991e-05
-1.06638e-06
2.01382e-05
-1.31702e-06
2.02967e-05
-1.62581e-06
2.04716e-05
-1.99992e-06
-2.44077e-06
2.06587e-05
1.92527e-05
-2.53709e-08
1.92571e-05
-2.64465e-08
1.92614e-05
-2.83624e-08
1.92657e-05
-3.10299e-08
1.92701e-05
-3.44171e-08
1.92749e-05
-3.85669e-08
1.92801e-05
-4.35814e-08
1.92859e-05
-4.96096e-08
1.92924e-05
-5.68438e-08
1.92998e-05
-6.55232e-08
1.93082e-05
-7.59423e-08
1.93179e-05
-8.84644e-08
1.93291e-05
-1.0354e-07
1.93421e-05
-1.2173e-07
1.93572e-05
-1.43735e-07
1.93747e-05
-1.70433e-07
1.93952e-05
-2.0293e-07
1.94193e-05
-2.42614e-07
1.94477e-05
-2.91239e-07
1.94811e-05
-3.51014e-07
1.95207e-05
-4.24721e-07
1.95676e-05
-5.15855e-07
1.96233e-05
-6.28783e-07
1.96894e-05
-7.68904e-07
1.97676e-05
-9.42786e-07
1.98594e-05
-1.15817e-06
1.9966e-05
-1.42367e-06
2.00882e-05
-1.74795e-06
2.02262e-05
-2.13796e-06
-2.59674e-06
2.03822e-05
1.92521e-05
-2.93495e-08
1.9256e-05
-3.03553e-08
1.92599e-05
-3.22216e-08
1.92638e-05
-3.49221e-08
1.92678e-05
-3.84486e-08
1.92721e-05
-4.28503e-08
1.92767e-05
-4.82285e-08
1.92818e-05
-5.47323e-08
1.92876e-05
-6.25575e-08
1.9294e-05
-7.19512e-08
1.93013e-05
-8.322e-08
1.93095e-05
-9.6744e-08
1.9319e-05
-1.12995e-07
1.93298e-05
-1.32561e-07
1.93423e-05
-1.56174e-07
1.93566e-05
-1.84752e-07
1.93731e-05
-2.19449e-07
1.93922e-05
-2.61711e-07
1.94143e-05
-3.13363e-07
1.944e-05
-3.76694e-07
1.94699e-05
-4.54585e-07
1.95047e-05
-5.50637e-07
1.95452e-05
-6.69328e-07
1.95925e-05
-8.16162e-07
1.96475e-05
-9.97789e-07
1.97113e-05
-1.22201e-06
1.97852e-05
-1.49754e-06
1.98707e-05
-1.83346e-06
1.99708e-05
-2.23801e-06
-2.71733e-06
2.00914e-05
1.92516e-05
-3.27868e-08
1.9255e-05
-3.37655e-08
1.92584e-05
-3.56159e-08
1.92618e-05
-3.83539e-08
1.92653e-05
-4.19925e-08
1.92691e-05
-4.65894e-08
1.92731e-05
-5.22482e-08
1.92775e-05
-5.91184e-08
1.92823e-05
-6.7397e-08
1.92877e-05
-7.73338e-08
1.92937e-05
-8.92404e-08
1.93005e-05
-1.03503e-07
1.93081e-05
-1.20602e-07
1.93167e-05
-1.41135e-07
1.93263e-05
-1.65844e-07
1.93372e-05
-1.9566e-07
1.93495e-05
-2.31749e-07
1.93634e-05
-2.75574e-07
1.9379e-05
-3.28973e-07
1.93966e-05
-3.94257e-07
1.94163e-05
-4.74323e-07
1.94385e-05
-5.72797e-07
1.94633e-05
-6.94181e-07
1.94912e-05
-8.44022e-07
1.95225e-05
-1.02904e-06
1.95577e-05
-1.25723e-06
1.95979e-05
-1.53776e-06
1.96452e-05
-1.88074e-06
1.97038e-05
-2.29664e-06
-2.79576e-06
1.97823e-05
1.9251e-05
-3.56999e-08
1.92539e-05
-3.66686e-08
1.92568e-05
-3.85156e-08
1.92598e-05
-4.12839e-08
1.92628e-05
-4.50023e-08
1.92659e-05
-4.97366e-08
1.92693e-05
-5.55926e-08
1.92729e-05
-6.27194e-08
1.92768e-05
-7.13122e-08
1.92811e-05
-8.16185e-08
1.92858e-05
-9.39472e-08
1.92909e-05
-1.08681e-07
1.92966e-05
-1.26296e-07
1.93029e-05
-1.4738e-07
1.93097e-05
-1.72666e-07
1.93171e-05
-2.03071e-07
1.93251e-05
-2.39736e-07
1.93336e-05
-2.84098e-07
1.93426e-05
-3.37958e-07
1.93519e-05
-4.03577e-07
1.93614e-05
-4.83798e-07
1.93708e-05
-5.82182e-07
1.93798e-05
-7.03169e-07
1.93881e-05
-8.52266e-07
1.93952e-05
-1.03624e-06
1.94013e-05
-1.26328e-06
1.94067e-05
-1.54317e-06
1.94134e-05
-1.88737e-06
1.94258e-05
-2.30908e-06
-2.82339e-06
1.94535e-05
1.92505e-05
-3.80962e-08
1.92529e-05
-3.90593e-08
1.92553e-05
-4.09019e-08
1.92577e-05
-4.36842e-08
1.92601e-05
-4.74461e-08
1.92627e-05
-5.22586e-08
1.92653e-05
-5.82289e-08
1.92681e-05
-6.55033e-08
1.9271e-05
-7.42722e-08
1.92742e-05
-8.47758e-08
1.92776e-05
-9.7313e-08
1.92811e-05
-1.12254e-07
1.92849e-05
-1.30055e-07
1.92888e-05
-1.51282e-07
1.92928e-05
-1.76636e-07
1.92967e-05
-2.0699e-07
1.93004e-05
-2.43433e-07
1.93036e-05
-2.87327e-07
1.9306e-05
-3.40385e-07
1.93072e-05
-4.04756e-07
1.93066e-05
-4.83147e-07
1.93034e-05
-5.78964e-07
1.92967e-05
-6.96483e-07
1.92855e-05
-8.41067e-07
1.92687e-05
-1.01941e-06
1.92452e-05
-1.23985e-06
1.92148e-05
-1.51272e-06
1.91783e-05
-1.85082e-06
1.91393e-05
-2.27008e-06
-2.79053e-06
1.91064e-05
1.925e-05
-3.99802e-08
1.92519e-05
-4.09354e-08
1.92537e-05
-4.27646e-08
1.92556e-05
-4.55387e-08
1.92575e-05
-4.93042e-08
1.92593e-05
-5.41354e-08
1.92612e-05
-6.01382e-08
1.92632e-05
-6.74541e-08
1.92652e-05
-7.62652e-08
1.92672e-05
-8.67994e-08
1.92692e-05
-9.93389e-08
1.92712e-05
-1.14231e-07
1.9273e-05
-1.31904e-07
1.92746e-05
-1.52883e-07
1.92758e-05
-1.77818e-07
1.92764e-05
-2.07514e-07
1.92759e-05
-2.42974e-07
1.9274e-05
-2.85447e-07
1.92701e-05
-3.36504e-07
1.92635e-05
-3.98118e-07
1.92531e-05
-4.72781e-07
1.92378e-05
-5.63645e-07
1.92161e-05
-6.74707e-07
1.9186e-05
-8.11045e-07
1.91458e-05
-9.79122e-07
1.90931e-05
-1.1872e-06
1.90263e-05
-1.4459e-06
1.89445e-05
-1.76903e-06
1.88492e-05
-2.17478e-06
-2.68759e-06
1.87463e-05
1.92495e-05
-4.13576e-08
1.92509e-05
-4.22988e-08
1.92522e-05
-4.41007e-08
1.92535e-05
-4.68405e-08
1.92548e-05
-5.05685e-08
1.9256e-05
-5.53592e-08
1.92572e-05
-6.13155e-08
1.92583e-05
-6.85716e-08
1.92593e-05
-7.72977e-08
1.92602e-05
-8.77051e-08
1.92609e-05
-1.00053e-07
1.92613e-05
-1.14659e-07
1.92614e-05
-1.3191e-07
1.92607e-05
-1.52278e-07
1.92593e-05
-1.76346e-07
1.92566e-05
-2.04826e-07
1.92522e-05
-2.38604e-07
1.92456e-05
-2.78782e-07
1.92358e-05
-3.26737e-07
1.92219e-05
-3.84204e-07
1.92025e-05
-4.5338e-07
1.91759e-05
-5.37064e-07
1.914e-05
-6.38839e-07
1.90923e-05
-7.63326e-07
1.90297e-05
-9.16527e-07
1.89489e-05
-1.10632e-06
1.88461e-05
-1.34316e-06
1.87183e-05
-1.64118e-06
1.85634e-05
-2.01987e-06
-2.50669e-06
1.83825e-05
1.9249e-05
-4.22369e-08
1.92499e-05
-4.3156e-08
1.92507e-05
-4.49141e-08
1.92514e-05
-4.75917e-08
1.92521e-05
-5.12404e-08
1.92527e-05
-5.59334e-08
1.92531e-05
-6.17682e-08
1.92534e-05
-6.88697e-08
1.92535e-05
-7.73931e-08
1.92533e-05
-8.7529e-08
1.92528e-05
-9.95088e-08
1.92517e-05
-1.13612e-07
1.925e-05
-1.30177e-07
1.92473e-05
-1.49612e-07
1.92434e-05
-1.72413e-07
1.92378e-05
-1.99184e-07
1.92298e-05
-2.30667e-07
1.92188e-05
-2.6778e-07
1.92038e-05
-3.11666e-07
1.91833e-05
-3.63761e-07
1.91558e-05
-4.25892e-07
1.91192e-05
-5.00396e-07
1.90706e-05
-5.90307e-07
1.90069e-05
-6.99596e-07
1.89239e-05
-8.33532e-07
1.88168e-05
-9.99204e-07
1.868e-05
-1.20631e-06
1.85072e-05
-1.46837e-06
1.8292e-05
-1.80471e-06
-2.24358e-06
1.80289e-05
1.92485e-05
-4.26308e-08
1.92489e-05
-4.35188e-08
1.92492e-05
-4.52149e-08
1.92494e-05
-4.78016e-08
1.92495e-05
-5.13302e-08
1.92494e-05
-5.58711e-08
1.92492e-05
-6.1515e-08
1.92487e-05
-6.83751e-08
1.92478e-05
-7.65895e-08
1.92466e-05
-8.6325e-08
1.92449e-05
-9.77805e-08
1.92425e-05
-1.11193e-07
1.92392e-05
-1.26844e-07
1.92346e-05
-1.45069e-07
1.92285e-05
-1.66266e-07
1.92202e-05
-1.90914e-07
1.92091e-05
-2.19591e-07
1.91944e-05
-2.53002e-07
1.91747e-05
-2.92017e-07
1.91487e-05
-3.37724e-07
1.91143e-05
-3.91503e-07
1.9069e-05
-4.55139e-07
1.90097e-05
-5.3097e-07
1.89322e-05
-6.22123e-07
1.88315e-05
-7.32841e-07
1.87013e-05
-8.68988e-07
1.85338e-05
-1.03881e-06
1.83196e-05
-1.25415e-06
1.80473e-05
-1.53236e-06
-1.89957e-06
1.77033e-05
1.92481e-05
-4.25571e-08
1.92479e-05
-4.34041e-08
1.92477e-05
-4.50195e-08
1.92474e-05
-4.74865e-08
1.92469e-05
-5.08559e-08
1.92463e-05
-5.51941e-08
1.92453e-05
-6.0584e-08
1.92441e-05
-6.71256e-08
1.92424e-05
-7.49382e-08
1.92403e-05
-8.41621e-08
1.92374e-05
-9.49612e-08
1.92338e-05
-1.07526e-07
1.9229e-05
-1.22077e-07
1.92228e-05
-1.38869e-07
1.92147e-05
-1.58195e-07
1.92042e-05
-1.80398e-07
1.91905e-05
-2.05876e-07
1.91726e-05
-2.351e-07
1.91492e-05
-2.68638e-07
1.91187e-05
-3.07185e-07
1.90788e-05
-3.5162e-07
1.90268e-05
-4.0308e-07
1.89589e-05
-4.6309e-07
1.88705e-05
-5.3374e-07
1.87556e-05
-6.17969e-07
1.86066e-05
-7.19992e-07
1.84138e-05
-8.4594e-07
1.81645e-05
-1.00486e-06
1.78425e-05
-1.21037e-06
-1.4832e-06
1.74262e-05
1.92476e-05
-4.20384e-08
1.9247e-05
-4.28339e-08
1.92464e-05
-4.43493e-08
1.92455e-05
-4.66685e-08
1.92445e-05
-4.98415e-08
1.92433e-05
-5.39309e-08
1.92417e-05
-5.90109e-08
1.92397e-05
-6.51676e-08
1.92373e-05
-7.25001e-08
1.92342e-05
-8.11211e-08
1.92304e-05
-9.11577e-08
1.92257e-05
-1.02752e-07
1.92196e-05
-1.16061e-07
1.9212e-05
-1.31256e-07
1.92023e-05
-1.48521e-07
1.919e-05
-1.68057e-07
1.91742e-05
-1.90072e-07
1.91539e-05
-2.14794e-07
1.91277e-05
-2.42466e-07
1.90939e-05
-2.73364e-07
1.90501e-05
-3.07818e-07
1.89933e-05
-3.46256e-07
1.89195e-05
-3.89278e-07
1.88235e-05
-4.37785e-07
1.86987e-05
-4.93176e-07
1.85364e-05
-5.57654e-07
1.83252e-05
-6.34676e-07
1.80499e-05
-7.29613e-07
1.76903e-05
-8.50756e-07
-1.01076e-06
1.72179e-05
1.92472e-05
-4.11029e-08
1.92462e-05
-4.18359e-08
1.92451e-05
-4.32313e-08
1.92438e-05
-4.53745e-08
1.92422e-05
-4.83163e-08
1.92404e-05
-5.21156e-08
1.92382e-05
-5.68376e-08
1.92356e-05
-6.25543e-08
1.92325e-05
-6.93438e-08
1.92286e-05
-7.72909e-08
1.9224e-05
-8.64857e-08
1.92182e-05
-9.70219e-08
1.92112e-05
-1.08993e-07
1.92024e-05
-1.22488e-07
1.91915e-05
-1.37582e-07
1.91777e-05
-1.54332e-07
1.91604e-05
-1.7276e-07
1.91385e-05
-1.92842e-07
1.91105e-05
-2.14495e-07
1.90747e-05
-2.3756e-07
1.90287e-05
-2.61796e-07
1.89693e-05
-2.86874e-07
1.88924e-05
-3.12406e-07
1.87927e-05
-3.3799e-07
1.86628e-05
-3.63314e-07
1.84935e-05
-3.8832e-07
1.82722e-05
-4.13418e-07
1.79824e-05
-4.39747e-07
1.7601e-05
-4.69388e-07
-5.0527e-07
1.70955e-05
1.92468e-05
-3.97849e-08
1.92454e-05
-4.04428e-08
1.92439e-05
-4.16964e-08
1.92421e-05
-4.36354e-08
1.92401e-05
-4.63132e-08
1.92378e-05
-4.97858e-08
1.92351e-05
-5.411e-08
1.92318e-05
-5.93429e-08
1.9228e-05
-6.55422e-08
1.92235e-05
-7.27652e-08
1.92181e-05
-8.10661e-08
1.92116e-05
-9.0492e-08
1.92036e-05
-1.01076e-07
1.9194e-05
-1.12828e-07
1.91821e-05
-1.25721e-07
1.91675e-05
-1.39672e-07
1.91492e-05
-1.54525e-07
1.91264e-05
-1.70014e-07
1.90976e-05
-1.85736e-07
1.90612e-05
-2.01105e-07
1.90147e-05
-2.15303e-07
1.89551e-05
-2.27241e-07
1.88782e-05
-2.35506e-07
1.87785e-05
-2.38339e-07
1.86489e-05
-2.3363e-07
1.84795e-05
-2.18932e-07
1.82575e-05
-1.91472e-07
1.79658e-05
-1.48031e-07
1.75809e-05
-8.44294e-08
6.09364e-09
1.70695e-05
1.92465e-05
-3.81253e-08
1.92447e-05
-3.86926e-08
1.92428e-05
-3.97794e-08
1.92406e-05
-4.14846e-08
1.92382e-05
-4.38672e-08
1.92354e-05
-4.69815e-08
1.92321e-05
-5.08758e-08
1.92284e-05
-5.55928e-08
1.9224e-05
-6.11701e-08
1.92189e-05
-6.76386e-08
1.92128e-05
-7.50193e-08
1.92057e-05
-8.33165e-08
1.91971e-05
-9.25084e-08
1.91868e-05
-1.02533e-07
1.91743e-05
-1.13269e-07
1.91592e-05
-1.2451e-07
1.91406e-05
-1.35935e-07
1.91176e-05
-1.47057e-07
1.90891e-05
-1.57176e-07
1.90533e-05
-1.65301e-07
1.90081e-05
-1.70072e-07
1.89505e-05
-1.69655e-07
1.88766e-05
-1.61633e-07
1.87812e-05
-1.42893e-07
1.8657e-05
-1.09513e-07
1.84948e-05
-5.66573e-08
1.82817e-05
2.15665e-08
1.80013e-05
1.32449e-07
1.76312e-05
2.85647e-07
4.95871e-07
1.71414e-05
1.92462e-05
-3.61734e-08
1.92441e-05
-3.66289e-08
1.92418e-05
-3.75177e-08
1.92393e-05
-3.89562e-08
1.92365e-05
-4.10132e-08
1.92332e-05
-4.37423e-08
1.92295e-05
-4.7183e-08
1.92253e-05
-5.13633e-08
1.92204e-05
-5.63011e-08
1.92148e-05
-6.20036e-08
1.92082e-05
-6.84616e-08
1.92005e-05
-7.56424e-08
1.91915e-05
-8.34765e-08
1.91808e-05
-9.18409e-08
1.91681e-05
-1.00535e-07
1.91528e-05
-1.09247e-07
1.91344e-05
-1.17514e-07
1.9112e-05
-1.24661e-07
1.90846e-05
-1.29727e-07
1.90506e-05
-1.31368e-07
1.90083e-05
-1.27734e-07
1.89549e-05
-1.16309e-07
1.88871e-05
-9.37373e-08
1.87998e-05
-5.56104e-08
1.86865e-05
3.74527e-09
1.85384e-05
9.14742e-08
1.83436e-05
2.16397e-07
1.80867e-05
3.89344e-07
1.77483e-05
6.2408e-07
9.40229e-07
1.73039e-05
1.92459e-05
-3.39902e-08
1.92436e-05
-3.43012e-08
1.9241e-05
-3.49496e-08
1.92382e-05
-3.60832e-08
1.92349e-05
-3.77846e-08
1.92313e-05
-4.01066e-08
1.92272e-05
-4.3078e-08
1.92225e-05
-4.67114e-08
1.92172e-05
-5.10061e-08
1.92112e-05
-5.59474e-08
1.92042e-05
-6.15012e-08
1.91962e-05
-6.76041e-08
1.91868e-05
-7.41492e-08
1.9176e-05
-8.09656e-08
1.91632e-05
-8.77907e-08
1.91482e-05
-9.42323e-08
1.91304e-05
-9.97178e-08
1.91092e-05
-1.03425e-07
1.90836e-05
-1.04188e-07
1.90527e-05
-1.00378e-07
1.90147e-05
-8.9739e-08
1.89675e-05
-6.91792e-08
1.89083e-05
-3.45151e-08
1.88329e-05
1.98357e-08
1.87354e-05
1.01184e-07
1.86081e-05
2.18869e-07
1.844e-05
3.84454e-07
1.82176e-05
6.11797e-07
1.79243e-05
9.17307e-07
1.32192e-06
1.75427e-05
1.92458e-05
-3.16549e-08
1.92433e-05
-3.17642e-08
1.92404e-05
-3.21112e-08
1.92372e-05
-3.28936e-08
1.92336e-05
-3.42102e-08
1.92296e-05
-3.61088e-08
1.92252e-05
-3.86041e-08
1.92201e-05
-4.16909e-08
1.92145e-05
-4.53506e-08
1.92081e-05
-4.95498e-08
1.92008e-05
-5.42347e-08
1.91925e-05
-5.93195e-08
1.9183e-05
-6.46708e-08
1.91722e-05
-7.00857e-08
1.91596e-05
-7.52607e-08
1.91451e-05
-7.97511e-08
1.91283e-05
-8.29138e-08
1.91088e-05
-8.38301e-08
1.90858e-05
-8.11996e-08
1.90586e-05
-7.31969e-08
1.90261e-05
-5.72766e-08
1.89869e-05
-2.99144e-08
1.89386e-05
1.37293e-08
1.88782e-05
8.0228e-08
1.88011e-05
1.78362e-07
1.87004e-05
3.19556e-07
1.85668e-05
5.1808e-07
1.83879e-05
7.90684e-07
1.81497e-05
1.15551e-06
1.63156e-06
1.78401e-05
1.92458e-05
-2.92782e-08
1.92431e-05
-2.90753e-08
1.924e-05
-2.90303e-08
1.92365e-05
-2.94064e-08
1.92326e-05
-3.03115e-08
1.92282e-05
-3.17786e-08
1.92234e-05
-3.38004e-08
1.92181e-05
-3.63512e-08
1.92121e-05
-3.93944e-08
1.92055e-05
-4.28817e-08
1.9198e-05
-4.67454e-08
1.91895e-05
-5.08864e-08
1.918e-05
-5.51573e-08
1.91693e-05
-5.93397e-08
1.91571e-05
-6.31128e-08
1.91434e-05
-6.60105e-08
1.91278e-05
-6.73628e-08
1.91102e-05
-6.62136e-08
1.90902e-05
-6.12073e-08
1.90675e-05
-5.04309e-08
1.90414e-05
-3.11949e-08
1.90112e-05
2.7079e-10
1.89757e-05
4.9229e-08
1.8933e-05
1.2298e-07
1.88798e-05
2.31529e-07
1.88111e-05
3.88277e-07
1.87188e-05
6.10403e-07
1.85913e-05
9.18176e-07
1.84148e-05
1.332e-06
1.86715e-06
1.81792e-05
1.92459e-05
-2.70324e-08
1.92431e-05
-2.62806e-08
1.92398e-05
-2.57148e-08
1.9236e-05
-2.56245e-08
1.92318e-05
-2.60997e-08
1.92271e-05
-2.71392e-08
1.9222e-05
-2.87021e-08
1.92164e-05
-3.07371e-08
1.92102e-05
-3.31908e-08
1.92033e-05
-3.6004e-08
1.91957e-05
-3.91018e-08
1.91872e-05
-4.23811e-08
1.91777e-05
-4.56934e-08
1.91672e-05
-4.88223e-08
1.91555e-05
-5.14532e-08
1.91426e-05
-5.3132e-08
1.91285e-05
-5.32071e-08
1.9113e-05
-5.07483e-08
1.90962e-05
-4.44329e-08
1.90782e-05
-3.23829e-08
1.90589e-05
-1.19333e-08
1.90385e-05
2.0701e-08
1.90168e-05
7.09026e-08
1.89935e-05
1.46327e-07
1.89672e-05
2.5782e-07
1.89349e-05
4.20544e-07
1.88904e-05
6.54975e-07
1.8822e-05
9.86571e-07
1.87128e-05
1.4412e-06
2.03224e-06
1.85477e-05
1.92463e-05
-2.52215e-08
1.92434e-05
-2.33667e-08
1.92398e-05
-2.21346e-08
1.92357e-05
-2.15277e-08
1.92312e-05
-2.15733e-08
1.92262e-05
-2.22082e-08
1.92209e-05
-2.33408e-08
1.9215e-05
-2.48898e-08
1.92086e-05
-2.67872e-08
1.92016e-05
-2.89677e-08
1.91938e-05
-3.13572e-08
1.91853e-05
-3.38578e-08
1.91759e-05
-3.63321e-08
1.91657e-05
-3.85828e-08
1.91546e-05
-4.03249e-08
1.91426e-05
-4.11482e-08
1.91299e-05
-4.04647e-08
1.91165e-05
-3.7434e-08
1.9103e-05
-3.08567e-08
1.90896e-05
-1.90193e-08
1.90771e-05
5.32839e-10
1.90665e-05
3.1334e-08
1.90589e-05
7.85099e-08
1.90557e-05
1.49558e-07
1.9058e-05
2.55539e-07
1.90657e-05
4.12825e-07
1.90753e-05
6.4537e-07
1.90755e-05
9.86408e-07
1.90419e-05
1.47481e-06
2.13276e-06
1.89414e-05
1.92474e-05
-2.4458e-08
1.92441e-05
-2.00928e-08
1.92402e-05
-1.82062e-08
1.92357e-05
-1.70672e-08
1.92308e-05
-1.67187e-08
1.92256e-05
-1.7e-08
1.922e-05
-1.77476e-08
1.9214e-05
-1.88487e-08
1.92074e-05
-2.02258e-08
1.92002e-05
-2.18154e-08
1.91924e-05
-2.3551e-08
1.91839e-05
-2.53493e-08
1.91747e-05
-2.70958e-08
1.91647e-05
-2.86273e-08
1.91541e-05
-2.97092e-08
1.9143e-05
-3.00048e-08
1.91315e-05
-2.90314e-08
1.91202e-05
-2.60979e-08
1.91096e-05
-2.02142e-08
1.91005e-05
-9.95824e-09
1.90943e-05
6.72533e-09
1.90928e-05
3.28347e-08
1.90985e-05
7.28031e-08
1.91148e-05
1.33308e-07
1.91457e-05
2.24645e-07
1.91954e-05
3.63132e-07
1.92655e-05
5.75261e-07
1.93478e-05
9.04118e-07
1.94082e-05
1.41444e-06
2.17057e-06
1.93704e-05
1.92498e-05
-2.61377e-08
1.92451e-05
-1.54305e-08
1.92408e-05
-1.38606e-08
1.92359e-05
-1.21659e-08
1.92307e-05
-1.15134e-08
1.92252e-05
-1.15322e-08
1.92194e-05
-1.19576e-08
1.92132e-05
-1.26541e-08
1.92065e-05
-1.35464e-08
1.91993e-05
-1.45819e-08
1.91914e-05
-1.57101e-08
1.9183e-05
-1.68701e-08
1.91738e-05
-1.79797e-08
1.91641e-05
-1.89226e-08
1.9154e-05
-1.95322e-08
1.91435e-05
-1.95694e-08
1.91332e-05
-1.86915e-08
1.91235e-05
-1.64071e-08
1.91153e-05
-1.20102e-08
1.91098e-05
-4.48191e-09
1.91089e-05
7.66096e-09
1.91151e-05
2.66059e-08
1.91323e-05
5.56425e-08
1.91657e-05
9.98597e-08
1.92229e-05
1.67451e-07
1.93137e-05
2.7236e-07
1.94489e-05
4.4004e-07
1.96324e-05
7.20656e-07
1.98291e-05
1.21774e-06
2.12257e-06
1.98771e-05
1.92557e-05
-3.37184e-08
1.9246e-05
-5.73036e-09
1.92417e-05
-9.573e-09
1.92362e-05
-6.68314e-09
1.92306e-05
-5.93407e-09
1.92249e-05
-5.83802e-09
1.9219e-05
-6.01691e-09
1.92127e-05
-6.35045e-09
1.92059e-05
-6.78749e-09
1.91986e-05
-7.29704e-09
1.91908e-05
-7.85164e-09
1.91823e-05
-8.41919e-09
1.91733e-05
-8.95679e-09
1.91638e-05
-9.40402e-09
1.91539e-05
-9.67449e-09
1.9144e-05
-9.64436e-09
1.91344e-05
-9.13597e-09
1.91259e-05
-7.89435e-09
1.91195e-05
-5.55251e-09
1.91166e-05
-1.57908e-09
1.91194e-05
4.80306e-09
1.91313e-05
1.47486e-08
1.91569e-05
3.00147e-08
1.92034e-05
5.33732e-08
1.92814e-05
8.94405e-08
1.94072e-05
1.46564e-07
1.96055e-05
2.41795e-07
1.99097e-05
4.16451e-07
2.03326e-05
7.94827e-07
1.84507e-06
2.06101e-05
1.92144e-05
1.92087e-05
1.91991e-05
1.91924e-05
1.91865e-05
1.91806e-05
1.91746e-05
1.91683e-05
1.91615e-05
1.91542e-05
1.91463e-05
1.91379e-05
1.9129e-05
1.91196e-05
1.91099e-05
1.91002e-05
1.90911e-05
1.90832e-05
1.90777e-05
1.90761e-05
1.90809e-05
1.90956e-05
1.91256e-05
1.9179e-05
1.92685e-05
1.9415e-05
1.96568e-05
2.00733e-05
2.08681e-05
2.27132e-05
2.42015e-05
-1.11196e-05
9.73092e-06
2.39505e-05
-9.95555e-06
1.02066e-05
2.33621e-05
-9.66782e-06
1.02561e-05
2.26893e-05
-9.61969e-06
1.02925e-05
2.19927e-05
-9.6484e-06
1.0345e-05
2.12875e-05
-9.71064e-06
1.04159e-05
2.0575e-05
-9.78703e-06
1.04995e-05
1.98542e-05
-9.87065e-06
1.05915e-05
1.91243e-05
-9.9592e-06
1.0689e-05
1.83853e-05
-1.00521e-05
1.0791e-05
1.76376e-05
-1.01494e-05
1.08971e-05
1.68817e-05
-1.02515e-05
1.10074e-05
1.61181e-05
-1.0359e-05
1.11226e-05
1.53475e-05
-1.04728e-05
1.12434e-05
1.457e-05
-1.05937e-05
1.13711e-05
1.37859e-05
-1.07229e-05
1.15071e-05
1.29948e-05
-1.08619e-05
1.1653e-05
1.2196e-05
-1.10123e-05
1.18111e-05
1.13885e-05
-1.11762e-05
1.19837e-05
1.05703e-05
-1.1356e-05
1.21741e-05
9.73893e-06
-1.15545e-05
1.2386e-05
8.89046e-06
-1.17753e-05
1.26238e-05
8.01948e-06
-1.20223e-05
1.28933e-05
7.11827e-06
-1.23e-05
1.32012e-05
6.17575e-06
-1.26134e-05
1.35559e-05
5.17589e-06
-1.29676e-05
1.39675e-05
4.09497e-06
-1.3367e-05
1.44479e-05
2.896e-06
-1.38125e-05
1.50114e-05
1.51508e-06
-1.42987e-05
1.56796e-05
-1.51771e-05
1.66922e-05
2.076e-05
-1.00641e-05
2.03019e-05
-9.49742e-06
1.99412e-05
-9.30717e-06
1.94928e-05
-9.17124e-06
1.89666e-05
-9.12223e-06
1.83976e-05
-9.14161e-06
1.78108e-05
-9.20017e-06
1.72187e-05
-9.27863e-06
1.66262e-05
-9.36667e-06
1.60338e-05
-9.45963e-06
1.54403e-05
-9.55588e-06
1.48441e-05
-9.65533e-06
1.42437e-05
-9.75853e-06
1.36373e-05
-9.86637e-06
1.30235e-05
-9.97987e-06
1.24007e-05
-1.01002e-05
1.17673e-05
-1.02285e-05
1.11213e-05
-1.03663e-05
1.04602e-05
-1.05151e-05
9.78097e-06
-1.06767e-05
9.0796e-06
-1.08532e-05
8.35093e-06
-1.10467e-05
7.58812e-06
-1.12595e-05
6.78211e-06
-1.1494e-05
5.92071e-06
-1.1752e-05
4.98735e-06
-1.20342e-05
3.95906e-06
-1.23387e-05
2.80296e-06
-1.26564e-05
1.47303e-06
-1.29687e-05
-1.3704e-05
2.06385e-05
-9.22209e-06
1.99954e-05
-8.8543e-06
1.95608e-05
-8.87259e-06
1.91947e-05
-8.80511e-06
1.87995e-05
-8.72706e-06
1.83428e-05
-8.68495e-06
1.78285e-05
-8.68589e-06
1.72722e-05
-8.72228e-06
1.6689e-05
-8.78349e-06
1.60901e-05
-8.86068e-06
1.54821e-05
-8.94789e-06
1.48684e-05
-9.04167e-06
1.42503e-05
-9.14038e-06
1.36274e-05
-9.24352e-06
1.29988e-05
-9.35131e-06
1.2363e-05
-9.46435e-06
1.1718e-05
-9.58351e-06
1.10616e-05
-9.7098e-06
1.03908e-05
-9.84433e-06
9.70239e-06
-9.98831e-06
8.99215e-06
-1.01429e-05
8.25483e-06
-1.03093e-05
7.48373e-06
-1.04884e-05
6.67025e-06
-1.06805e-05
5.80317e-06
-1.08849e-05
4.86772e-06
-1.10988e-05
3.84421e-06
-1.13152e-05
2.70616e-06
-1.15183e-05
1.42002e-06
-1.16826e-05
-1.2284e-05
2.04932e-05
-8.5181e-06
1.98246e-05
-8.1857e-06
1.92532e-05
-8.30114e-06
1.8786e-05
-8.3379e-06
1.83747e-05
-8.31577e-06
1.79675e-05
-8.27777e-06
1.75322e-05
-8.25052e-06
1.70562e-05
-8.24628e-06
1.65399e-05
-8.26723e-06
1.59897e-05
-8.31045e-06
1.54131e-05
-8.37133e-06
1.48169e-05
-8.44546e-06
1.42059e-05
-8.52942e-06
1.35833e-05
-8.62086e-06
1.29504e-05
-8.71842e-06
1.23075e-05
-8.82145e-06
1.16538e-05
-8.92982e-06
1.09877e-05
-9.04371e-06
1.03069e-05
-9.16351e-06
9.60824e-06
-9.28963e-06
8.88775e-06
-9.42244e-06
8.14046e-06
-9.56204e-06
7.3601e-06
-9.70804e-06
6.53879e-06
-9.85919e-06
5.66654e-06
-1.00126e-05
4.73068e-06
-1.01629e-05
3.71518e-06
-1.02997e-05
2.59984e-06
-1.0403e-05
1.36128e-06
-1.0444e-05
-1.09227e-05
2.02998e-05
-7.89063e-06
1.96796e-05
-7.56545e-06
1.90744e-05
-7.69592e-06
1.85226e-05
-7.7861e-06
1.80302e-05
-7.82334e-06
1.75781e-05
-7.82572e-06
1.714e-05
-7.81235e-06
1.66931e-05
-7.79941e-06
1.62232e-05
-7.79733e-06
1.57238e-05
-7.8111e-06
1.51942e-05
-7.84172e-06
1.46367e-05
-7.88796e-06
1.40549e-05
-7.94757e-06
1.34522e-05
-8.01816e-06
1.28314e-05
-8.09764e-06
1.21943e-05
-8.18435e-06
1.15416e-05
-8.27711e-06
1.0873e-05
-8.37507e-06
1.01871e-05
-8.47763e-06
9.48171e-06
-8.58426e-06
8.75363e-06
-8.69436e-06
7.99857e-06
-8.80697e-06
7.21108e-06
-8.92054e-06
6.38431e-06
-9.03242e-06
5.50982e-06
-9.13815e-06
4.57727e-06
-9.23035e-06
3.57431e-06
-9.29669e-06
2.48665e-06
-9.31529e-06
1.29992e-06
-9.25726e-06
-9.62278e-06
2.00703e-05
-7.30225e-06
1.94952e-05
-6.99028e-06
1.89053e-05
-7.10607e-06
1.83274e-05
-7.20815e-06
1.77807e-05
-7.27667e-06
1.72697e-05
-7.31471e-06
1.67867e-05
-7.32934e-06
1.63179e-05
-7.33063e-06
1.5849e-05
-7.32837e-06
1.53681e-05
-7.3302e-06
1.48674e-05
-7.34106e-06
1.43428e-05
-7.36342e-06
1.37931e-05
-7.39785e-06
1.32187e-05
-7.44372e-06
1.26208e-05
-7.49975e-06
1.20008e-05
-7.56439e-06
1.13598e-05
-7.63611e-06
1.06982e-05
-7.7134e-06
1.00154e-05
-7.79488e-06
9.3103e-06
-7.87913e-06
8.58054e-06
-7.96459e-06
7.82289e-06
-8.04932e-06
7.03303e-06
-8.13068e-06
6.20547e-06
-8.20486e-06
5.33355e-06
-8.26623e-06
4.40941e-06
-8.3062e-06
3.4243e-06
-8.31158e-06
2.36932e-06
-8.26031e-06
1.2379e-06
-8.12583e-06
-8.38488e-06
1.98138e-05
-6.73382e-06
1.92681e-05
-6.44464e-06
1.87014e-05
-6.53934e-06
1.8127e-05
-6.63378e-06
1.75606e-05
-6.71024e-06
1.70126e-05
-6.76675e-06
1.64866e-05
-6.80333e-06
1.59795e-05
-6.82354e-06
1.5484e-05
-6.83287e-06
1.49911e-05
-6.83726e-06
1.4492e-05
-6.84198e-06
1.39797e-05
-6.85108e-06
1.3449e-05
-6.86716e-06
1.28968e-05
-6.89151e-06
1.23214e-05
-6.92437e-06
1.17222e-05
-6.9652e-06
1.10991e-05
-7.01292e-06
1.04518e-05
-7.06614e-06
9.78009e-06
-7.12318e-06
9.08308e-06
-7.18213e-06
8.35925e-06
-7.24076e-06
7.60629e-06
-7.29635e-06
6.82105e-06
-7.34543e-06
5.99952e-06
-7.38332e-06
5.13688e-06
-7.40358e-06
4.22774e-06
-7.39706e-06
3.26673e-06
-7.35056e-06
2.24961e-06
-7.24318e-06
1.17606e-06
-7.05227e-06
-7.20881e-06
1.9533e-05
-6.17544e-06
1.90048e-05
-5.91638e-06
1.84564e-05
-5.99091e-06
1.78936e-05
-6.07098e-06
1.7326e-05
-6.14266e-06
1.67626e-05
-6.20338e-06
1.62099e-05
-6.25062e-06
1.56706e-05
-6.28419e-06
1.51435e-05
-6.30582e-06
1.46248e-05
-6.31853e-06
1.41087e-05
-6.32588e-06
1.3589e-05
-6.33138e-06
1.30598e-05
-6.33798e-06
1.25162e-05
-6.3479e-06
1.19543e-05
-6.36247e-06
1.13713e-05
-6.38221e-06
1.07653e-05
-6.40689e-06
1.01348e-05
-6.43566e-06
9.47875e-06
-6.46711e-06
8.79597e-06
-6.49935e-06
8.08511e-06
-6.5299e-06
7.34442e-06
-6.55566e-06
6.57167e-06
-6.57268e-06
5.76413e-06
-6.57578e-06
4.91871e-06
-6.55815e-06
4.03223e-06
-6.51058e-06
3.10221e-06
-6.42053e-06
2.12818e-06
-6.26914e-06
1.11427e-06
-6.03836e-06
-6.09454e-06
1.92285e-05
-5.62168e-06
1.87096e-05
-5.39745e-06
1.81732e-05
-5.45453e-06
1.76213e-05
-5.51908e-06
1.70592e-05
-5.58052e-06
1.64928e-05
-5.63695e-06
1.59277e-05
-5.68554e-06
1.53682e-05
-5.72466e-06
1.48163e-05
-5.75392e-06
1.42718e-05
-5.77405e-06
1.37326e-05
-5.78662e-06
1.31949e-05
-5.79369e-06
1.26544e-05
-5.79745e-06
1.21063e-05
-5.79989e-06
1.15464e-05
-5.80258e-06
1.09708e-05
-5.80656e-06
1.03761e-05
-5.81223e-06
9.7598e-06
-5.81932e-06
9.11961e-06
-5.82692e-06
8.45372e-06
-5.83345e-06
7.76043e-06
-5.83661e-06
7.03808e-06
-5.83331e-06
6.28492e-06
-5.81951e-06
5.49912e-06
-5.78999e-06
4.67892e-06
-5.73794e-06
3.8229e-06
-5.65456e-06
2.93079e-06
-5.52842e-06
2.0048e-06
-5.34314e-06
1.05164e-06
-5.0852e-06
-5.04289e-06
1.89013e-05
-5.06954e-06
1.83865e-05
-4.88257e-06
1.7857e-05
-4.92507e-06
1.7313e-05
-4.97508e-06
1.67572e-05
-5.02469e-06
1.6193e-05
-5.07273e-06
1.56243e-05
-5.11684e-06
1.50548e-05
-5.15516e-06
1.44873e-05
-5.18647e-06
1.39235e-05
-5.21023e-06
1.33635e-05
-5.22658e-06
1.2806e-05
-5.23622e-06
1.22487e-05
-5.24019e-06
1.16885e-05
-5.23968e-06
1.11218e-05
-5.23586e-06
1.05449e-05
-5.22965e-06
9.95428e-06
-5.22159e-06
9.34667e-06
-5.21171e-06
8.71922e-06
-5.19947e-06
8.06943e-06
-5.18366e-06
7.39515e-06
-5.16232e-06
6.69451e-06
-5.13266e-06