/*--------------------------------*- C++ -*----------------------------------*\
  =========                 |
  \\      /  F ield         | OpenFOAM: The Open Source CFD Toolbox
   \\    /   O peration     | Website:  https://openfoam.org
    \\  /    A nd           | Version:  11
     \\/     M anipulation  |
\*---------------------------------------------------------------------------*/
FoamFile
{
    format      ascii;
    class       volVectorField;
    location    "0.1";
    object      U;
}
// * * * * * * * * * * * * * * * * * * * * * * * * * * * * * * * * * * * * * //

dimensions      [0 1 -1 0 0 0 0];

internalField   nonuniform List<vector> 
12600
(
(0.995798 0.000256843 0)
(0.13371 -1.10523e-05 0)
(0.398962 2.90366e-05 0)
(0.398951 1.34129e-06 0)
(0.398932 -6.59494e-06 0)
(0.398966 -1.10095e-05 0)
(0.399017 -1.48042e-05 0)
(0.399083 -1.88157e-05 0)
(0.399165 -2.3458e-05 0)
(0.399268 -2.9051e-05 0)
(0.399395 -3.59191e-05 0)
(0.399552 -4.44383e-05 0)
(0.399747 -5.50734e-05 0)
(0.399988 -6.84173e-05 0)
(0.400289 -8.52407e-05 0)
(0.400664 -0.000106559 0)
(0.401134 -0.000133723 0)
(0.401725 -0.000168556 0)
(0.402472 -0.000213536 0)
(0.403421 -0.00027208 0)
(0.404636 -0.000348957 0)
(0.406199 -0.000450955 0)
(0.40823 -0.000587962 0)
(0.410895 -0.000774927 0)
(0.414434 -0.00103578 0)
(0.419219 -0.00141245 0)
(0.425869 -0.00198995 0)
(0.435592 -0.00298357 0)
(0.451484 -0.0051443 0)
(0.46938 -0.0122935 0)
(0.999054 0.000420753 0)
(0.134051 1.62338e-05 0)
(0.400329 4.74612e-05 0)
(0.400294 -1.15297e-06 0)
(0.400287 -2.06803e-05 0)
(0.400323 -3.31816e-05 0)
(0.400374 -4.43585e-05 0)
(0.40044 -5.62952e-05 0)
(0.400522 -7.015e-05 0)
(0.400623 -8.68579e-05 0)
(0.400749 -0.00010738 0)
(0.400905 -0.000132836 0)
(0.401098 -0.000164612 0)
(0.401337 -0.000204473 0)
(0.401634 -0.000254716 0)
(0.402005 -0.000318364 0)
(0.40247 -0.000399442 0)
(0.403054 -0.000503368 0)
(0.403791 -0.000637511 0)
(0.404728 -0.000812014 0)
(0.405924 -0.00104103 0)
(0.407463 -0.00134463 0)
(0.409458 -0.001752 0)
(0.412069 -0.00230697 0)
(0.415525 -0.003079 0)
(0.420168 -0.00418744 0)
(0.426528 -0.00586455 0)
(0.435481 -0.00865145 0)
(0.448328 -0.0141444 0)
(0.45679 -0.0284058 0)
(0.99899 0.000269334 0)
(0.133977 5.99587e-05 0)
(0.400315 2.89406e-05 0)
(0.400279 -1.13321e-05 0)
(0.400278 -3.66148e-05 0)
(0.400317 -5.57203e-05 0)
(0.400367 -7.37436e-05 0)
(0.400432 -9.33143e-05 0)
(0.400512 -0.000116152 0)
(0.400612 -0.000143741 0)
(0.400735 -0.000177648 0)
(0.400887 -0.000219708 0)
(0.401075 -0.000272197 0)
(0.401307 -0.000338022 0)
(0.401597 -0.000420953 0)
(0.401957 -0.000525955 0)
(0.402408 -0.00065963 0)
(0.402974 -0.000830851 0)
(0.403688 -0.00105168 0)
(0.404592 -0.00133867 0)
(0.405744 -0.00171488 0)
(0.407223 -0.00221288 0)
(0.409133 -0.00287973 0)
(0.411621 -0.00378537 0)
(0.414891 -0.00503855 0)
(0.419232 -0.00681973 0)
(0.42505 -0.00945761 0)
(0.432862 -0.0136257 0)
(0.442953 -0.0208673 0)
(0.447753 -0.0347021 0)
(0.998953 0.000171682 0)
(0.133929 5.79654e-05 0)
(0.400293 1.27004e-05 0)
(0.400262 -2.54248e-05 0)
(0.400265 -5.41629e-05 0)
(0.400305 -7.85444e-05 0)
(0.400356 -0.000102729 0)
(0.400419 -0.000129486 0)
(0.400497 -0.00016092 0)
(0.400593 -0.000198985 0)
(0.400712 -0.000245799 0)
(0.400858 -0.000303871 0)
(0.401038 -0.00037632 0)
(0.401262 -0.000467127 0)
(0.401539 -0.000581457 0)
(0.401884 -0.000726095 0)
(0.402315 -0.000910057 0)
(0.402854 -0.00114544 0)
(0.403533 -0.00144863 0)
(0.40439 -0.00184211 0)
(0.405479 -0.00235702 0)
(0.406869 -0.00303717 0)
(0.408656 -0.00394525 0)
(0.410967 -0.00517319 0)
(0.413976 -0.0068604 0)
(0.41791 -0.00922846 0)
(0.423051 -0.0126511 0)
(0.429651 -0.0177972 0)
(0.437559 -0.0258788 0)
(0.440211 -0.0386822 0)
(0.998932 0.000103862 0)
(0.133896 3.80663e-05 0)
(0.400272 -5.42489e-06 0)
(0.400244 -4.19742e-05 0)
(0.400251 -7.28496e-05 0)
(0.400292 -0.00010142 0)
(0.400341 -0.000131043 0)
(0.400402 -0.000164437 0)
(0.400477 -0.000203956 0)
(0.400569 -0.000251943 0)
(0.400681 -0.000311008 0)
(0.40082 -0.000384278 0)
(0.400991 -0.000475647 0)
(0.401203 -0.000590087 0)
(0.401464 -0.000734041 0)
(0.401789 -0.000915961 0)
(0.402194 -0.00114705 0)
(0.402699 -0.0014423 0)
(0.403331 -0.001822 0)
(0.404128 -0.00231382 0)
(0.405134 -0.00295599 0)
(0.406411 -0.00380189 0)
(0.408041 -0.00492718 0)
(0.410131 -0.00644098 0)
(0.412818 -0.00850431 0)
(0.416273 -0.0113615 0)
(0.420671 -0.015394 0)
(0.426101 -0.0212016 0)
(0.432281 -0.0296626 0)
(0.433543 -0.0416315 0)
(0.998919 5.32105e-05 0)
(0.133873 1.23695e-05 0)
(0.400252 -2.53666e-05 0)
(0.400227 -6.00083e-05 0)
(0.400235 -9.2139e-05 0)
(0.400276 -0.00012402 0)
(0.400324 -0.000158371 0)
(0.400382 -0.000197786 0)
(0.400452 -0.00024478 0)
(0.400538 -0.000302007 0)
(0.400644 -0.000372507 0)
(0.400774 -0.000459955 0)
(0.400933 -0.000568946 0)
(0.40113 -0.000705336 0)
(0.401373 -0.000876707 0)
(0.401673 -0.00109298 0)
(0.402046 -0.00136728 0)
(0.402509 -0.00171711 0)
(0.403087 -0.00216606 0)
(0.40381 -0.00274624 0)
(0.404718 -0.00350172 0)
(0.405861 -0.00449362 0)
(0.407307 -0.0058076 0)
(0.409139 -0.00756517 0)
(0.411461 -0.00994075 0)
(0.414389 -0.0131875 0)
(0.418022 -0.0176729 0)
(0.422358 -0.0239127 0)
(0.42712 -0.0325344 0)
(0.427377 -0.0439458 0)
(0.998911 1.32137e-05 0)
(0.133856 -1.41231e-05 0)
(0.400235 -4.61152e-05 0)
(0.40021 -7.86992e-05 0)
(0.400218 -0.000111494 0)
(0.400258 -0.000145974 0)
(0.400304 -0.000184375 0)
(0.400358 -0.000229156 0)
(0.400424 -0.00028293 0)
(0.400503 -0.000348603 0)
(0.400601 -0.000429577 0)
(0.40072 -0.000530005 0)
(0.400866 -0.000655086 0)
(0.401045 -0.000811445 0)
(0.401266 -0.00100764 0)
(0.401538 -0.00125484 0)
(0.401875 -0.00156777 0)
(0.40229 -0.00196601 0)
(0.402805 -0.00247584 0)
(0.403445 -0.00313287 0)
(0.404241 -0.00398568 0)
(0.405233 -0.00510118 0)
(0.406471 -0.00657211 0)
(0.408018 -0.00852786 0)
(0.409945 -0.0111495 0)
(0.412321 -0.0146897 0)
(0.415189 -0.0194934 0)
(0.418505 -0.0260017 0)
(0.422045 -0.0346813 0)
(0.421476 -0.0457588 0)
(0.998905 -1.96557e-05 0)
(0.133843 -3.93861e-05 0)
(0.400219 -6.67071e-05 0)
(0.400194 -9.7335e-05 0)
(0.4002 -0.00013041 0)
(0.400238 -0.000166905 0)
(0.400281 -0.000208713 0)
(0.400331 -0.000258176 0)
(0.400391 -0.000317972 0)
(0.400464 -0.0003912 0)
(0.400551 -0.000481565 0)
(0.400658 -0.000593614 0)
(0.400789 -0.000733054 0)
(0.40095 -0.000907146 0)
(0.401146 -0.00112525 0)
(0.401387 -0.00139953 0)
(0.401683 -0.00174597 0)
(0.402045 -0.00218575 0)
(0.402491 -0.00274717 0)
(0.403039 -0.00346834 0)
(0.403712 -0.00440101 0)
(0.404539 -0.00561587 0)
(0.405555 -0.00720993 0)
(0.406799 -0.00931655 0)
(0.408311 -0.0121183 0)
(0.410124 -0.0158619 0)
(0.41224 -0.0208685 0)
(0.414595 -0.0275237 0)
(0.417025 -0.036205 0)
(0.415693 -0.0470966 0)
(0.998901 -4.73878e-05 0)
(0.133832 -6.26505e-05 0)
(0.400205 -8.64334e-05 0)
(0.400178 -0.000115331 0)
(0.400182 -0.000148431 0)
(0.400218 -0.000186447 0)
(0.400257 -0.000231052 0)
(0.400302 -0.000284497 0)
(0.400356 -0.000349504 0)
(0.40042 -0.000429321 0)
(0.400497 -0.000527887 0)
(0.400591 -0.000650067 0)
(0.400705 -0.000801968 0)
(0.400845 -0.000991349 0)
(0.401014 -0.00122818 0)
(0.401221 -0.00152536 0)
(0.401473 -0.00189979 0)
(0.401779 -0.00237372 0)
(0.40215 -0.00297675 0)
(0.4026 -0.00374854 0)
(0.403143 -0.0047426 0)
(0.403797 -0.00603148 0)
(0.40458 -0.00771383 0)
(0.40551 -0.0099236 0)
(0.406599 -0.0128411 0)
(0.407848 -0.016704 0)
(0.409229 -0.0218129 0)
(0.410666 -0.0285166 0)
(0.412043 -0.0371538 0)
(0.409947 -0.0479364 0)
(0.998897 -7.11534e-05 0)
(0.133823 -8.36691e-05 0)
(0.400193 -0.000104822 0)
(0.400162 -0.000132229 0)
(0.400164 -0.000165168 0)
(0.400196 -0.000204269 0)
(0.400231 -0.00025108 0)
(0.400271 -0.000307797 0)
(0.400317 -0.000377167 0)
(0.400372 -0.000462544 0)
(0.400439 -0.00056804 0)
(0.400518 -0.000698756 0)
(0.400615 -0.00086109 0)
(0.400732 -0.00106316 0)
(0.400873 -0.00131534 0)
(0.401044 -0.00163101 0)
(0.401249 -0.00202761 0)
(0.401495 -0.00252795 0)
(0.401788 -0.00316224 0)
(0.402136 -0.00397068 0)
(0.402545 -0.00500716 0)
(0.403021 -0.00634428 0)
(0.403566 -0.00807993 0)
(0.404179 -0.0103457 0)
(0.404846 -0.0133168 0)
(0.405539 -0.0172206 0)
(0.406202 -0.0223407 0)
(0.406754 -0.0290046 0)
(0.407101 -0.0375443 0)
(0.404205 -0.0482318 0)
(0.998894 -9.16743e-05 0)
(0.133815 -0.000102407 0)
(0.400181 -0.000121577 0)
(0.400147 -0.000147682 0)
(0.400146 -0.000180295 0)
(0.400174 -0.000220075 0)
(0.400204 -0.000268521 0)
(0.400238 -0.000327791 0)
(0.400277 -0.000400648 0)
(0.400322 -0.00049051 0)
(0.400376 -0.000601604 0)
(0.400441 -0.000739183 0)
(0.400519 -0.000909832 0)
(0.400613 -0.00112187 0)
(0.400724 -0.0013859 0)
(0.400857 -0.00171553 0)
(0.401014 -0.00212832 0)
(0.401199 -0.00264719 0)
(0.401413 -0.00330223 0)
(0.401657 -0.00413323 0)
(0.40193 -0.00519318 0)
(0.402226 -0.00655295 0)
(0.402535 -0.00830751 0)
(0.402833 -0.0105836 0)
(0.403086 -0.0135488 0)
(0.403236 -0.0174194 0)
(0.403206 -0.0224652 0)
(0.402896 -0.0290029 0)
(0.402218 -0.0373754 0)
(0.39847 -0.0479269 0)
(0.998892 -0.00010942 0)
(0.133807 -0.000118913 0)
(0.400169 -0.000136519 0)
(0.400132 -0.000161434 0)
(0.400127 -0.00019355 0)
(0.400151 -0.000233618 0)
(0.400176 -0.000283134 0)
(0.400203 -0.000344236 0)
(0.400234 -0.000419685 0)
(0.40027 -0.00051293 0)
(0.400311 -0.000628249 0)
(0.400361 -0.000770971 0)
(0.400419 -0.000947759 0)
(0.400489 -0.00116701 0)
(0.40057 -0.00143934 0)
(0.400664 -0.00177831 0)
(0.400773 -0.00220132 0)
(0.400895 -0.00273086 0)
(0.401029 -0.00339625 0)
(0.40117 -0.00423596 0)
(0.401308 -0.00530085 0)
(0.401429 -0.00665848 0)
(0.401506 -0.00839882 0)
(0.4015 -0.0106415 0)
(0.401352 -0.0135442 0)
(0.400981 -0.0173112 0)
(0.400282 -0.0221999 0)
(0.399133 -0.0285219 0)
(0.397431 -0.0366386 0)
(0.39278 -0.046965 0)
(0.998889 -0.000124717 0)
(0.133801 -0.000133269 0)
(0.400159 -0.00014955 0)
(0.400118 -0.000173304 0)
(0.400109 -0.000204726 0)
(0.400128 -0.000244692 0)
(0.400148 -0.00029472 0)
(0.400168 -0.000356933 0)
(0.40019 -0.000434074 0)
(0.400216 -0.000529582 0)
(0.400244 -0.000647735 0)
(0.400278 -0.000793858 0)
(0.400317 -0.000974594 0)
(0.400361 -0.00119827 0)
(0.400412 -0.00147536 0)
(0.400468 -0.00181914 0)
(0.400528 -0.00224648 0)
(0.400588 -0.00277903 0)
(0.400643 -0.00344472 0)
(0.400683 -0.00427986 0)
(0.400692 -0.00533204 0)
(0.400643 -0.00666401 0)
(0.400499 -0.00835889 0)
(0.400203 -0.0105269 0)
(0.399677 -0.0133138 0)
(0.398812 -0.01691 0)
(0.397476 -0.0215603 0)
(0.395516 -0.0275721 0)
(0.392793 -0.0353257 0)
(0.387198 -0.0452966 0)
(0.998887 -0.000137816 0)
(0.133795 -0.000145569 0)
(0.400149 -0.00016063 0)
(0.400104 -0.000183172 0)
(0.400091 -0.000213671 0)
(0.400105 -0.000253137 0)
(0.400119 -0.000303122 0)
(0.400132 -0.00036573 0)
(0.400146 -0.000443664 0)
(0.40016 -0.000540318 0)
(0.400176 -0.000659914 0)
(0.400194 -0.000807703 0)
(0.400213 -0.000990212 0)
(0.400233 -0.00121558 0)
(0.400252 -0.00149396 0)
(0.40027 -0.00183813 0)
(0.400282 -0.00226416 0)
(0.400282 -0.00279242 0)
(0.400262 -0.00344892 0)
(0.400205 -0.00426706 0)
(0.40009 -0.00529014 0)
(0.399882 -0.00657473 0)
(0.399532 -0.00819533 0)
(0.398967 -0.0102507 0)
(0.398089 -0.012872 0)
(0.396766 -0.0162334 0)
(0.394832 -0.0205649 0)
(0.392098 -0.0261675 0)
(0.388372 -0.0334342 0)
(0.381814 -0.0428861 0)
(0.998886 -0.000148927 0)
(0.133789 -0.000155924 0)
(0.40014 -0.000169755 0)
(0.400091 -0.00019096 0)
(0.400073 -0.000220273 0)
(0.400082 -0.000258835 0)
(0.40009 -0.000308227 0)
(0.400096 -0.000370523 0)
(0.400101 -0.000448364 0)
(0.400105 -0.00054506 0)
(0.400108 -0.000664728 0)
(0.400109 -0.000812477 0)
(0.400108 -0.000994633 0)
(0.400104 -0.00121903 0)
(0.400094 -0.00149538 0)
(0.400074 -0.00183574 0)
(0.40004 -0.00225512 0)
(0.399982 -0.00277231 0)
(0.39989 -0.00341088 0)
(0.399742 -0.00420071 0)
(0.399512 -0.00517991 0)
(0.399158 -0.00639765 0)
(0.39862 -0.00791819 0)
(0.397813 -0.00982656 0)
(0.396619 -0.0122368 0)
(0.39488 -0.0153034 0)
(0.392398 -0.0192375 0)
(0.388938 -0.0243282 0)
(0.384248 -0.0309722 0)
(0.376733 -0.0397175 0)
(0.998884 -0.00015825 0)
(0.133784 -0.000164453 0)
(0.400131 -0.000176954 0)
(0.400078 -0.000196629 0)
(0.400056 -0.000224459 0)
(0.40006 -0.000261703 0)
(0.400062 -0.00030996 0)
(0.40006 -0.000371255 0)
(0.400057 -0.000448138 0)
(0.40005 -0.0005438 0)
(0.40004 -0.000662206 0)
(0.400025 -0.000808263 0)
(0.400005 -0.000988019 0)
(0.399977 -0.00120891 0)
(0.399937 -0.00148007 0)
(0.399882 -0.0018127 0)
(0.399803 -0.00222054 0)
(0.399692 -0.00272048 0)
(0.399532 -0.00333334 0)
(0.399301 -0.00408489 0)
(0.398967 -0.00500735 0)
(0.398482 -0.00614147 0)
(0.397779 -0.00753973 0)
(0.39676 -0.00927133 0)
(0.39529 -0.0114301 0)
(0.393188 -0.0141467 0)
(0.39022 -0.0176079 0)
(0.3861 -0.022083 0)
(0.380507 -0.0279615 0)
(0.372073 -0.0357982 0)
(0.998882 -0.000165993 0)
(0.13378 -0.000171295 0)
(0.400123 -0.000182278 0)
(0.400066 -0.000200168 0)
(0.40004 -0.000226186 0)
(0.400039 -0.000261693 0)
(0.400034 -0.000308286 0)
(0.400026 -0.000367914 0)
(0.400013 -0.000443007 0)
(0.399996 -0.000536598 0)
(0.399973 -0.000652459 0)
(0.399943 -0.000795244 0)
(0.399904 -0.000970658 0)
(0.399852 -0.00118566 0)
(0.399785 -0.00144871 0)
(0.399696 -0.00177001 0)
(0.399576 -0.0021619 0)
(0.399414 -0.00263916 0)
(0.399192 -0.00321955 0)
(0.398887 -0.00392442 0)
(0.398461 -0.0047795 0)
(0.397864 -0.00581628 0)
(0.39702 -0.00707417 0)
(0.395825 -0.0086045 0)
(0.394127 -0.0104776 0)
(0.391723 -0.0127955 0)
(0.388342 -0.0157133 0)
(0.383646 -0.0194713 0)
(0.377238 -0.0244391 0)
(0.367954 -0.0311616 0)
(0.998881 -0.000172394 0)
(0.133776 -0.00017661 0)
(0.400116 -0.000185798 0)
(0.400056 -0.000201584 0)
(0.400024 -0.000225433 0)
(0.400018 -0.000258788 0)
(0.400007 -0.000303208 0)
(0.399992 -0.000360534 0)
(0.39997 -0.000433042 0)
(0.399943 -0.000523578 0)
(0.399907 -0.000635679 0)
(0.399863 -0.000773701 0)
(0.399805 -0.000942954 0)
(0.399732 -0.00114986 0)
(0.399639 -0.00140212 0)
(0.399517 -0.00170889 0)
(0.399359 -0.00208095 0)
(0.399151 -0.00253088 0)
(0.398875 -0.00307325 0)
(0.398504 -0.00372471 0)
(0.398 -0.00450418 0)
(0.39731 -0.00543332 0)
(0.396354 -0.00653744 0)
(0.39502 -0.00784811 0)
(0.393148 -0.00940891 0)
(0.390512 -0.0112876 0)
(0.386808 -0.0135991 0)
(0.38164 -0.0165435 0)
(0.374532 -0.0204579 0)
(0.364493 -0.0258653 0)
(0.99888 -0.000177737 0)
(0.133773 -0.000180583 0)
(0.40011 -0.000187594 0)
(0.400046 -0.000200894 0)
(0.40001 -0.000222197 0)
(0.399999 -0.000252992 0)
(0.399982 -0.000294758 0)
(0.399959 -0.000349187 0)
(0.39993 -0.000418368 0)
(0.399892 -0.000504925 0)
(0.399845 -0.000612128 0)
(0.399786 -0.000743998 0)
(0.399711 -0.000905413 0)
(0.399618 -0.00110221 0)
(0.399499 -0.0013413 0)
(0.399349 -0.00163071 0)
(0.399156 -0.00197965 0)
(0.398907 -0.00239847 0)
(0.398582 -0.00289846 0)
(0.398155 -0.00349155 0)
(0.397588 -0.00418977 0)
(0.396825 -0.00500465 0)
(0.395786 -0.00594675 0)
(0.394357 -0.00702636 0)
(0.392369 -0.00825714 0)
(0.389581 -0.00966658 0)
(0.385656 -0.0113196 0)
(0.380141 -0.0133622 0)
(0.372473 -0.0160863 0)
(0.361798 -0.0199876 0)
(0.99888 -0.00018238 0)
(0.133771 -0.000183424 0)
(0.400106 -0.000187747 0)
(0.400038 -0.000198113 0)
(0.399998 -0.000216481 0)
(0.399981 -0.00024433 0)
(0.399958 -0.000282999 0)
(0.399928 -0.000333986 0)
(0.399891 -0.000399155 0)
(0.399844 -0.000480878 0)
(0.399785 -0.000582132 0)
(0.399713 -0.000706577 0)
(0.399622 -0.000858629 0)
(0.39951 -0.00104352 0)
(0.399368 -0.00126733 0)
(0.399191 -0.00153697 0)
(0.398967 -0.0018601 0)
(0.398682 -0.00224485 0)
(0.398316 -0.00269934 0)
(0.397844 -0.00323093 0)
(0.397227 -0.00384489 0)
(0.396412 -0.00454274 0)
(0.395321 -0.00532013 0)
(0.39384 -0.00616513 0)
(0.391799 -0.00705868 0)
(0.388947 -0.00798188 0)
(0.384919 -0.00893818 0)
(0.379204 -0.0100028 0)
(0.371144 -0.0114063 0)
(0.359961 -0.0136202 0)
(0.99888 -0.000186794 0)
(0.13377 -0.000185363 0)
(0.400103 -0.000186322 0)
(0.400031 -0.000193243 0)
(0.399987 -0.000208288 0)
(0.399965 -0.000232841 0)
(0.399936 -0.000268023 0)
(0.3999 -0.00031508 0)
(0.399854 -0.000375617 0)
(0.399798 -0.000451729 0)
(0.399729 -0.000546077 0)
(0.399644 -0.000661944 0)
(0.399539 -0.000803266 0)
(0.399409 -0.000974657 0)
(0.399247 -0.00118138 0)
(0.399046 -0.00142927 0)
(0.398794 -0.00172446 0)
(0.398478 -0.00207301 0)
(0.398078 -0.0024801 0)
(0.39757 -0.00294879 0)
(0.396917 -0.0034781 0)
(0.396071 -0.00406006 0)
(0.394957 -0.00467587 0)
(0.393468 -0.00529121 0)
(0.39144 -0.00585247 0)
(0.38862 -0.0062885 0)
(0.384623 -0.00652838 0)
(0.378879 -0.0065547 0)
(0.370623 -0.00651372 0)
(0.359062 -0.00685847 0)
(0.998881 -0.000191626 0)
(0.133771 -0.000186634 0)
(0.400102 -0.00018334 0)
(0.400027 -0.00018625 0)
(0.399978 -0.000197611 0)
(0.399951 -0.000218575 0)
(0.399916 -0.000249944 0)
(0.399873 -0.000292652 0)
(0.399821 -0.00034801 0)
(0.399757 -0.000417815 0)
(0.399678 -0.000504402 0)
(0.399581 -0.00061066 0)
(0.399462 -0.000740047 0)
(0.399316 -0.000896564 0)
(0.399136 -0.00108469 0)
(0.398913 -0.0013092 0)
(0.398638 -0.00157488 0)
(0.398295 -0.00188588 0)
(0.397868 -0.00224475 0)
(0.397333 -0.00265083 0)
(0.396659 -0.00309755 0)
(0.395799 -0.00356855 0)
(0.394691 -0.00403175 0)
(0.393238 -0.00443143 0)
(0.391289 -0.00467897 0)
(0.388602 -0.00464632 0)
(0.384783 -0.00417426 0)
(0.379211 -0.00312397 0)
(0.370987 -0.0015191 0)
(0.359177 0.000207646 0)
(0.998883 -0.000197803 0)
(0.133775 -0.000187418 0)
(0.400103 -0.000178738 0)
(0.400024 -0.000177049 0)
(0.39997 -0.000184426 0)
(0.399938 -0.000201592 0)
(0.399898 -0.000228904 0)
(0.39985 -0.00026692 0)
(0.39979 -0.000316628 0)
(0.399719 -0.000379518 0)
(0.399631 -0.000457587 0)
(0.399524 -0.000553335 0)
(0.399393 -0.000669741 0)
(0.399233 -0.000810215 0)
(0.399036 -0.000978487 0)
(0.398795 -0.00117839 0)
(0.398499 -0.00141346 0)
(0.398135 -0.00168624 0)
(0.397687 -0.00199709 0)
(0.397134 -0.00234225 0)
(0.396448 -0.00271068 0)
(0.395593 -0.00307909 0)
(0.394516 -0.00340423 0)
(0.393138 -0.00361141 0)
(0.391331 -0.00357869 0)
(0.388878 -0.00311893 0)
(0.385401 -0.0019711 0)
(0.380236 0.000162161 0)
(0.372324 0.00344526 0)
(0.360394 0.0075015 0)
(0.998886 -0.000206735 0)
(0.133781 -0.000187715 0)
(0.400107 -0.000172312 0)
(0.400024 -0.000165481 0)
(0.399965 -0.000168684 0)
(0.399928 -0.000181957 0)
(0.399883 -0.000205067 0)
(0.399829 -0.000238133 0)
(0.399763 -0.000281803 0)
(0.399685 -0.000337256 0)
(0.399589 -0.000406155 0)
(0.399473 -0.000490614 0)
(0.399331 -0.000593149 0)
(0.399158 -0.000716605 0)
(0.398948 -0.000864023 0)
(0.398691 -0.00103839 0)
(0.398378 -0.00124219 0)
(0.397997 -0.00147666 0)
(0.397533 -0.00174047 0)
(0.396969 -0.0020276 0)
(0.396282 -0.00232383 0)
(0.395445 -0.00260096 0)
(0.394419 -0.00280757 0)
(0.393149 -0.00285411 0)
(0.391541 -0.00259002 0)
(0.389423 -0.0017713 0)
(0.38646 -2.52961e-05 0)
(0.38198 0.00314828 0)
(0.374736 0.00820965 0)
(0.362848 0.0149593 0)
(0.998892 -0.000220672 0)
(0.133792 -0.000187029 0)
(0.400114 -0.000163648 0)
(0.400026 -0.000151291 0)
(0.399962 -0.000150311 0)
(0.39992 -0.000159753 0)
(0.39987 -0.000178629 0)
(0.39981 -0.000206576 0)
(0.39974 -0.000243901 0)
(0.399655 -0.000291481 0)
(0.399552 -0.000350657 0)
(0.399428 -0.000423171 0)
(0.399277 -0.000511091 0)
(0.399094 -0.000616736 0)
(0.398872 -0.000742521 0)
(0.398602 -0.0008907 0)
(0.398275 -0.00106292 0)
(0.397881 -0.00125942 0)
(0.397405 -0.00147776 0)
(0.396836 -0.00171059 0)
(0.396155 -0.00194198 0)
(0.395346 -0.00214128 0)
(0.394387 -0.00225276 0)
(0.393249 -0.00217801 0)
(0.391884 -0.00174632 0)
(0.390189 -0.000665984 0)
(0.387915 0.00154759 0)
(0.384445 0.00564166 0)
(0.378357 0.0125356 0)
(0.366771 0.0225111 0)
(0.998903 -0.000243429 0)
(0.13381 -0.000183632 0)
(0.400125 -0.000152105 0)
(0.400031 -0.000134128 0)
(0.399961 -0.000129215 0)
(0.399913 -0.000135085 0)
(0.399859 -0.000149822 0)
(0.399795 -0.000172568 0)
(0.39972 -0.00020332 0)
(0.39963 -0.000242676 0)
(0.399522 -0.000291676 0)
(0.399391 -0.000351703 0)
(0.399232 -0.000424404 0)
(0.39904 -0.000511607 0)
(0.398808 -0.000615169 0)
(0.398527 -0.000736734 0)
(0.39819 -0.000877298 0)
(0.397785 -0.00103648 0)
(0.397303 -0.00121128 0)
(0.396731 -0.00139396 0)
(0.396062 -0.00156853 0)
(0.395286 -0.00170457 0)
(0.394401 -0.00174663 0)
(0.393408 -0.00159522 0)
(0.392313 -0.00107218 0)
(0.391107 0.000143128 0)
(0.389684 0.00262909 0)
(0.387596 0.00740398 0)
(0.383354 0.0160599 0)
(0.372595 0.0300133 0)
(0.998923 -0.000281823 0)
(0.133839 -0.000172842 0)
(0.40014 -0.000137018 0)
(0.400038 -0.000113551 0)
(0.399961 -0.000105302 0)
(0.399909 -0.000108099 0)
(0.39985 -0.000118923 0)
(0.399783 -0.00013647 0)
(0.399704 -0.000160492 0)
(0.39961 -0.000191353 0)
(0.399497 -0.000229816 0)
(0.39936 -0.000276924 0)
(0.399196 -0.00033393 0)
(0.398997 -0.000402205 0)
(0.398757 -0.000483117 0)
(0.398468 -0.000577806 0)
(0.398122 -0.000686818 0)
(0.39771 -0.000809463 0)
(0.397223 -0.000942735 0)
(0.396653 -0.00107946 0)
(0.395996 -0.00120515 0)
(0.395255 -0.00129243 0)
(0.394442 -0.0012911 0)
(0.393593 -0.00110961 0)
(0.392772 -0.000579045 0)
(0.392081 0.000620041 0)
(0.391626 0.00311228 0)
(0.39131 0.0081525 0)
(0.389909 0.0182044 0)
(0.381148 0.0370511 0)
(0.998959 -0.000348847 0)
(0.133885 -0.000142892 0)
(0.400156 -0.00011869 0)
(0.400047 -8.89987e-05 0)
(0.399963 -7.85073e-05 0)
(0.399906 -7.9023e-05 0)
(0.399844 -8.62729e-05 0)
(0.399774 -9.86861e-05 0)
(0.399692 -0.000115882 0)
(0.399595 -0.00013805 0)
(0.399478 -0.000165701 0)
(0.399338 -0.000199565 0)
(0.399168 -0.000240516 0)
(0.398964 -0.000289507 0)
(0.398718 -0.00034747 0)
(0.398423 -0.000415142 0)
(0.398071 -0.000492783 0)
(0.397654 -0.000579678 0)
(0.397165 -0.000673298 0)
(0.396597 -0.000767861 0)
(0.395953 -0.000851829 0)
(0.395242 -0.00090347 0)
(0.394494 -0.000882682 0)
(0.393772 -0.000715265 0)
(0.393198 -0.00026072 0)
(0.392993 0.000758778 0)
(0.393534 0.00292915 0)
(0.395309 0.00759103 0)
(0.39812 0.0180549 0)
(0.394138 0.0423466 0)
(0.999023 -0.000468763 0)
(0.133956 -6.63121e-05 0)
(0.400166 -0.000101656 0)
(0.400057 -5.94328e-05 0)
(0.399965 -4.88385e-05 0)
(0.399904 -4.81873e-05 0)
(0.399839 -5.2274e-05 0)
(0.399767 -5.96537e-05 0)
(0.399683 -6.99765e-05 0)
(0.399583 -8.33183e-05 0)
(0.399464 -9.99721e-05 0)
(0.399321 -0.000120366 0)
(0.399149 -0.000145017 0)
(0.398941 -0.000174486 0)
(0.398691 -0.000209312 0)
(0.398392 -0.000249908 0)
(0.398037 -0.000296374 0)
(0.397616 -0.00034819 0)
(0.397125 -0.000403684 0)
(0.396561 -0.000459111 0)
(0.395926 -0.000507057 0)
(0.395238 -0.000533561 0)
(0.394538 -0.000512737 0)
(0.39391 -0.000396161 0)
(0.393525 -9.03197e-05 0)
(0.39371 0.000596281 0)
(0.395117 0.00209393 0)
(0.39904 0.00551145 0)
(0.407667 0.0142919 0)
(0.415511 0.0417862 0)
(0.995766 -0.000272902 0)
(0.133614 -5.70162e-06 0)
(0.398798 -4.71679e-05 0)
(0.398713 -2.16092e-05 0)
(0.398608 -1.66593e-05 0)
(0.398544 -1.62062e-05 0)
(0.398478 -1.75139e-05 0)
(0.398405 -1.99596e-05 0)
(0.39832 -2.33995e-05 0)
(0.39822 -2.78513e-05 0)
(0.3981 -3.34101e-05 0)
(0.397956 -4.0217e-05 0)
(0.397783 -4.84427e-05 0)
(0.397574 -5.82718e-05 0)
(0.397324 -6.98807e-05 0)
(0.397024 -8.3401e-05 0)
(0.396668 -9.88568e-05 0)
(0.396247 -0.000116059 0)
(0.395757 -0.000134421 0)
(0.395196 -0.000152647 0)
(0.394568 -0.00016818 0)
(0.393894 -0.000176202 0)
(0.393221 -0.000167762 0)
(0.392645 -0.000126012 0)
(0.392361 -1.80733e-05 0)
(0.392762 0.000224727 0)
(0.394685 0.000762668 0)
(0.400155 0.00204138 0)
(0.415197 0.00566505 0)
(0.455034 0.0198575 0)
(0.572622 -0.162114 3.84409e-18)
(0.510922 -0.155379 -4.16334e-15)
(0.521773 -0.152528 4.21681e-15)
(0.526253 -0.15063 2.13392e-15)
(0.528026 -0.149375 1.62132e-15)
(0.528935 -0.148588 3.29199e-15)
(0.529478 -0.148204 1.66425e-15)
(0.529795 -0.148185 4.50713e-15)
(0.529914 -0.148509 2.28741e-15)
(0.529833 -0.149171 1.15829e-15)
(0.529542 -0.150178 -1.17758e-15)
(0.529032 -0.151557 2.38437e-15)
(0.528292 -0.153348 1.21543e-15)
(0.527312 -0.15561 1.23092e-15)
(0.52608 -0.158418 2.50144e-15)
(0.524588 -0.161869 1.27305e-15)
(0.522825 -0.16608 3.8752e-15)
(0.520786 -0.171199 0)
(0.518463 -0.177412 0)
(0.515854 -0.184946 1.35662e-15)
(0.512955 -0.194088 -3.81846e-18)
(0.509767 -0.205198 1.4086e-15)
(0.506294 -0.218736 0)
(0.502544 -0.235286 2.91851e-15)
(0.498528 -0.255611 1.48919e-15)
(0.494265 -0.28071 -1.52138e-15)
(0.489783 -0.311924 1.54822e-15)
(0.485121 -0.351081 1.58633e-15)
(0.480435 -0.400696 4.8675e-15)
(0.477314 -0.455967 -1.65218e-15)
(0.456091 -0.0485428 -2.10809e-15)
(0.403548 -0.0426011 2.39002e-15)
(0.406661 -0.0433745 -2.422e-15)
(0.41544 -0.0465817 0)
(0.422952 -0.0502775 -2.21242e-15)
(0.428637 -0.0539042 -2.24129e-15)
(0.432948 -0.0574331 -5.67835e-16)
(0.436403 -0.0609867 -4.03503e-15)
(0.439349 -0.064703 -2.33841e-15)
(0.441983 -0.0686993 -2.37539e-15)
(0.444409 -0.0730719 1.20376e-15)
(0.446676 -0.0779047 -1.22467e-15)
(0.448806 -0.0832781 -2.48365e-15)
(0.450802 -0.0892759 -2.5232e-15)
(0.452661 -0.0959909 -2.56422e-15)
(0.45437 -0.103529 -2.60677e-15)
(0.455913 -0.112015 -5.30617e-15)
(0.457268 -0.121597 1.34836e-15)
(0.458406 -0.132454 -1.37482e-15)
(0.459291 -0.144805 -4.19709e-15)
(0.45988 -0.158916 2.37476e-18)
(0.460113 -0.175113 -2.97142e-18)
(0.459912 -0.193801 -2.20777e-18)
(0.459172 -0.215485 -4.53453e-15)
(0.457744 -0.240804 -3.08613e-15)
(0.455419 -0.270576 -1.5732e-15)
(0.451897 -0.305872 1.40149e-18)
(0.446734 -0.348124 -4.39747e-18)
(0.439415 -0.39921 -5.04545e-15)
(0.439452 -0.446216 0)
(0.453405 -0.0468735 0)
(0.410543 -0.0440977 0)
(0.403392 -0.0430239 0)
(0.405348 -0.0447368 -2.78149e-16)
(0.411208 -0.0481554 2.54039e-15)
(0.417775 -0.0523232 -5.72155e-16)
(0.423614 -0.0567233 5.81572e-16)
(0.428399 -0.0611745 2.35733e-15)
(0.432235 -0.0656797 -5.97887e-16)
(0.435334 -0.0703216 3.03748e-15)
(0.437886 -0.0752086 1.23306e-15)
(0.440029 -0.0804522 -1.25509e-15)
(0.441849 -0.0861613 1.27306e-15)
(0.443396 -0.0924427 -1.29661e-15)
(0.44469 -0.0994056 -2.6365e-15)
(0.445731 -0.107167 2.68222e-15)
(0.446504 -0.115856 2.72547e-15)
(0.446979 -0.125624 0)
(0.447112 -0.136644 0)
(0.446844 -0.149124 2.87934e-15)
(0.4461 -0.163317 0)
(0.444783 -0.179525 4.49594e-15)
(0.442766 -0.19812 1.53006e-15)
(0.439881 -0.219563 3.11868e-15)
(0.4359 -0.24443 4.78001e-15)
(0.430511 -0.273451 1.63357e-15)
(0.423275 -0.307569 0)
(0.413549 -0.348037 6.82976e-15)
(0.400576 -0.396439 0)
(0.401737 -0.434192 3.57723e-15)
(0.451475 -0.0486655 0)
(0.417845 -0.0486284 0)
(0.409168 -0.0476774 0)
(0.405177 -0.047747 -2.27235e-15)
(0.405628 -0.0494014 0)
(0.409008 -0.0524239 0)
(0.413611 -0.0563773 0)
(0.418313 -0.0608972 2.41116e-15)
(0.422555 -0.0657686 0)
(0.426143 -0.070907 0)
(0.429066 -0.0763169 0)
(0.431388 -0.082055 -2.57013e-15)
(0.433185 -0.0882063 -2.6136e-15)
(0.434519 -0.0948712 -1.32732e-15)
(0.43543 -0.10216 -1.34591e-18)
(0.435934 -0.110194 -2.74806e-15)
(0.436023 -0.119105 2.388e-18)
(0.435669 -0.129042 4.28756e-15)
(0.434822 -0.140175 1.45444e-15)
(0.433409 -0.152702 -1.48557e-15)
(0.431332 -0.166855 -1.51345e-15)
(0.428462 -0.182914 -1.54191e-15)
(0.424633 -0.201215 -1.57824e-15)
(0.419625 -0.222168 4.8464e-15)
(0.413146 -0.24628 0)
(0.404801 -0.274186 -5.0679e-15)
(0.394043 -0.306692 -1.7305e-15)
(0.380077 -0.344853 9.15227e-18)
(0.361982 -0.389938 -5.46104e-15)
(0.364147 -0.419558 1.02042e-17)
(0.447795 -0.0504675 0)
(0.420167 -0.0518607 2.2495e-15)
(0.413767 -0.0521602 -2.84889e-16)
(0.408535 -0.0523508 4.91907e-15)
(0.405606 -0.0532009 0)
(0.405302 -0.0550879 0)
(0.406986 -0.058032 2.42338e-15)
(0.409804 -0.0618734 -2.45979e-15)
(0.413028 -0.0664179 0)
(0.416164 -0.0715125 0)
(0.418929 -0.0770695 0)
(0.421187 -0.0830623 2.6275e-15)
(0.422893 -0.0895133 2.67348e-15)
(0.424039 -0.0964802 -1.36036e-15)
(0.424632 -0.104046 4.15872e-15)
(0.424674 -0.112315 0)
(0.42415 -0.121406 2.8813e-15)
(0.423028 -0.131459 -4.40474e-15)
(0.421249 -0.142632 -1.49862e-15)
(0.418731 -0.155107 0)
(0.415358 -0.169098 0)
(0.410979 -0.184853 0)
(0.405395 -0.20267 0)
(0.398347 -0.222907 -1.66554e-15)
(0.389494 -0.245998 -1.70873e-15)
(0.378378 -0.272475 1.74629e-15)
(0.364378 -0.303002 1.79463e-15)
(0.346593 -0.338428 -3.67747e-15)
(0.324019 -0.379703 3.77708e-15)
(0.326992 -0.402348 -3.86319e-15)
(0.443212 -0.0521815 -2.26859e-15)
(0.419207 -0.0541783 -2.14349e-15)
(0.415045 -0.055436 -4.35061e-16)
(0.410644 -0.0563482 -1.76634e-15)
(0.406797 -0.0573471 -5.26062e-19)
(0.404364 -0.0588519 -9.11141e-16)
(0.403505 -0.0611183 3.05407e-18)
(0.403967 -0.0642298 -2.51009e-15)
(0.405309 -0.0681548 -1.91473e-15)
(0.407081 -0.0728122 2.59706e-15)
(0.408911 -0.078119 0)
(0.410527 -0.0840175 3.3612e-15)
(0.411752 -0.0904842 -3.42371e-15)
(0.412474 -0.0975312 -2.78997e-15)
(0.412622 -0.105202 4.26285e-15)
(0.412148 -0.113567 -4.34852e-15)
(0.411001 -0.12272 -1.47639e-15)
(0.409126 -0.132777 -1.51347e-15)
(0.406448 -0.143874 -1.53834e-15)
(0.402867 -0.156171 4.72172e-15)
(0.398251 -0.169854 0)
(0.39243 -0.185138 1.64325e-15)
(0.38518 -0.202279 -3.36566e-15)
(0.376212 -0.221577 3.45198e-15)
(0.365148 -0.243391 1.76721e-15)
(0.351492 -0.268149 3.6275e-15)
(0.334576 -0.296371 0)
(0.31344 -0.328706 3.82664e-15)
(0.287069 -0.365794 0)
(0.290537 -0.382582 -4.02987e-15)
(0.438049 -0.0537081 2.30249e-15)
(0.416413 -0.055951 1.16195e-15)
(0.413702 -0.0577621 -1.17979e-15)
(0.410407 -0.0593177 8.99075e-16)
(0.406806 -0.0607839 5.26084e-19)
(0.403631 -0.0624271 5.29004e-19)
(0.401285 -0.0645032 -2.19912e-15)
(0.399892 -0.0671945 6.38265e-16)
(0.399347 -0.0705961 3.9016e-15)
(0.399415 -0.0747331 -3.30924e-15)
(0.399812 -0.0795898 6.73427e-16)
(0.400269 -0.0851359 -3.43137e-15)
(0.400555 -0.0913469 2.79622e-15)
(0.400487 -0.0982155 2.8503e-15)
(0.399923 -0.105757 -1.45154e-15)
(0.39875 -0.114011 2.96572e-15)
(0.39687 -0.12304 0)
(0.394187 -0.13293 1.54593e-15)
(0.390595 -0.143787 1.58219e-15)
(0.38597 -0.155742 -3.23082e-15)
(0.38016 -0.168946 0)
(0.372972 -0.183577 -1.69271e-15)
(0.364163 -0.199842 1.78714e-18)
(0.353421 -0.217983 -3.55326e-15)
(0.340345 -0.23828 3.65138e-15)
(0.324415 -0.26106 -5.62144e-15)
(0.304946 -0.286703 0)
(0.280958 -0.315665 -3.95944e-15)
(0.251485 -0.348312 -1.99918e-19)
(0.255023 -0.360281 4.18163e-15)
(0.432372 -0.0549353 1.16834e-15)
(0.412505 -0.0572767 -1.03083e-15)