/*--------------------------------*- C++ -*----------------------------------*\
  =========                 |
  \\      /  F ield         | OpenFOAM: The Open Source CFD Toolbox
   \\    /   O peration     | Website:  https://openfoam.org
    \\  /    A nd           | Version:  11
     \\/     M anipulation  |
\*---------------------------------------------------------------------------*/
FoamFile
{
    format      ascii;
    class       volScalarField;
    location    "5";
    object      p;
}
// * * * * * * * * * * * * * * * * * * * * * * * * * * * * * * * * * * * * * //

dimensions      [0 2 -2 0 0 0 0];

internalField   nonuniform List<scalar> 
12600
(
0.235287
0.235189
0.235097
0.235009
0.234902
0.234766
0.234599
0.234398
0.23416
0.233879
0.233551
0.233167
0.23272
0.232201
0.231599
0.2309
0.230089
0.229149
0.228059
0.226794
0.225325
0.223619
0.221638
0.219333
0.216654
0.21354
0.209928
0.205739
0.20093
0.195331
0.235236
0.235183
0.235108
0.235021
0.234915
0.234781
0.234616
0.234418
0.234183
0.233907
0.233582
0.233204
0.232763
0.232251
0.231656
0.230967
0.230167
0.229239
0.228163
0.226914
0.225463
0.223778
0.221819
0.219539
0.216886
0.2138
0.210211
0.206044
0.201221
0.195635
0.235238
0.235203
0.235137
0.235052
0.234947
0.234816
0.234655
0.234462
0.234233
0.233962
0.233646
0.233276
0.232845
0.232345
0.231765
0.231092
0.230311
0.229405
0.228355
0.227136
0.225719
0.224072
0.222155
0.219923
0.217321
0.214287
0.210748
0.206628
0.201816
0.196265
0.235256
0.23523
0.235172
0.235091
0.234989
0.234863
0.234709
0.234523
0.234301
0.234041
0.233735
0.233379
0.232964
0.232482
0.231922
0.231274
0.230521
0.229649
0.228637
0.227461
0.226095
0.224505
0.222653
0.220492
0.217968
0.215016
0.211558
0.207515
0.202753
0.197236
0.235292
0.235272
0.235221
0.235146
0.235049
0.234929
0.234782
0.234605
0.234394
0.234146
0.233855
0.233516
0.233121
0.232662
0.23213
0.231513
0.230798
0.229968
0.229006
0.227887
0.226587
0.225073
0.223306
0.221241
0.218821
0.215981
0.212639
0.208707
0.204035
0.198589
0.235345
0.235327
0.235282
0.235212
0.235121
0.235009
0.234871
0.234705
0.234506
0.234273
0.234
0.233682
0.233311
0.232881
0.232382
0.231804
0.231134
0.230357
0.229455
0.228408
0.227189
0.225768
0.224108
0.222163
0.219877
0.217183
0.213993
0.210216
0.205679
0.200347
0.23541
0.235394
0.235354
0.235291
0.235207
0.235103
0.234976
0.234822
0.234639
0.234423
0.234171
0.233877
0.233535
0.233138
0.232678
0.232145
0.231528
0.230812
0.229982
0.229018
0.227895
0.226585
0.225052
0.223252
0.22113
0.218616
0.215621
0.212046
0.207698
0.202539
0.235488
0.235473
0.235438
0.235381
0.235305
0.235211
0.235095
0.234955
0.234789
0.234593
0.234364
0.234097
0.233788
0.233428
0.233012
0.232531
0.231973
0.231328
0.230579
0.229709
0.228696
0.227514
0.226128
0.224498
0.222568
0.220272
0.217516
0.214198
0.210107
0.205196
0.235575
0.235563
0.235531
0.235481
0.235414
0.23533
0.235227
0.235103
0.234955
0.234781
0.234578
0.234342
0.234067
0.23375
0.233382
0.232957
0.232466
0.231897
0.231238
0.230474
0.229584
0.228544
0.227325
0.225887
0.22418
0.222138
0.219669
0.21667
0.212914
0.208346
0.235672
0.235662
0.235635
0.235591
0.235533
0.23546
0.235371
0.235264
0.235136
0.234986
0.234811
0.234607
0.234371
0.234098
0.233783
0.233419
0.232999
0.232514
0.231952
0.231302
0.230545
0.229662
0.228626
0.227402
0.225946
0.224195
0.222063
0.219446
0.216114
0.212003
0.235777
0.235768
0.235746
0.235709
0.235661
0.2356
0.235525
0.235436
0.235329
0.235204
0.235058
0.234889
0.234694
0.234468
0.234209
0.23391
0.233566
0.233169
0.232712
0.232182
0.231569
0.230853
0.230015
0.229024
0.227843
0.226418
0.224668
0.222499
0.219688
0.21616
0.235889
0.235881
0.235863
0.235835
0.235796
0.235747
0.235688
0.235617
0.235532
0.235433
0.235319
0.235186
0.235033
0.234857
0.234656
0.234424
0.234159
0.233855
0.233506
0.233104
0.232639
0.2321
0.231471
0.230729
0.229843
0.228773
0.227448
0.225789
0.223592
0.22078
0.236005
0.236
0.235987
0.235965
0.235936
0.235901
0.235857
0.235805
0.235743
0.235672
0.235589
0.235493
0.235384
0.23526
0.235118
0.234956
0.234772
0.234563
0.234325
0.234053
0.233743
0.233386
0.232972
0.232488
0.231914
0.231219
0.230354
0.229254
0.227757
0.225786
0.236126
0.236122
0.236114
0.2361
0.236081
0.236058
0.236031
0.235998
0.23596
0.235916
0.235865
0.235808
0.235744
0.235671
0.235589
0.235498
0.235397
0.235283
0.235158
0.235018
0.234863
0.23469
0.234495
0.234274
0.234018
0.23371
0.233324
0.23282
0.232086
0.231057
0.236249
0.236247
0.236243
0.236237
0.236229
0.236219
0.236207
0.236194
0.236179
0.236163
0.236145
0.236126
0.236107
0.236086
0.236065
0.236044
0.236025
0.236008
0.235994
0.235985
0.235984
0.235993
0.236016
0.236056
0.236115
0.236195
0.236292
0.236395
0.236455
0.236427
0.236373
0.236373
0.236374
0.236375
0.236377
0.23638
0.236384
0.236391
0.236399
0.236411
0.236426
0.236445
0.236469
0.2365
0.236539
0.236588
0.23665
0.236726
0.236822
0.236941
0.23709
0.237276
0.237509
0.237801
0.238166
0.23862
0.239186
0.23988
0.240721
0.241699
0.236497
0.236499
0.236504
0.236513
0.236525
0.23654
0.236561
0.236586
0.236618
0.236656
0.236703
0.23676
0.236828
0.236909
0.237007
0.237123
0.237263
0.23743
0.237632
0.237874
0.238166
0.238521
0.238953
0.239481
0.240131
0.240934
0.241933
0.243175
0.24474
0.246656
0.23662
0.236624
0.236633
0.236649
0.23667
0.236698
0.236734
0.236778
0.236832
0.236897
0.236975
0.237068
0.237178
0.237308
0.237462
0.237644
0.237858
0.238113
0.238414
0.238772
0.239199
0.23971
0.240325
0.241069
0.241977
0.243091
0.244472
0.246191
0.248377
0.251099
0.23674
0.236745
0.236759
0.236781
0.236812
0.236852
0.236902
0.236964
0.237039
0.23713
0.237238
0.237365
0.237516
0.237692
0.2379
0.238144
0.238429
0.238765
0.23916
0.239625
0.240175
0.240828
0.241608
0.242543
0.243674
0.245052
0.24675
0.248854
0.251526
0.254865
0.236856
0.236863
0.23688
0.236909
0.236948
0.236999
0.237063
0.237143
0.237238
0.237353
0.237489
0.23765
0.237838
0.238059
0.238317
0.238618
0.23897
0.239381
0.239861
0.240424
0.241086
0.241865
0.242787
0.243886
0.245202
0.246792
0.248733
0.25112
0.254121
0.257857
0.236967
0.236975
0.236996
0.23703
0.237078
0.237139
0.237217
0.237312
0.237427
0.237564
0.237726
0.237918
0.238142
0.238403
0.238708
0.239062
0.239475
0.239954
0.240512
0.241163
0.241922
0.24281
0.243854
0.245086
0.246548
0.248296
0.250406
0.252969
0.256145
0.260053
0.237072
0.237081
0.237105
0.237145
0.237199
0.23727
0.23736
0.237469
0.237602
0.23776
0.237947
0.238167
0.238423
0.238722
0.23907
0.239473
0.23994
0.240481
0.241108
0.241834
0.242677
0.243658
0.244801
0.246137
0.247708
0.249563
0.251771
0.254413
0.257622
0.261504
0.23717
0.23718
0.237207
0.23725
0.237311
0.237391
0.237491
0.237614
0.237763
0.23794
0.238149
0.238394
0.23868
0.239013
0.239399
0.239845
0.240361
0.240956
0.241643
0.242435
0.243349
0.244405
0.245626
0.247041
0.248685
0.250602
0.252846
0.255486
0.258615
0.262315
0.23726
0.237271
0.237299
0.237346
0.237412
0.237499
0.237609
0.237745
0.237908
0.238102
0.238331
0.238599
0.238911
0.239273
0.239693
0.240177
0.240735
0.241377
0.242115
0.242962
0.243935
0.24505
0.246331
0.247801
0.249489
0.25143
0.253664
0.256238
0.259208
0.262624
0.237342
0.237353
0.237382
0.237431
0.237501
0.237595
0.237714
0.237859
0.238034
0.238243
0.238489
0.238777
0.239112
0.2395
0.239949
0.240465
0.241059
0.241741
0.242521
0.243414
0.244433
0.245595
0.246919
0.248424
0.250133
0.25207
0.254261
0.256732
0.259498
0.26258
0.237417
0.237427
0.237454
0.237503
0.237578
0.237677
0.237803
0.237957
0.238143
0.238364
0.238625
0.238929
0.239283
0.239693
0.240166
0.24071
0.241333
0.242047
0.242862
0.243791
0.244846
0.246042
0.247395
0.248921
0.250634
0.25255
0.254679
0.257028
0.259582
0.262328
0.237484
0.237492
0.237514
0.237563
0.237639
0.237743
0.237874
0.238035
0.23823
0.238461
0.238733
0.239051
0.239421
0.239848
0.24034
0.240906
0.241554
0.242293
0.243135
0.244091
0.245173
0.246394
0.247766
0.249301
0.251008
0.252894
0.254955
0.257185
0.259541
0.261987
0.237545
0.237546
0.237562
0.23761
0.23769
0.237797
0.237932
0.238097
0.238298
0.238537
0.238818
0.239146
0.239527
0.239967
0.240474
0.241056
0.241722
0.24248
0.243342
0.244317
0.245418
0.246655
0.248039
0.249576
0.251273
0.253126
0.255126
0.257252
0.259451
0.261665
0.237607
0.237584
0.237587
0.237635
0.237719
0.237829
0.237967
0.238137
0.238342
0.238586
0.238873
0.239208
0.239597
0.240046
0.240563
0.241156
0.241834
0.242606
0.243481
0.244468
0.245581
0.246828
0.248217
0.249754
0.251438
0.253265
0.255216
0.257259
0.25935
0.261415
0.237695
0.237619
0.237604
0.237653
0.237738
0.237849
0.237988
0.238159
0.238366
0.238613
0.238904
0.239242
0.239636
0.240089
0.240612
0.24121
0.241894
0.242672
0.243553
0.244547
0.245665
0.246916
0.248306
0.24984
0.251515
0.253322
0.25524
0.257233
0.259233
0.261165
0.19082
0.188853
0.18746
0.186358
0.185182
0.183878
0.182511
0.181113
0.179676
0.178183
0.176624
0.174986
0.173251
0.171391
0.169378
0.167175
0.164735
0.162001
0.158902
0.155346
0.151212
0.146342
0.140518
0.133452
0.1247
0.113741
0.0996349
0.0801136
0.060731
0.00646764
0.191709
0.190226
0.188965
0.187833
0.186635
0.185352
0.184044
0.182733
0.1814
0.180023
0.178588
0.177082
0.175486
0.173776
0.171926
0.169904
0.16767
0.165176
0.162359
0.159141
0.15542
0.151061
0.14588
0.139641
0.131971
0.12246
0.110205
0.0941907
0.0755536
0.0328892
0.192097
0.190902
0.18985
0.188796
0.187693
0.18656
0.18542
0.184268
0.183083
0.18185
0.18056
0.179203
0.177764
0.176225
0.174564
0.172753
0.170761
0.168545
0.166056
0.163227
0.159974
0.156188
0.15172
0.146379
0.139862
0.131856
0.121584
0.108538
0.0919739
0.0593189
0.193012
0.192096
0.191285
0.190355
0.189355
0.188349
0.187341
0.186315
0.185256
0.184158
0.183016
0.181821
0.180558
0.179212
0.177765
0.176196
0.174478
0.172578
0.170456
0.168059
0.165323
0.16216
0.158454
0.154057
0.148728
0.142238
0.133924
0.123575
0.109653
0.0854798
0.194343
0.193632
0.193004
0.192186
0.191289
0.190411
0.189548
0.188671
0.187766
0.186833
0.185866
0.184857
0.183796
0.182672
0.18147
0.180175
0.178767
0.177222
0.17551
0.173592
0.171418
0.168926
0.166026
0.162611
0.158494
0.153516
0.147114
0.139303
0.128228
0.111196
0.196095
0.195573
0.195132
0.19445
0.19368
0.192948
0.192243
0.191527
0.190789
0.190032
0.189254
0.188451
0.187613
0.186734
0.185806
0.184816
0.183752
0.182598
0.181332
0.17993
0.178356
0.176568
0.174503
0.172085
0.169176
0.165672
0.161109
0.15566
0.147382
0.136259
0.198311
0.197979
0.197728
0.197191
0.196557
0.195978
0.19544
0.194898
0.194343
0.193781
0.193215
0.19264
0.192052
0.191447
0.19082
0.190165
0.189476
0.188744
0.187956
0.187099
0.186151
0.185087
0.183867
0.182441
0.180712
0.178616
0.175786
0.172486
0.166815
0.160467
0.201045
0.200905
0.20085
0.200469
0.199984
0.19957
0.199214
0.198863
0.198509
0.198162
0.197827
0.197502
0.197185
0.196876
0.196574
0.196279
0.195989
0.195702
0.195413
0.195118
0.194808
0.194471
0.194084
0.19362
0.193014
0.192231
0.190986
0.189577
0.18623
0.183609
0.204351
0.204406
0.204549
0.204334
0.204011
0.203775
0.203613
0.203469
0.203331
0.203215
0.203128
0.203072
0.203045
0.203051
0.203094
0.203176
0.2033
0.20347
0.203689
0.20396
0.204281
0.204653
0.205066
0.205508
0.205938
0.206341
0.206499
0.206692
0.205331
0.205484
0.20827
0.20852
0.208861
0.208822
0.208673
0.208627
0.208671
0.208744
0.208836
0.208964
0.209139
0.209364
0.20964
0.209973
0.210369
0.210835
0.211379
0.212006
0.212727
0.213547
0.214475
0.215517
0.216672
0.217939
0.219293
0.220726
0.222073
0.223562
0.223825
0.225925
0.212822
0.213262
0.213794
0.213937
0.213974
0.214127
0.214383
0.214681
0.215011
0.215391
0.215834
0.216345
0.216928
0.217589
0.218338
0.219184
0.220137
0.221206
0.222405
0.223743
0.225233
0.226884
0.228702
0.230689
0.232831
0.235118
0.237422
0.239901
0.241426
0.244777
0.217986
0.218606
0.219315
0.219643
0.219872
0.220228
0.220699
0.221223
0.221791
0.222422
0.223132
0.223925
0.224808
0.225788
0.226876
0.228083
0.229421
0.230902
0.232539
0.234345
0.236333
0.238515
0.240898
0.243486
0.246265
0.249222
0.252248
0.255435
0.257882
0.261896
0.22369
0.224471
0.225337
0.225845
0.22627
0.226826
0.227505
0.228248
0.229046
0.229919
0.230882
0.231943
0.233108
0.234385
0.235786
0.237323
0.239008
0.240854
0.242875
0.245084
0.247494
0.250115
0.252954
0.256012
0.259274
0.262721
0.266255
0.269908
0.272979
0.277193
0.229795
0.230712
0.231705
0.232384
0.232998
0.233745
0.234618
0.235564
0.236575
0.23767
0.238866
0.240169
0.241586
0.243127
0.244803
0.246626
0.248609
0.250763
0.253102
0.255639
0.258383
0.261344
0.264526
0.267925
0.271523
0.275292
0.279139
0.283057
0.286494
0.29061
0.236092
0.237114
0.238203
0.239034
0.239825
0.240745
0.241789
0.242914
0.244112
0.245402
0.246798
0.248308
0.24994
0.251702
0.253606
0.255663
0.257885
0.260283
0.262869
0.265653
0.268644
0.271847
0.275262
0.27888
0.282678
0.286618
0.290608
0.294603
0.298151
0.302022
0.242312
0.24341
0.244559
0.245519
0.246466
0.247534
0.248721
0.249992
0.251345
0.252794
0.254352
0.256029
0.25783
0.259766
0.261845
0.26408
0.26648
0.269055
0.271816
0.27477
0.277923
0.281278
0.284828
0.28856
0.292445
0.296431
0.300427
0.304344
0.307805
0.311266
0.24816
0.249303
0.250483
0.251543
0.252617
0.253802
0.255098
0.256482
0.257951
0.259519
0.261199
0.262997
0.264921
0.266979
0.269181
0.271537
0.274055
0.276744
0.279613
0.282667
0.285909
0.289338
0.292944
0.296707
0.300593
0.304541
0.308453
0.312207
0.315482
0.318427
0.253351
0.254513
0.2557
0.256829
0.257996
0.259265
0.260635
0.262093
0.26364
0.265288
0.267045
0.26892
0.27092
0.273052
0.275326
0.277749
0.280331
0.283078
0.285997
0.289091
0.292362
0.295803
0.299404
0.303139
0.306968
0.310825
0.314607
0.318172
0.321242
0.323737
0.257659
0.258821
0.259997
0.261164
0.262388
0.263705
0.265115
0.266611
0.268198
0.269885
0.271679
0.273589
0.27562
0.277782
0.280081
0.282526
0.285123
0.287878
0.290798
0.293883
0.297133
0.30054
0.304089
0.307752
0.311486
0.315218
0.318841
0.322197
0.325027
0.327081
0.260953
0.262101
0.263254
0.26443
0.265675
0.267007
0.268424
0.269925
0.271515
0.273204
0.274998
0.276903
0.278928
0.281078
0.283362
0.285786
0.288356
0.291079
0.293957
0.296992
0.30018
0.303514
0.306974
0.31053
0.314135
0.317713
0.321148
0.324268
0.326816
0.328434
0.263217
0.264336
0.26546
0.266619
0.267852
0.269165
0.270559
0.272033
0.273596
0.275253
0.277012
0.278879
0.280861
0.282965
0.285197
0.287564
0.290071
0.292724
0.295526
0.298475
0.301569
0.304796
0.308137
0.311558
0.315008
0.318405
0.32163
0.324495
0.326747
0.327977
0.264539
0.26562
0.266706
0.267828
0.269019
0.270287
0.271631
0.273053
0.274559
0.276156
0.27785
0.279649
0.281557
0.283582
0.285731
0.288009
0.290422
0.292974
0.295667
0.298501
0.301468
0.304559
0.30775
0.311007
0.314273
0.317461
0.320446
0.323022
0.324951
0.325625
0.265079
0.26611
0.267151
0.268216
0.269341
0.270541
0.271814
0.273161
0.274587
0.276099
0.277704
0.279409
0.281218
0.283139
0.285177
0.287338
0.289628
0.292049
0.294603
0.297289
0.300099
0.303021
0.306031
0.309089
0.312136
0.315077
0.317784
0.320015
0.321611
0.321471
0.265039
0.266006
0.266988
0.267981
0.269023
0.270135
0.271317
0.272569
0.273895
0.275302
0.276796
0.278383
0.28007
0.281862
0.283765
0.285785
0.287925
0.290189
0.292577
0.295086
0.29771
0.300432
0.303227
0.306052
0.308845
0.311501
0.313893
0.315726
0.316972
0.316082
0.264625
0.265516
0.266427
0.267335
0.268281
0.269294
0.270373
0.271516
0.272727
0.274014
0.275381
0.276836
0.278383
0.280027
0.281776
0.283632
0.2856
0.287682
0.289878
0.292185
0.294592
0.297083
0.299629
0.302184
0.304681
0.307003
0.309025
0.310388
0.311176
0.309433
0.26403
0.264831
0.265655
0.266466
0.267308
0.26821
0.269173
0.270195
0.271279
0.272431
0.273658
0.274966
0.276359
0.277842
0.279421
0.281099
0.282878
0.284761
0.286746
0.288827
0.290993
0.293224
0.295489
0.297735
0.299889
0.30182
0.303398
0.304187
0.304359
0.301352
0.263408
0.264108
0.264834
0.265548
0.266288
0.267079
0.267923
0.268821
0.269774
0.270788
0.271869
0.273023
0.274253
0.275564
0.27696
0.278445
0.280022
0.281689
0.283443
0.285278
0.287178
0.289121
0.29107
0.292966
0.294727
0.2962
0.29725
0.297342
0.296783
0.292122
0.262898
0.263455
0.264036
0.264635
0.265265
0.265934
0.266649
0.267415
0.268231
0.269097
0.270023
0.271017
0.272082
0.273218
0.27443
0.27572
0.277088
0.278533
0.28005
0.281629
0.283253
0.284893
0.286507
0.288026
0.289357
0.290323
0.290781
0.290073
0.288734
0.282034
0.262742
0.263121
0.263527
0.264031
0.264568
0.265109
0.265697
0.266354
0.26705
0.267771
0.268537
0.269362
0.270249
0.271201
0.272218
0.273301
0.274451
0.275663
0.27693
0.278238
0.279566
0.28088
0.282129
0.283233
0.284086
0.28448
0.284264
0.282618
0.280517
0.271227
0.262516
0.262616
0.262844
0.263244
0.263699
0.264145
0.264585
0.265064
0.265598
0.266178
0.266802
0.267473
0.268195
0.268971
0.269801
0.270687
0.271625
0.272613
0.273639
0.274689
0.275736
0.27674
0.277641
0.278347
0.278733
0.278561
0.277679
0.274942
0.272392
0.259853
0.248462
0.237032
0.22512
0.213188
0.201755
0.191101
0.181525
0.173461
0.167422
0.16386
0.163359
0.166154
0.172443
0.182127
0.192153
0.197649
0.197639
0.195809
0.194085
0.192943
0.192063
0.190674
0.188848
0.18659
0.184616
0.180911
0.175821
0.169841
0.164002
0.15722
0.264796
0.25548
0.24519
0.234851
0.224772
0.21513
0.206302
0.198679
0.192453
0.18773
0.185399
0.185667
0.187986
0.19255
0.198614
0.202222
0.200418
0.196154
0.194532
0.193494
0.191963
0.190432
0.188501
0.186117
0.182726
0.177303
0.170487
0.164088
0.158462
0.152311
0.267464
0.258559
0.249145
0.239915
0.230358
0.220908
0.212214
0.204419
0.197656
0.19243
0.189251
0.188384
0.189542
0.192387
0.196512
0.198296
0.197512
0.195667
0.194925
0.193806
0.19269
0.191567
0.189266
0.185573
0.180005
0.172204
0.163412
0.155977
0.150066
0.144266
0.271852
0.264826
0.257012
0.24839
0.239638
0.231063
0.222775
0.214899
0.207872
0.202107
0.197955
0.195678
0.195196
0.196132
0.197999
0.198851
0.19834
0.196551
0.195294
0.19439
0.193571
0.192195
0.189424
0.184139
0.175844
0.165118
0.153573
0.144139
0.137814
0.133661
0.273526
0.267313
0.26019
0.252708
0.24493
0.236947
0.228972
0.221359
0.214462
0.208543
0.203949
0.200949
0.19954
0.19941
0.199984
0.200317
0.199552
0.197917
0.196025
0.194335
0.193564
0.191155
0.187314
0.180563
0.16879
0.153103
0.138059
0.12548
0.119906
0.121278
0.274444
0.269234
0.263184
0.256596
0.249532
0.242103
0.234542
0.227144
0.220213
0.214057
0.209013
0.205343
0.203092
0.20204
0.20159
0.20135
0.200268
0.198471
0.196418
0.193983
0.192116
0.188839
0.182761
0.1731
0.157441
0.136466
0.115197
0.100857
0.0977173
0.110655
0.274655
0.270259
0.265035
0.259174
0.252785
0.245967
0.238896
0.231814
0.225012
0.218804
0.213504
0.209361
0.206455
0.204638
0.20348
0.20252
0.201043
0.198992
0.196665
0.193947
0.19074
0.18559
0.177099
0.164269
0.144951
0.120358
0.0973351
0.0860063
0.0892796
0.114304
0.274445
0.270753
0.266281
0.261115
0.255349
0.249082
0.242457
0.235688
0.229049
0.222845
0.217375
0.212884
0.209483
0.207073
0.205327
0.20379
0.201958
0.199662
0.196989
0.193822
0.189618
0.183459
0.173235
0.15897
0.139631
0.11659
0.0977183
0.0938333
0.105797
0.13504
0.273962
0.270872
0.267052
0.262497
0.257291
0.251536
0.245351
0.238914
0.232474
0.22632
0.220744
0.215992
0.212196
0.209304
0.207052
0.205053
0.202895
0.20035
0.197366
0.19376
0.189001
0.182418
0.172861
0.159841
0.143702
0.127593
0.118256
0.124123
0.143682
0.172401
0.273315
0.270739
0.267482
0.263468
0.258774
0.253492
0.247724
0.241618
0.235395
0.229328
0.223702
0.218761
0.214654
0.211366
0.208692
0.206303
0.203839
0.20105
0.197812
0.193914
0.188926
0.182342
0.173727
0.163183
0.152372
0.143966
0.143811
0.156796
0.179453
0.208986
0.272577
0.270439
0.26767
0.264135
0.2599
0.255053
0.249678
0.243895
0.237898
0.231944
0.226308
0.221234
0.216884
0.213273
0.210248
0.207527
0.204789
0.201787
0.198362
0.194309
0.189307
0.183065
0.175587
0.167635
0.161214
0.159146
0.16548
0.181944
0.205468
0.232565
0.271797
0.270033
0.267685
0.264572
0.26075
0.256302
0.251294
0.24582
0.240052
0.234228
0.228612
0.223448
0.218906
0.215032
0.211711
0.208706
0.205735
0.202559
0.199012
0.194918
0.190075
0.184421
0.178307
0.17287
0.170153
0.172676
0.182686
0.200191
0.222615
0.245495
0.271007
0.269564
0.26758
0.264839
0.261387
0.257304
0.252636
0.247456
0.241915
0.236231
0.230658
0.225436
0.220745
0.216652
0.213082
0.209836
0.206667
0.203356
0.199745
0.195708
0.191163
0.186253
0.181581
0.178446
0.178722
0.184298
0.196188
0.213458
0.233482
0.251784
0.270231
0.269064
0.267394
0.264981
0.261862
0.258111
0.253757
0.248855
0.243533
0.237995
0.23248
0.227225
0.222417
0.218145
0.214364
0.210914
0.20758
0.204169
0.200547
0.196642
0.192491
0.188398
0.185123
0.183972
0.186515
0.194009
0.206631
0.222809
0.240019
0.254485
0.269483
0.268555
0.267157
0.265033
0.262213
0.258763
0.254699
0.250057
0.244947
0.239555
0.234108
0.228839
0.223941
0.219519
0.215559
0.211935
0.208467
0.204988
0.201397
0.197683
0.193981
0.190714
0.188717
0.189214
0.193388
0.201973
0.214545
0.229174
0.243668
0.254322
0.268773
0.268051
0.26689
0.265022
0.262471
0.259295
0.255497
0.251097
0.246189
0.240941
0.235569
0.230299
0.225329
0.220782
0.216669
0.212898
0.20932
0.2058
0.202276
0.19879
0.195561
0.19309
0.192222
0.194041
0.199302
0.208383
0.220371
0.233219
0.245114
0.252319
0.268107
0.267564
0.266609
0.264968
0.26266
0.259732
0.256178
0.252004
0.247286
0.242178
0.236883
0.231621
0.226596
0.221943
0.217698
0.2138
0.210133
0.206597
0.203163
0.199928
0.197174
0.195439
0.195534
0.198307
0.204347
0.213448
0.224479
0.235464
0.244723
0.249276
0.267486
0.267101
0.266325
0.264888
0.262798
0.260097
0.256767
0.252801
0.248262
0.243288
0.23807
0.232822
0.227751
0.223007
0.218647
0.214639
0.210902
0.207365
0.20404
0.201067
0.198772
0.197701
0.198601
0.202033
0.208554
0.21733
0.227164
0.236212
0.242602
0.244544
0.266911
0.266665
0.266049
0.264793
0.262902
0.260407
0.257282
0.253509
0.249137
0.24429
0.239146
0.233915
0.228806
0.223981
0.219518
0.215415
0.21162
0.208097
0.204891
0.20218
0.200317
0.199839
0.201382
0.205348
0.211926
0.220143
0.228663
0.235701
0.239276
0.238251
0.26638
0.266259
0.265785
0.264694
0.262984
0.260677
0.25774
0.254145
0.249928
0.245199
0.240126
0.234913
0.229769
0.22487
0.220315
0.216127
0.212284
0.208784
0.205702
0.203247
0.201784
0.201819
0.203872
0.208217
0.214553
0.222072
0.229195
0.234201
0.235141
0.231567
0.265888
0.265882
0.265538
0.264598
0.263054
0.26092
0.258155
0.254722
0.250649
0.24603
0.241022
0.235824
0.230648
0.22568
0.221039
0.216772
0.212889
0.209417
0.206461
0.204249
0.203149
0.20362
0.206062
0.210578
0.216598
0.223285
0.228945
0.23196
0.230469
0.224649
0.265434
0.265532
0.265307
0.264509
0.26312
0.261144
0.258537
0.255255
0.251314
0.246795
0.241846
0.236659
0.23145
0.226414
0.221691
0.21735
0.213432
0.209992
0.207158
0.205177
0.204403
0.20524
0.207964
0.21249
0.218152
0.223901
0.228074
0.22916
0.225397
0.21743
0.265014
0.265206
0.265094
0.26443
0.263187
0.261359
0.258898
0.255754
0.251933
0.247506
0.242607
0.237427
0.232182
0.227078
0.222273
0.217861
0.213908
0.210498
0.207781
0.206013
0.205529
0.206669
0.209591
0.214041
0.219244
0.22401
0.226708
0.225923
0.220006
0.209941
0.264633
0.264907
0.264898
0.264361
0.263259
0.261571
0.259244
0.256228
0.252518
0.248171
0.243314
0.238133
0.232846
0.227673
0.222787
0.218305
0.214321
0.210941
0.208337
0.206766
0.20654
0.207933
0.210985
0.21529
0.219966
0.223724
0.224961
0.222339
0.214355
0.202182
0.26429
0.264637
0.264718
0.264303
0.263338
0.261785
0.259582
0.256684
0.253075
0.248802
0.243979
0.238789
0.233454
0.228204
0.22323
0.218669
0.214646
0.21129
0.208787
0.207397
0.207398
0.209007
0.21214
0.216249
0.220359
0.223106
0.222902
0.218477
0.208504
0.194236
0.263978
0.264394
0.264552
0.264253
0.263426
0.262007
0.25992
0.257127
0.253608
0.249396
0.244597
0.23939
0.234004
0.228681
0.223628
0.218997
0.214938
0.211603
0.209196
0.207973
0.208174
0.209963
0.213146
0.217024
0.220537
0.222254
0.220601
0.214361
0.20244
0.186092
0.263692
0.264171
0.2644
0.26421
0.26351
0.26224
0.260277
0.257589
0.254152
0.249992
0.2452
0.239953
0.234485
0.229055
0.22389
0.219177
0.215076
0.211755
0.209431
0.208363
0.208774
0.210727
0.213916
0.217568
0.2205
0.221209
0.21814
0.210141
0.196395
0.177987
0.263437
0.263957
0.264262
0.264191
0.263599
0.262399
0.260588
0.258003
0.25465
0.250549
0.245786
0.240529
0.235007
0.229479
0.2242
0.2194
0.21525
0.211933
0.209681
0.208756
0.209362
0.211448
0.21462
0.218024
0.220345
0.21998
0.215369
0.205468
0.189771
0.169378
0.263235
0.263737
0.264124
0.264214
0.263808
0.262758
0.260973
0.258463
0.255148
0.251033
0.246217
0.240877
0.235257
0.229621
0.224242
0.219365
0.215178
0.211881
0.209725
0.208971
0.209776
0.211999
0.215173
0.218378
0.220153
0.21888
0.213022
0.20153
0.184234
0.162399
0.26311
0.263501
0.26388
0.264075
0.263838
0.262974
0.261408
0.25907
0.255903
0.251878
0.247069
0.241649
0.235893
0.230092
0.224543
0.219509
0.215207
0.211858
0.209727
0.209092
0.210091
0.212495
0.215715
0.218695
0.219726
0.217001
0.208985
0.194705
0.174467
0.150337
0.021312
0.0125681
0.0189815
0.0365555
0.0412001
0.0492959
0.0585788
0.0674282
0.0754616
0.0830862
0.0900367
0.0962646
0.101756
0.106561
0.11072
0.114283
0.117299
0.119818
0.121888
0.123554
0.124865
0.125863
0.12661
0.127126
0.127531
0.127765
0.128106
0.128318
0.1288
0.12685
0.0194637
0.0160642
0.024447
0.036467
0.040642
0.0470849
0.0555222
0.0638727
0.0717673
0.0793795
0.086495
0.0929539
0.0987235
0.103833
0.10832
0.11222
0.115578
0.118437
0.120838
0.12282
0.124422
0.12567
0.126614
0.127257
0.12768
0.127843
0.127892
0.127669
0.127474
0.126688
0.0217073
0.024313
0.0311933
0.0377309
0.0392178
0.0444315
0.0512969
0.0591621
0.0669082
0.0745247
0.0818464
0.088632
0.0947919
0.100324
0.105251
0.109604
0.11342
0.116734
0.119584
0.122001
0.124018
0.12566
0.126957
0.127924
0.128598
0.128981
0.129136
0.129041
0.128906
0.128707
0.0253914
0.0302009
0.0373874
0.041312
0.0384241
0.0417049
0.0478847
0.0555857
0.0631956
0.0708392
0.0783349
0.0854234
0.0919646
0.0979001
0.103229
0.107981
0.112189
0.115889
0.119114
0.121899
0.124276
0.12627
0.12791
0.129216
0.130214
0.130919
0.131361
0.131544
0.131498
0.131328
0.0223951
0.0299207
0.0481249
0.0483388
0.0394338
0.0384567
0.0437236
0.050714
0.0586076
0.066693
0.0744658
0.081852
0.0887782
0.0951326
0.100875
0.10603
0.110633
0.114719
0.118324
0.121482
0.124225
0.126581
0.128574
0.130226
0.131557
0.132582
0.133316
0.133781
0.133954
0.134006
0.0140036
0.0271329
0.0550271
0.0555594
0.0392704
0.0344506
0.0381952
0.0436454
0.0517003
0.0605941
0.0689515
0.076797
0.0842287
0.0911265
0.0974034
0.103069
0.108163
0.112724
0.116787
0.12039
0.123566
0.126347
0.128756
0.130816
0.132545
0.13396
0.13507
0.135906
0.136431
0.136836
0.0108928
0.0237043
0.0483956
0.0572319
0.0419316
0.0286337
0.029441
0.0344968
0.0421081
0.0519852
0.0614735
0.0701159
0.0782303
0.0858121
0.0927615
0.0990664
0.104763
0.109894
0.114499
0.118619
0.122293
0.125556
0.128439
0.130966
0.133158
0.135034
0.1366
0.137888
0.13885
0.139684
0.00622163
0.0209302
0.0306472
0.0380874
0.0350248
0.0216145
0.0161977
0.020911
0.0288125
0.03939
0.0507653
0.0610807
0.0704111
0.0789564
0.0867619
0.093849
0.100264
0.10606
0.111286
0.115991
0.12022
0.124015
0.127412
0.130444
0.133136
0.135511
0.137579
0.139372
0.140841
0.142187
-0.00817714
0.0105913
0.00583326
0.00534881
0.00860869
0.00466018
-0.00216057
0.000500884
0.010001
0.0217276
0.0347294
0.047625
0.0592955
0.0695787
0.0787156
0.0869008
0.0942594
0.100883
0.106851
0.112233
0.117089
0.121473
0.12543
0.129002
0.13222
0.135116
0.137706
0.14003
0.142038
0.143935
-0.0346868
-0.00981003
-0.0202087
-0.0249421
-0.0245249
-0.0248615
-0.0279247
-0.0271751
-0.0173222
-0.00267973
0.0124771
0.0279613
0.0428438
0.056061
0.067438
0.0773384
0.0860757
0.0938403
0.100777
0.107002
0.112607
0.117669
0.122252
0.126408
0.130183
0.133616
0.136734
0.139583
0.142122
0.144557
-0.0658616
-0.0367372
-0.0465069
-0.0516588
-0.0541532
-0.0566965
-0.0586758
-0.0582725
-0.0514155
-0.0366604
-0.0177425
0.000755536
0.0188355
0.0362366
0.0511812
0.0638519
0.0747307
0.0841825
0.09248
0.0998256
0.106377
0.112259
0.117568
0.122381
0.126758
0.130754
0.134405
0.13777
0.140814
0.143749
-0.09633
-0.0653381
-0.0719484
-0.0752373
-0.0797012
-0.0846212
-0.0881788
-0.0889101
-0.0852475
-0.0746749
-0.0570035
-0.0350928
-0.0127467
0.00819259
0.0275776
0.0443693
0.0585945
0.0706786
0.0810358
0.0900033
0.0978509
0.104792
0.11099
0.116567
0.121616
0.126215
0.130416
0.134292
0.137817
0.141207
-0.12245
-0.0913776
-0.0946275
-0.095725
-0.101288
-0.107619
-0.112835
-0.115703
-0.114916
-0.108877
-0.0958934
-0.0762812
-0.0525318
-0.0274633
-0.00391707
0.0171998
0.0358275
0.051691
0.0650858
0.0764623
0.0862037
0.0946312
0.102009
0.10854
0.114378
0.119644
0.124421
0.128803
0.132786
0.13658
-0.141922
-0.11189
-0.112765
-0.112277
-0.118224
-0.1252
-0.131612
-0.136495
-0.13842
-0.13611
-0.128169
-0.113497
-0.0925735
-0.067664
-0.0416054
-0.0163959
0.0065192
0.0265364
0.0436712
0.0582271
0.0705571
0.0810346
0.0900155
0.0977997
0.104623
0.110669
0.116075
0.120968
0.125382
0.129514
-0.153646
-0.124771
-0.124855
-0.123744
-0.12956
-0.13672
-0.144007
-0.150277
-0.15435
-0.154975
-0.15109
-0.141456
-0.125392
-0.103721
-0.0784766
-0.0520506
-0.0264392
-0.00285892
0.0178905
0.0357773
0.0510191
0.063921
0.0748468
0.0841587
0.0921663
0.0991221
0.105222
0.110638
0.115463
0.119866
-0.156604
-0.129208
-0.129844
-0.12864
-0.134335
-0.141537
-0.149389
-0.156521
-0.161935
-0.164647
-0.16367
-0.157961
-0.146515
-0.129203
-0.107068
-0.0820575
-0.0561978
-0.0314302
-0.00846306
0.0118695
0.0295518
0.0446702
0.0574632
0.068289
0.0774904
0.0853596
0.092141
0.0980425
0.103225
0.107819
-0.151024
-0.125501
-0.126811
-0.125829
-0.131677
-0.13899
-0.14714
-0.154749
-0.160866
-0.164773
-0.165568
-0.162375
-0.154255
-0.140725
-0.122193
-0.0998993
-0.0755531
-0.0511131
-0.0279239
-0.00717847
0.0111687
0.0272479
0.0410072
0.0526726
0.0625555
0.0709398
0.0780791
0.0841932
0.0894995
0.0940567
-0.137571
-0.114385
-0.115566
-0.115663
-0.121473
-0.128727
-0.136979
-0.14458
-0.150857
-0.15515
-0.156713
-0.154738
-0.148485
-0.137486
-0.121956
-0.102723
-0.0811513
-0.0587075
-0.0372805
-0.017479
0.000284646
0.0158355
0.0291984
0.0405401
0.0501042
0.0581389
0.0648864
0.0705501
0.0753767
0.0793692
-0.117566
-0.0964461
-0.0976871
-0.0982235
-0.104079
-0.111263
-0.119076
-0.126255