/*--------------------------------*- C++ -*----------------------------------*\
  =========                 |
  \\      /  F ield         | OpenFOAM: The Open Source CFD Toolbox
   \\    /   O peration     | Website:  https://openfoam.org
    \\  /    A nd           | Version:  11
     \\/     M anipulation  |
\*---------------------------------------------------------------------------*/
FoamFile
{
    format      ascii;
    class       volScalarField;
    location    "5";
    object      p;
}
// * * * * * * * * * * * * * * * * * * * * * * * * * * * * * * * * * * * * * //

dimensions      [0 2 -2 0 0 0 0];

internalField   nonuniform List<scalar> 
12600
(
1.17245
1.17232
1.17224
1.1722
1.17215
1.17209
1.17201
1.17191
1.1718
1.17166
1.17149
1.17129
1.17104
1.17074
1.17038
1.16994
1.16939
1.16873
1.16791
1.16691
1.16569
1.16419
1.16235
1.16007
1.15725
1.15375
1.14941
1.14401
1.13729
1.12885
1.17238
1.17231
1.17224
1.1722
1.17215
1.17209
1.17201
1.17191
1.1718
1.17167
1.1715
1.1713
1.17106
1.17076
1.1704
1.16997
1.16943
1.16877
1.16797
1.16698
1.16577
1.16429
1.16247
1.16021
1.15743
1.15397
1.14967
1.14432
1.13763
1.12926
1.17235
1.17232
1.17226
1.17221
1.17216
1.1721
1.17202
1.17193
1.17182
1.17168
1.17152
1.17132
1.17109
1.1708
1.17045
1.17002
1.16949
1.16885
1.16806
1.1671
1.16592
1.16447
1.16269
1.16048
1.15775
1.15437
1.15015
1.14489
1.13827
1.13004
1.17234
1.17231
1.17226
1.17221
1.17216
1.17211
1.17203
1.17194
1.17183
1.1717
1.17155
1.17136
1.17113
1.17085
1.17051
1.17009
1.16959
1.16897
1.16821
1.16728
1.16614
1.16474
1.16301
1.16088
1.15823
1.15495
1.15085
1.14573
1.13925
1.13121
1.17233
1.17231
1.17227
1.17222
1.17218
1.17212
1.17205
1.17196
1.17186
1.17174
1.17159
1.1714
1.17118
1.17092
1.17059
1.1702
1.16971
1.16912
1.1684
1.16751
1.16642
1.16508
1.16343
1.16139
1.15885
1.1557
1.15176
1.14684
1.14057
1.13277
1.17232
1.17231
1.17228
1.17224
1.17219
1.17214
1.17207
1.17199
1.17189
1.17177
1.17163
1.17146
1.17125
1.171
1.17069
1.17032
1.16986
1.1693
1.16862
1.16779
1.16676
1.1655
1.16394
1.16201
1.15962
1.15663
1.15289
1.1482
1.1422
1.13472
1.17233
1.17231
1.17229
1.17225
1.17221
1.17216
1.17209
1.17202
1.17193
1.17182
1.17168
1.17152
1.17133
1.1711
1.17081
1.17046
1.17004
1.16952
1.16889
1.16811
1.16716
1.16599
1.16454
1.16274
1.16051
1.15773
1.15423
1.14982
1.14414
1.13705
1.17233
1.17232
1.1723
1.17227
1.17223
1.17218
1.17212
1.17205
1.17197
1.17187
1.17174
1.1716
1.17142
1.17121
1.17094
1.17063
1.17024
1.16977
1.16919
1.16848
1.16761
1.16654
1.16522
1.16358
1.16153
1.15897
1.15575
1.15167
1.14639
1.13975
1.17234
1.17233
1.17231
1.17228
1.17225
1.1722
1.17215
1.17209
1.17201
1.17192
1.17181
1.17168
1.17152
1.17133
1.17109
1.17081
1.17046
1.17004
1.16952
1.16889
1.16811
1.16715
1.16597
1.1645
1.16266
1.16036
1.15744
1.15375
1.14891
1.14281
1.17235
1.17235
1.17233
1.1723
1.17227
1.17223
1.17219
1.17213
1.17206
1.17198
1.17188
1.17177
1.17163
1.17146
1.17125
1.17101
1.1707
1.17034
1.16989
1.16933
1.16866
1.16782
1.16679
1.1655
1.16389
1.16187
1.1593
1.15602
1.15169
1.1462
1.17237
1.17236
1.17235
1.17232
1.1723
1.17226
1.17222
1.17217
1.17211
1.17204
1.17196
1.17186
1.17174
1.1716
1.17143
1.17122
1.17096
1.17065
1.17027
1.16981
1.16924
1.16853
1.16766
1.16657
1.16521
1.16349
1.16129
1.15847
1.15471
1.1499
1.17238
1.17238
1.17237
1.17235
1.17232
1.17229
1.17226
1.17222
1.17217
1.17211
1.17204
1.17196
1.17186
1.17175
1.17161
1.17144
1.17123
1.17099
1.17068
1.17031
1.16985
1.16928
1.16858
1.1677
1.1666
1.16519
1.16339
1.16106
1.15793
1.15386
1.1724
1.1724
1.17239
1.17237
1.17235
1.17233
1.1723
1.17227
1.17223
1.17218
1.17213
1.17206
1.17199
1.1719
1.1718
1.17167
1.17152
1.17133
1.1711
1.17083
1.17049
1.17006
1.16954
1.16888
1.16804
1.16697
1.16558
1.16377
1.1613
1.15804
1.17242
1.17242
1.17241
1.1724
1.17238
1.17236
1.17234
1.17231
1.17229
1.17225
1.17221
1.17217
1.17212
1.17206
1.17199
1.17191
1.17181
1.17169
1.17154
1.17136
1.17114
1.17086
1.17052
1.17008
1.16952
1.1688
1.16784
1.16656
1.16478
1.16238
1.17244
1.17244
1.17243
1.17242
1.17241
1.1724
1.17238
1.17236
1.17235
1.17233
1.1723
1.17228
1.17225
1.17222
1.17219
1.17215
1.1721
1.17205
1.17198
1.1719
1.1718
1.17168
1.17152
1.17131
1.17103
1.17065
1.17012
1.16939
1.16832
1.1668
1.17246
1.17246
1.17246
1.17245
1.17244
1.17243
1.17242
1.17242
1.17241
1.1724
1.17239
1.17239
1.17239
1.17238
1.17239
1.17239
1.1724
1.17241
1.17243
1.17244
1.17247
1.17249
1.17251
1.17253
1.17253
1.1725
1.17241
1.17223
1.17186
1.17123
1.17249
1.17248
1.17248
1.17248
1.17247
1.17247
1.17247
1.17247
1.17247
1.17247
1.17248
1.1725
1.17252
1.17255
1.17258
1.17263
1.17269
1.17277
1.17287
1.17298
1.17313
1.1733
1.1735
1.17374
1.17402
1.17433
1.17467
1.17502
1.17535
1.1756
1.17251
1.17251
1.17251
1.1725
1.1725
1.1725
1.17251
1.17252
1.17253
1.17255
1.17257
1.1726
1.17265
1.1727
1.17278
1.17287
1.17298
1.17312
1.1733
1.17351
1.17378
1.17409
1.17447
1.17493
1.17548
1.17612
1.17687
1.17774
1.17874
1.17982
1.17253
1.17253
1.17253
1.17253
1.17253
1.17254
1.17255
1.17256
1.17259
1.17262
1.17266
1.17271
1.17277
1.17286
1.17297
1.1731
1.17326
1.17347
1.17372
1.17403
1.1744
1.17486
1.17542
1.17608
1.17689
1.17785
1.17899
1.18035
1.18197
1.18383
1.17256
1.17256
1.17256
1.17256
1.17256
1.17257
1.17259
1.17261
1.17264
1.17268
1.17274
1.17281
1.1729
1.17301
1.17315
1.17332
1.17353
1.1738
1.17412
1.17452
1.17501
1.1756
1.17632
1.17718
1.17823
1.17949
1.181
1.18281
1.18499
1.18756
1.17258
1.17258
1.17258
1.17258
1.17259
1.1726
1.17263
1.17265
1.17269
1.17275
1.17281
1.1729
1.17301
1.17315
1.17332
1.17353
1.17379
1.17411
1.17451
1.17499
1.17558
1.1763
1.17717
1.17822
1.1795
1.18103
1.18288
1.18509
1.18778
1.19097
1.1726
1.1726
1.1726
1.17261
1.17262
1.17263
1.17266
1.1727
1.17274
1.17281
1.17289
1.17299
1.17312
1.17328
1.17348
1.17373
1.17403
1.1744
1.17486
1.17543
1.17611
1.17695
1.17796
1.17919
1.18067
1.18246
1.18461
1.18719
1.19031
1.19401
1.17263
1.17263
1.17263
1.17263
1.17264
1.17266
1.17269
1.17273
1.17279
1.17286
1.17295
1.17307
1.17322
1.1734
1.17363
1.17391
1.17425
1.17467
1.17519
1.17583
1.1766
1.17754
1.17869
1.18007
1.18174
1.18375
1.18617
1.18907
1.19256
1.19668
1.17265
1.17265
1.17265
1.17265
1.17266
1.17269
1.17272
1.17277
1.17283
1.17291
1.17302
1.17315
1.17331
1.17351
1.17376
1.17407
1.17445
1.17492
1.17549
1.17619
1.17704
1.17808
1.17934
1.18086
1.1827
1.18491
1.18756
1.19073
1.19452
1.19897
1.17267
1.17267
1.17267
1.17267
1.17268
1.17271
1.17275
1.1728
1.17287
1.17296
1.17307
1.17321
1.17339
1.17361
1.17388
1.17421
1.17462
1.17513
1.17575
1.1765
1.17743
1.17855
1.17991
1.18156
1.18354
1.18592
1.18877
1.19216
1.19619
1.20089
1.1727
1.17269
1.17268
1.17268
1.1727
1.17273
1.17277
1.17283
1.1729
1.17299
1.17311
1.17327
1.17345
1.17369
1.17398
1.17433
1.17477
1.17531
1.17597
1.17678
1.17776
1.17895
1.1804
1.18215
1.18425
1.18678
1.18979
1.19336
1.19758
1.20246
1.17273
1.17271
1.17269
1.17269
1.17271
1.17275
1.17279
1.17285
1.17292
1.17302
1.17315
1.17331
1.17351
1.17376
1.17406
1.17443
1.17489
1.17546
1.17615
1.177
1.17803
1.17928
1.1808
1.18263
1.18484
1.18747
1.19061
1.19433
1.1987
1.20372
1.17276
1.17273
1.17271
1.17271
1.17273
1.17276
1.1728
1.17286
1.17295
1.17305
1.17318
1.17335
1.17355
1.17381
1.17412
1.17451
1.17499
1.17557
1.17629
1.17717
1.17823
1.17953
1.18111
1.18301
1.18529
1.18801
1.19125
1.19506
1.19956
1.2047
1.1728
1.17274
1.17271
1.17271
1.17273
1.17277
1.17281
1.17287
1.17296
1.17307
1.1732
1.17337
1.17358
1.17384
1.17417
1.17456
1.17505
1.17565
1.17639
1.17728
1.17837
1.1797
1.18132
1.18327
1.1856
1.18838
1.19169
1.19558
1.20015
1.20538
1.17288
1.17275
1.17271
1.17272
1.17274
1.17277
1.17282
1.17288
1.17297
1.17307
1.17321
1.17338
1.1736
1.17386
1.17419
1.17459
1.17509
1.1757
1.17644
1.17735
1.17846
1.17981
1.18144
1.18341
1.18577
1.18858
1.19193
1.19586
1.20044
1.20565
1.12128
1.11832
1.11584
1.11369
1.11142
1.10892
1.10626
1.1035
1.10064
1.09767
1.09456
1.09131
1.08787
1.08423
1.08032
1.07608
1.07145
1.06633
1.06061
1.05413
1.04671
1.03811
1.02799
1.01591
1.00132
0.983188
0.9612
0.929497
0.903597
0.823933
1.1227
1.12015
1.11786
1.11574
1.11352
1.11113
1.10866
1.10613
1.10353
1.10084
1.09803
1.09508
1.09196
1.08865
1.08509
1.08123
1.07701
1.07235
1.06714
1.06126
1.05453
1.04675
1.03762
1.02676
1.01369
0.997555
0.977966
0.950737
0.925642
0.858897
1.12323
1.12112
1.11919
1.11725
1.11521
1.11307
1.11089
1.10865
1.10633
1.10391
1.10139
1.09874
1.09593
1.09295
1.08975
1.08628
1.08249
1.07831
1.07364
1.06838
1.06238
1.05546
1.04736
1.03777
1.02626
1.01214
0.994972
0.971708
0.948657
0.893315
1.12445
1.12276
1.12119
1.11945
1.11758
1.11567
1.11372
1.11173
1.10966
1.10751
1.10527
1.10292
1.10044
1.0978
1.09496
1.0919
1.08855
1.08486
1.08076
1.07614
1.07088
1.06483
1.05777
1.04944
1.03946
1.02731
1.01249
0.992836
0.972332
0.927006
1.12614
1.12475
1.12346
1.1219
1.12022
1.11854
1.11685
1.11511
1.11331
1.11144
1.10949
1.10745
1.1053
1.10301
1.10055
1.0979
1.09502
1.09184
1.08831
1.08435
1.07985
1.07468
1.06867
1.0616
1.05314
1.0429
1.03037
1.01407
0.996334
0.959821
1.12826
1.12715
1.12613
1.12479
1.12332
1.12187
1.12043
1.11895
1.11741
1.11582
1.11416
1.11243
1.11061
1.10867
1.10661
1.10438
1.10196
1.09931
1.09637
1.09307
1.08933
1.08505
1.08008
1.07424
1.06727
1.05886
1.04852
1.03532
1.02037
0.991605
1.13082
1.12998
1.12921
1.12808
1.12682
1.1256
1.12441
1.12318
1.12191
1.1206
1.11924
1.11783
1.11634
1.11477
1.1131
1.11131
1.10937
1.10724
1.10489
1.10226
1.09928
1.09587
1.09192
1.08729
1.08174
1.07507
1.06681
1.05643
1.04419
1.02215
1.13381
1.13322
1.1327
1.13179
1.13074
1.12976
1.12881
1.12784
1.12684
1.12581
1.12475
1.12365
1.12251
1.12131
1.12004
1.11868
1.11721
1.11561
1.11385
1.11188
1.10965
1.1071
1.10413
1.10064
1.09646
1.09141
1.08508
1.07726
1.06755
1.05125
1.13724
1.13689
1.13661
1.13591
1.13507
1.13432
1.13362
1.13291
1.13217
1.13142
1.13066
1.12989
1.12908
1.12825
1.12738
1.12645
1.12545
1.12437
1.12319
1.12186
1.12036
1.11863
1.1166
1.1142
1.11128
1.10773
1.10318
1.09761
1.09024
1.07876
1.14109
1.14097
1.14091
1.14041
1.1398
1.13927
1.13881
1.13835
1.13788
1.13741
1.13695
1.13649
1.13603
1.13556
1.13507
1.13457
1.13404
1.13346
1.13283
1.13213
1.13132
1.13036
1.12922
1.12782
1.12607
1.12387
1.12093
1.11731
1.11205
1.10454
1.14533
1.14542
1.14556
1.14528
1.14487
1.14457
1.14435
1.14414
1.14393
1.14374
1.14357
1.14342
1.14328
1.14317
1.14306
1.14297
1.14288
1.14279
1.14269
1.14257
1.14241
1.14218
1.14185
1.14137
1.14066
1.13967
1.13813
1.13618
1.13278
1.12844
1.14991
1.1502
1.15054
1.15045
1.15026
1.15018
1.15019
1.15022
1.15026
1.15033
1.15045
1.15059
1.15078
1.151
1.15126
1.15155
1.15189
1.15225
1.15265
1.15307
1.15351
1.15394
1.15434
1.15468
1.1549
1.15496
1.15462
1.15407
1.15226
1.15033
1.15479
1.15525
1.15576
1.15587
1.15588
1.15602
1.15625
1.15651
1.15679
1.15712
1.1575
1.15793
1.15841
1.15895
1.15955
1.16021
1.16093
1.16172
1.16257
1.16349
1.16446
1.16548
1.16653
1.16759
1.16861
1.16956
1.17024
1.17085
1.17037
1.17018
1.15989
1.1605
1.16116
1.16146
1.16167
1.162
1.16244
1.16291
1.16343
1.16399
1.16462
1.16531
1.16608
1.16691
1.16782
1.16881
1.16989
1.17106
1.17232
1.17367
1.17511
1.17665
1.17826
1.17993
1.18162
1.18332
1.18484
1.18639
1.18699
1.18808
1.16511
1.16586
1.16665
1.16712
1.16751
1.16804
1.16866
1.16934
1.17006
1.17084
1.1717
1.17264
1.17365
1.17475
1.17594
1.17723
1.17862
1.18012
1.18174
1.18347
1.18532
1.18729
1.18936
1.19154
1.19379
1.19608
1.19827
1.20054
1.20194
1.20408
1.17036
1.17123
1.17213
1.17274
1.17332
1.17401
1.17481
1.17567
1.17658
1.17756
1.17862
1.17977
1.181
1.18233
1.18377
1.18532
1.18698
1.18876
1.19068
1.19273
1.19492
1.19724
1.1997
1.20228
1.20496
1.20771
1.21041
1.21319
1.2152
1.21807
1.17554
1.1765
1.17748
1.17824
1.17897
1.17982
1.18077
1.18178
1.18286
1.18401
1.18525
1.18658
1.18801
1.18954
1.19118
1.19294
1.19483
1.19685
1.19901
1.20132
1.20378
1.20639
1.20914
1.21203
1.21503
1.21811
1.22117
1.22429
1.22674
1.23004
1.18053
1.18156
1.18262
1.18349
1.18436
1.18535
1.18643
1.18757
1.18879
1.19009
1.19148
1.19296
1.19455
1.19624
1.19805
1.19999
1.20206
1.20427
1.20662
1.20913
1.21179
1.21461
1.21757
1.22068
1.2239
1.2272
1.23049
1.23379
1.23652
1.23999
1.18524
1.18633
1.18744
1.18841
1.1894
1.1905
1.19169
1.19295
1.19428
1.19569
1.1972
1.19881
1.20052
1.20235
1.20429
1.20636
1.20857
1.21091
1.21341
1.21606
1.21886
1.22183
1.22494
1.22818
1.23153
1.23495
1.23836
1.24171
1.24456
1.24791
1.18958
1.19071
1.19186
1.19292
1.19401
1.1952
1.19647
1.19782
1.19924
1.20075
1.20235
1.20405
1.20586
1.20778
1.20981
1.21198
1.21428
1.21672
1.21931
1.22206
1.22495
1.228
1.23119
1.2345
1.23791
1.24137
1.24479
1.2481
1.25096
1.25391
1.19349
1.19466
1.19583
1.19696
1.19813
1.19939
1.20073
1.20214
1.20363
1.2052
1.20687
1.20863
1.2105
1.21249
1.21459
1.21681
1.21917
1.22167
1.22431
1.2271
1.23004
1.23312
1.23633
1.23966
1.24306
1.24649
1.24986
1.25306
1.25584
1.25838
1.19694
1.19813
1.19932
1.20049
1.20172
1.20303
1.20442
1.20587
1.20741
1.20902
1.21073
1.21254
1.21445
1.21646
1.21859
1.22085
1.22323
1.22575
1.22841
1.2312
1.23414
1.23721
1.2404
1.24368
1.24703
1.25038
1.25363
1.25667
1.25927
1.2614
1.1999
1.20111
1.2023
1.20352
1.20479
1.20613
1.20754
1.20903
1.21058
1.21222
1.21395
1.21577
1.21769
1.21972
1.22185
1.22411
1.22649
1.22899
1.23163
1.2344
1.23729
1.24031
1.24343
1.24664
1.24988
1.25309
1.25618
1.25899
1.26131
1.26291
1.20239
1.2036
1.20481
1.20604
1.20733
1.2087
1.21012
1.21162
1.21318
1.21483
1.21656
1.21837
1.22029
1.2223
1.22442
1.22665
1.229
1.23147
1.23406
1.23677
1.23959
1.24252
1.24554
1.24862
1.25171
1.25473
1.25759
1.2601
1.26207
1.26314
1.20443
1.20565
1.20685
1.2081
1.2094
1.21077
1.21219
1.21368
1.21524
1.21688
1.2186
1.2204
1.22229
1.22428
1.22636
1.22855
1.23085
1.23325
1.23577
1.2384
1.24112
1.24394
1.24682
1.24974
1.25263
1.25542
1.25798
1.26013
1.26168
1.2621
1.20608
1.2073
1.2085
1.20974
1.21104
1.2124
1.21381
1.21527
1.2168
1.21841
1.22009
1.22186
1.2237
1.22564
1.22767
1.2298
1.23202
1.23435
1.23678
1.2393
1.2419
1.24458
1.24731
1.25004
1.25272
1.25524
1.25749
1.25921
1.26031
1.25979
1.20739
1.20863
1.20981
1.21103
1.21232
1.21367
1.21508
1.21653
1.21806
1.21964
1.2213
1.22303
1.22485
1.22674
1.22871
1.23077
1.23291
1.23513
1.23744
1.23982
1.24228
1.24479
1.24731
1.2498
1.25221
1.25441
1.25628
1.25752
1.25819
1.25657
1.20852
1.20973
1.21084
1.212
1.21324
1.21453
1.21587
1.21726
1.21871
1.22024
1.22184
1.22352
1.22529
1.22713
1.22905
1.23104
1.23312
1.23527
1.23747
1.23972
1.24202
1.24436
1.24668
1.24895
1.25109
1.25296
1.25444
1.25516
1.25538
1.2526
1.20964
1.21071
1.21169
1.21286
1.21416
1.21548
1.21682
1.2182
1.21964
1.22113
1.22269
1.22431
1.226
1.22776
1.22958
1.23147
1.23341
1.2354
1.23747
1.23958
1.24171
1.24382
1.24588
1.24785
1.24965
1.25112
1.25216
1.25224
1.25201
1.24762
1.21092
1.21147
1.21197
1.21291
1.21412
1.21539
1.21669
1.21806
1.21951
1.22102
1.22259
1.22421
1.22587
1.22758
1.22934
1.23116
1.23302
1.23486
1.23675
1.23867
1.24062
1.24256
1.24443
1.24616
1.24766
1.24876
1.24938
1.2487
1.24822
1.24174
1.23533
1.22854
1.22079
1.21235
1.20352
1.19419
1.18437
1.17422
1.16423
1.15483
1.14683
1.13959
1.13363
1.12981
1.12783
1.12698
1.12566
1.12385
1.12283
1.1227
1.12012
1.11566
1.11128
1.10876
1.10797
1.10607
1.09973
1.08692
1.06854
1.0466
1.24442
1.23902
1.23232
1.22488
1.21688
1.20822
1.19897
1.18896
1.1785
1.16772
1.15746
1.14762
1.13841
1.13137
1.12813
1.12702
1.12547
1.12351
1.12251
1.12228
1.11871
1.1135
1.10893
1.10672
1.10567
1.10203
1.09228
1.0757
1.05458
1.03235
1.2449
1.23997
1.23424
1.22794
1.22037
1.21182
1.20248
1.19247
1.18203
1.17141
1.16084
1.15064
1.14108
1.13334
1.12898
1.1272
1.12538
1.12322
1.12225
1.12219
1.11847
1.11181
1.10626
1.1036
1.10187
1.09595
1.08274
1.0633
1.04161
1.02228
1.24674
1.24334
1.23896
1.23314
1.22629
1.21844
1.20941
1.19938
1.18849
1.17709
1.16572
1.15476
1.14449
1.13597
1.13045
1.12781
1.1254
1.12292
1.12214
1.12241
1.11787
1.1089
1.10161
1.09869
1.0967
1.08864
1.07304
1.05314
1.03484
1.02157
1.24669
1.24407
1.24051
1.23586
1.23
1.22295
1.21463
1.20506
1.19433
1.18276
1.17086
1.15918
1.14815
1.13887
1.13235
1.12873
1.12576
1.12294
1.12248
1.12278
1.11704
1.10421
1.09473
1.09278
1.09149
1.08275
1.0673
1.05035
1.03775
1.02961
1.24615
1.24449
1.24196
1.23817
1.23301
1.2266
1.21883
1.20962
1.19906
1.18744
1.17521
1.16298
1.15132
1.14132
1.13411
1.12978
1.12631
1.12338
1.12308
1.12297
1.11526
1.09739
1.08605
1.08729
1.08861
1.08016
1.06624
1.05329
1.04564
1.04213
1.2451
1.24425
1.24255
1.2395
1.2352
1.22958
1.22248
1.21374
1.20341
1.19174
1.1792
1.16646
1.15419
1.14349
1.1356
1.13072
1.12692
1.12386
1.12333
1.12232
1.11164
1.08881
1.07791
1.085
1.08893
1.08118
1.06891
1.05881
1.05447
1.05269
1.24375
1.24364
1.24271
1.2404
1.23683
1.23195
1.22555
1.21739
1.20741
1.19583
1.18307
1.16985
1.15698
1.14559
1.13698
1.13151
1.12742
1.12421
1.12297
1.12021
1.10567
1.08061
1.07365
1.08725
1.09285
1.08462
1.0728
1.06439
1.06258
1.06415
1.24221
1.24273
1.24247
1.24084
1.23796
1.2338
1.2281
1.22053
1.21099
1.19959
1.18674
1.17313
1.15968
1.14762
1.13832
1.13222
1.12778
1.12434
1.12216
1.11689
1.09883
1.07582
1.07497
1.09332
1.09886
1.08837
1.07631
1.06958
1.07124
1.07767
1.24057
1.24163
1.24195
1.24093
1.2387
1.23523
1.2302
1.22325
1.21418
1.20304
1.19016
1.17624
1.16227
1.14955
1.13958
1.13289
1.12805
1.12431
1.12103
1.1133
1.09443
1.07593
1.08168
1.10196
1.10466
1.09105
1.07891
1.07496
1.08156
1.09359
1.23889
1.24039
1.24122
1.24074
1.23912
1.2363
1.23193
1.22559
1.21703
1.2062
1.19337
1.1792
1.16475
1.15141
1.14077
1.1335
1.12827
1.12411
1.11987
1.11036
1.09295
1.07975
1.08958
1.10953
1.10836
1.09177
1.08072
1.08158
1.09417
1.11132
1.23717
1.23907
1.24033
1.24034
1.23928
1.23707
1.23333
1.22761
1.21958
1.20912
1.19639
1.18203
1.16713
1.15319
1.14191
1.13406
1.12842
1.12382
1.11871
1.1084
1.0929
1.08425
1.09642
1.11383
1.10825
1.09007
1.08242
1.09005
1.10907
1.1296
1.23544
1.23769
1.23933
1.23978
1.23923
1.23758
1.23444
1.22933
1.22185
1.21178
1.19922
1.18473
1.16942
1.15491
1.14299
1.13458
1.12852
1.12347
1.11756
1.10689
1.09331
1.08788
1.10066
1.11399
1.10435
1.08681
1.08566
1.10083
1.12525
1.14647
1.23369
1.23627
1.23826
1.2391
1.23902
1.23789
1.23531
1.23079
1.22386
1.21423
1.20188
1.1873
1.17163
1.15655
1.14402
1.13505
1.12857
1.12308
1.11649
1.10568
1.09388
1.09086
1.10292
1.11147
1.09831
1.08536
1.09171
1.11388
1.14136
1.15915
1.23197
1.23482
1.23711
1.23832
1.23867
1.23803
1.23598
1.23203
1.22565
1.21647
1.20437
1.18975
1.17374
1.15813
1.14499
1.13548
1.12859
1.12266
1.11551
1.10477
1.09446
1.09341
1.104
1.10837
1.09478
1.08784
1.10074
1.12765
1.15455
1.1645
1.23028
1.23335
1.2359
1.23745
1.23821
1.23803
1.23648
1.23306
1.22723
1.21852
1.2067
1.19209
1.17578
1.15964
1.14591
1.13587
1.12856
1.12223
1.11461
1.10405
1.09502
1.09568
1.10439
1.10597
1.09523
1.09389
1.1111
1.13825
1.161
1.16016
1.2286
1.23185
1.23467
1.23652
1.23765
1.2379
1.23683
1.23392
1.22863
1.22039
1.20888
1.19431
1.17773
1.16109
1.14677
1.13621
1.12851
1.12179
1.11381
1.1035
1.09566
1.0975
1.10449
1.10498
1.09781
1.10032
1.11984
1.14352
1.1589
1.14771
1.22694
1.23035
1.23341
1.23555
1.23702
1.23767
1.23704
1.23464
1.22986
1.2221
1.21093
1.19643
1.17961
1.16248
1.14759
1.13652
1.12842
1.12136
1.11308
1.10308
1.09634
1.09877
1.10468
1.10478
1.10076
1.10604
1.12553
1.14412
1.15025
1.13076
1.2253
1.22883
1.23212
1.23454
1.23631
1.23734
1.23715
1.23521
1.23094
1.22366
1.21284
1.19845
1.18142
1.16382
1.14835
1.13678
1.12831
1.12093
1.11242
1.10277
1.09702
1.0997
1.10493
1.10522
1.10364
1.11099
1.12851
1.14092
1.13772
1.11121
1.2237
1.22733
1.23081
1.23349
1.23555
1.23693
1.23716
1.23567
1.23189
1.22509
1.21464
1.20037
1.18315
1.16509
1.14907
1.13701
1.12818
1.12051
1.11183
1.10253
1.09763
1.10048
1.10532
1.10614
1.10641
1.11497
1.12897
1.13444
1.123
1.09102
1.22214
1.22583
1.22948
1.2324
1.23474
1.23645
1.23707
1.23603
1.23272
1.22639
1.21632
1.20221
1.18482
1.16632
1.14974
1.13721
1.12803
1.1201
1.11129
1.10234
1.09816
1.1012
1.10587
1.10739
1.10907
1.11747
1.12675
1.12521
1.10729
1.07109
1.22064
1.22436
1.22813
1.23128
1.23389
1.23591
1.23691
1.2363
1.23344
1.22758
1.21789
1.20396
1.18643
1.16749
1.15037
1.13737
1.12787
1.1197
1.11078
1.10217
1.09864
1.1019
1.1066
1.10881
1.11115
1.11798
1.12225
1.11421
1.09152
1.05238
1.21921
1.22292
1.22678
1.23012
1.233
1.23532
1.23668
1.23648
1.23407
1.22867
1.21938
1.20563
1.18797
1.1686
1.15095
1.13749
1.12768
1.11931
1.11032
1.10202
1.09907
1.1026
1.10741
1.11029
1.11245
1.11656
1.11578
1.10261
1.07605
1.03539
1.21786
1.22153
1.22544
1.22894
1.23206
1.23467
1.23639
1.23659
1.23461
1.22966
1.22076
1.20723
1.18946
1.16967
1.15148
1.13759
1.12748
1.11894
1.10987
1.10187
1.09949
1.10334
1.10832
1.11152
1.11295
1.11327
1.10747
1.09085
1.06174
1.0196
1.2166
1.22018
1.2241
1.22774
1.2311
1.23398
1.23603
1.23665
1.2351
1.23058
1.22208
1.20876
1.19089
1.17069
1.15197
1.13764
1.12727
1.11856
1.10943
1.10167
1.09991
1.1041
1.10938
1.11226
1.11248
1.10852
1.09865
1.07953
1.04879
1.00469
1.21544
1.2189
1.22278
1.2265
1.23009
1.23327
1.23557
1.23654
1.23545
1.23139
1.2233
1.21022
1.19227
1.17166
1.15242
1.13768
1.12706
1.11821
1.10903
1.10149
1.10033
1.10506
1.11054
1.1129
1.11093
1.10347
1.09067
1.06927
1.03604
0.99096
1.2144
1.21772
1.22152
1.22523
1.22896
1.23259
1.23537
1.23663
1.23584
1.23219
1.22448
1.21162
1.19359
1.17257
1.15279
1.13764
1.12678
1.11781
1.10857
1.10129
1.10067
1.10589
1.11163
1.11361
1.10969
1.09937
1.08399
1.05956
1.02314
0.978802
1.21351
1.21664
1.22039
1.2241
1.22771
1.23131
1.23448
1.23626
1.23602
1.23284
1.22556
1.21297
1.19491
1.17353
1.15327
1.13771
1.12661
1.11751
1.10817
1.10113
1.10111
1.10643
1.11156
1.11212
1.10654
1.09482
1.07694
1.04868
1.00897
0.966991
1.21275
1.21555
1.21931
1.22328
1.22725
1.2311
1.23442
1.2364
1.23635
1.23353
1.22655
1.21408
1.19586
1.17406
1.15334
1.13747
1.12627
1.11712
1.10777
1.10104
1.10174
1.1079
1.11304
1.11266
1.10559
1.09178
1.07076
1.03924
0.99843
0.958878
1.21208
1.21421
1.2174
1.22116
1.22518
1.22943
1.23327
1.23591
1.23648
1.23423
1.22792
1.21593
1.19773
1.17543
1.15399
1.13746
1.12592
1.1165
1.10692
1.10063
1.10194
1.1084
1.11274
1.11015
1.1003
1.08367
1.05892
1.02293
0.979868
0.944042
0.69994
0.697594
0.698729
0.721042
0.754333
0.785107
0.815089
0.843858
0.86938
0.892477
0.913714
0.933017
0.950447
0.966174
0.980377
0.99321
1.00482
1.01535
1.02492
1.03365
1.04164
1.04898
1.05576
1.06205
1.06797
1.07376
1.07951
1.08574
1.09288
1.09245
0.702826
0.698122
0.707061
0.72043
0.74538
0.772272
0.802511
0.832087
0.85793
0.881539
0.903449
0.923453
0.941523
0.957831
0.972563
0.985879
0.997932
1.00886
1.01881
1.02787
1.03616
1.04377
1.05078
1.05725
1.06325
1.06884
1.07408
1.07848
1.0839
1.08677
0.704014
0.704813
0.717891
0.723991
0.736797
0.756339
0.783859
0.813446
0.841206
0.866237
0.889128
0.910116
0.929209
0.946496
0.962131
0.976281
0.989108
1.00076
1.01136
1.02103
1.02988
1.03799
1.04545
1.05233
1.05868
1.06451
1.07002
1.0749
1.08007
1.08526
0.703207
0.710694
0.725384
0.733773
0.731681
0.742009
0.764892
0.794322
0.825198
0.852814
0.877299
0.899601
0.919969
0.938427
0.95508
0.970119
0.983732
0.996079
1.0073
1.01753
1.02687
1.03544
1.04331
1.05057
1.05731
1.06355
1.06943
1.0749
1.08004
1.08503
0.70242
0.712687
0.729126
0.7405
0.730466
0.723752
0.742133
0.771934
0.805901
0.837465
0.864487
0.888415
0.910159
0.929864
0.947596
0.963554
0.977952
0.990974
1.00278
1.01352
1.02332
1.03229
1.04052
1.04811
1.05513
1.06163
1.06768
1.07333
1.07851
1.08347
0.700599
0.713043
0.721866
0.726787
0.721387
0.706862
0.714825
0.743325
0.778034
0.814365
0.846274
0.873346
0.897083
0.918294
0.93731
0.954384
0.969746
0.983597
0.996124
1.00749
1.01784
1.0273
1.03597
1.04396
1.05132
1.05815
1.06448
1.07041
1.07589
1.08119
0.686284
0.699837
0.692362
0.689414
0.689963
0.683533
0.682401
0.70711
0.743195
0.782642
0.820386
0.853008
0.880353
0.903826
0.924525
0.943002
0.959563
0.974452
0.987881
1.00003
1.01107
1.02113
1.03035
1.03882
1.04664
1.05389
1.06062
1.06692
1.07275
1.0784
0.651969
0.666888
0.647791
0.638401
0.640179
0.643685
0.645267
0.661914
0.699597
0.743438
0.786235
0.826021
0.859061
0.8862
0.909337
0.929612
0.947614
0.963716
0.978196
0.991269
1.00311
1.01389
1.02373
1.03275
1.04107
1.04877
1.05591
1.06259
1.06877
1.07477
0.603185
0.62227
0.602948
0.589404
0.5878
0.594433
0.602737
0.616812
0.648035
0.694154
0.743063
0.790024
0.830753
0.863705
0.890673
0.913526
0.933386
0.950925
0.966597
0.980706
0.993469
1.00506
1.01562
1.02529
1.03418
1.04239
1.05
1.05711
1.06368
1.07005
0.552532
0.577193
0.563256
0.548412
0.543106
0.546994
0.558172
0.573885
0.599614
0.641135
0.692753
0.745064
0.792908
0.833772
0.866609
0.893465
0.916051
0.935497
0.952599
0.967875
0.981652
0.994152
1.00554
1.01597
1.02554
1.03437
1.04253
1.05016
1.05719
1.064
0.51161
0.539294
0.530565
0.516572
0.508388
0.50792
0.517375
0.533969
0.557228
0.592057
0.640245
0.693639
0.747575
0.795554
0.835435
0.867948
0.894549
0.916743
0.935749
0.95242
0.96731
0.98077
0.993034
1.00427
1.0146
1.02413
1.03296
1.04119
1.04879
1.05612
0.484752
0.512122
0.506902
0.493919
0.483615
0.479311
0.484675
0.499671
0.521242
0.55063
0.591424
0.642427
0.697408
0.750298
0.79707
0.83604
0.867797
0.893781
0.915428
0.933918
0.950113
0.964588
0.977712
0.989729
1.0008
1.01106
1.02058
1.02948
1.03773
1.04569
0.472045
0.497963
0.494748
0.482348
0.47028
0.462396
0.462954
0.474302
0.493343
0.518671
0.552643
0.596959
0.648702
0.702423
0.753885
0.798477
0.835586
0.86603
0.891025
0.911871
0.929691
0.945315
0.959311
0.972054
0.983787
0.994679
1.00483
1.01436
1.02323
1.03179
0.475012
0.497631
0.495719
0.482951
0.469411
0.458622
0.454625
0.460968
0.475983
0.497287
0.52553
0.562622
0.608431
0.659327
0.710726
0.758209
0.799483
0.834058
0.862531
0.886032
0.90575
0.922687
0.937598
0.951018
0.963306
0.974707
0.985367
0.995433
1.00489
1.01403
0.494801
0.510132
0.508138
0.495528
0.480681
0.467715
0.460157
0.461265
0.471168
0.487789
0.510653
0.541005
0.57968
0.625192
0.673014
0.720092
0.763048
0.800111
0.831178
0.856953
0.878426
0.896608
0.91236
0.926349
0.939062
0.950845
0.961913
0.97244
0.982425
0.9921
0.526931
0.535323
0.531716
0.518457
0.502923
0.488451
0.478139
0.474866
0.479564
0.491022
0.50844
0.532432
0.563826
0.602211
0.644876
0.688493
0.730507
0.767639
0.799446
0.826218
0.848582
0.867399
0.883533
0.897719
0.910525
0.922359
0.933463
0.944027
0.954063
0.963762
0.568381
0.571004
0.565211
0.550771
0.534442
0.51875
0.506774
0.500162
0.500284
0.506688
0.518828
0.536992
0.561806
0.593206
0.629572
0.667977
0.705746
0.740251
0.770485
0.796269
0.817898
0.836051
0.851511
0.864972
0.876991
0.888012
0.898336
0.908198
0.917607
0.92668
0.617064
0.614506
0.606709
0.590974
0.573731
0.557065
0.543618
0.534628
0.531218
0.533422
0.540957
0.554071
0.573166
0.598156
0.627877
0.660157
0.691832
0.721536
0.747739
0.770203
0.788975
0.804587
0.817653
0.8288
0.838598
0.847427
0.855634
0.863897
0.871844
0.879788
0.670457
0.663302
0.653995
0.637297
0.619234
0.601685
0.58699
0.576392
0.570486
0.56955
0.573593
0.58275
0.597159
0.616498
0.639695
0.66508
0.690204
0.713487
0.734044
0.751254
0.765115
0.776089
0.784734
0.791494
0.796767
0.800137
0.802705
0.806716
0.813902
0.821954
0.72471
0.715341
0.705077
0.688167
0.669742
0.651754
0.636465
0.624548
0.617017
0.614082
0.615761
0.62207
0.632883
0.647612
0.665047
0.683983
0.7021
0.718281
0.731987
0.742457
0.749777
0.754163
0.755807
0.754227
0.750414
0.74747
0.746288
0.744427
0.745277
0.749539
0.777161
0.767753
0.757452
0.741487
0.723581
0.705969
0.690524
0.678296
0.670119
0.666274
0.66672
0.671252
0.679417
0.690411
0.702962
0.715718
0.727294
0.736604
0.742972
0.74614
0.746146
0.742216
0.734921
0.726433
0.71698
0.704681
0.690703
0.679515
0.674162
0.674197
0.825213
0.817959
0.808668
0.794828
0.77848
0.762358
0.74807
0.736507
0.728745
0.725011
0.725124
0.728668
0.734918
0.742862
0.751246
0.758819
0.764494
0.767478
0.767227
0.763638
0.756568
0.746579
0.733697
0.717269
0.697167
0.675126
0.65425
0.637023
0.625451
0.621663
0.867073
0.863672
0.856892
0.845829
0.831855
0.817873
0.805633
0.795932
0.789794
0.787303
0.78806
0.791482
0.796713
0.80259
0.807895
0.811513
0.812531
0.810394
0.804713
0.795571
0.782927
0.767079
0.747956
0.725569
0.700825
0.675427
0.651405
0.631279
0.616631
0.611061
0.90159
0.902681
0.900293
0.892244
0.881268
0.869747
0.85994
0.852798
0.849125
0.84894
0.851508
0.856038
0.861582
0.866768
0.870349
0.871244
0.868623
0.862117
0.851558
0.837143
0.819156
0.798061
0.774405
0.748912
0.722495
0.696495
0.672689
0.653514
0.639562
0.635476
0.928421
0.933253
0.935843
0.931491
0.9242
0.915745
0.908937
0.904796
0.904071
0.906945
0.912559
0.919481
0.926487
0.932188
0.935131
0.934142
0.92851
0.917926
0.902472
0.882597
0.859158
0.833151
0.805678
0.777871
0.750888
0.726095
0.705005
0.689597
0.680314
0.681794
0.949792
0.954673
0.961232
0.9613
0.958476
0.954042
0.95094
0.950566
0.953548
0.960086
0.969064
0.978868
0.988181
0.995072
0.998006
0.995826
0.987767
0.973599
0.953746
0.929113
0.901111
0.871354
0.841458
0.812915
0.787109
0.765384
0.749182
0.739536
0.737624
0.744854
0.967753
0.97019
0.977491
0.981636
0.983562
0.983685
0.984719
0.988527
0.995788
1.0061
1.01844
1.03146
1.04316
1.0515
1.05493
1.05216
1.04238
1.02563
1.00272
0.975097
0.94468
0.913634
0.883968
0.857072
0.834319
0.81681
0.80655
0.80362
0.806186
0.808879
0.985493
0.983268
0.988445
0.99522
1.00076
1.00527
1.01028
1.01795
1.02894
1.04295
1.05873
1.07448
1.08815
1.09771
1.10137
1.09767
1.08586
1.06641
1.04113
1.01256
0.983059
0.953628
0.925267
0.900009
0.88206
0.871639
0.866929
0.864091
0.865174
0.867845
1.00505
0.99751
0.998091
1.00266
1.01225
1.02066
1.02903
1.03969
1.05349
1.07027
1.08866
1.10654
1.12167
1.13202
1.136
1.13245
1.12066
1.1012
1.07538
1.04241
1.01013
0.981657
0.957739
0.93842
0.925241
0.916074
0.910068
0.913064
0.915203
0.90793
1.02528
1.01441
1.00979
1.01333
1.02267
1.03358
1.04424
1.05689
1.07239
1.09054
1.11021
1.12918
1.14485
1.15426
1.15487
1.14458
1.12371
1.0965
1.06691
1.03923
1.01444
0.996301
0.982182
0.970226
0.964579
0.962491
0.957865
0.948235
0.934528
0.917741
1.11986
1.11304
1.10284
1.09092
1.07801
1.06397
1.04838
1.03109
1.01246
0.993069
0.973633
0.954987
0.938131
0.924065
0.913744
0.907781
0.906153
0.909106
0.916602
0.927892