/*--------------------------------*- C++ -*----------------------------------*\
  =========                 |
  \\      /  F ield         | OpenFOAM: The Open Source CFD Toolbox
   \\    /   O peration     | Website:  https://openfoam.org
    \\  /    A nd           | Version:  11
     \\/     M anipulation  |
\*---------------------------------------------------------------------------*/
FoamFile
{
    format      ascii;
    class       volScalarField;
    location    "5";
    object      p;
}
// * * * * * * * * * * * * * * * * * * * * * * * * * * * * * * * * * * * * * //

dimensions      [0 2 -2 0 0 0 0];

internalField   nonuniform List<scalar> 
12600
(
0.0874468
0.0873102
0.0872457
0.0872261
0.0872081
0.0871837
0.0871561
0.0871271
0.0870959
0.0870614
0.0870224
0.086978
0.0869268
0.0868674
0.0867978
0.0867158
0.0866184
0.0865021
0.0863634
0.0861974
0.085997
0.0857545
0.0854612
0.0851056
0.0846733
0.0841469
0.0835049
0.0827175
0.0817511
0.0804982
0.0873714
0.0873014
0.0872482
0.0872253
0.0872064
0.0871827
0.0871557
0.087127
0.087096
0.0870618
0.0870233
0.0869792
0.0869285
0.0868696
0.0868006
0.0867195
0.0866233
0.0865082
0.0863708
0.0862067
0.0860086
0.0857693
0.0854793
0.0851275
0.0847002
0.0841798
0.0835486
0.0827731
0.0818698
0.080841
0.0873361
0.0873028
0.0872566
0.0872275
0.0872071
0.0871843
0.0871581
0.0871297
0.087099
0.0870653
0.0870272
0.0869838
0.0869339
0.0868759
0.0868082
0.0867288
0.0866351
0.0865223
0.0863881
0.0862266
0.0860325
0.0857982
0.0855146
0.0851704
0.0847525
0.0842442
0.0836274
0.082878
0.0819955
0.0809428
0.0873116
0.0872908
0.0872543
0.0872254
0.0872048
0.0871833
0.0871581
0.0871304
0.0871006
0.0870677
0.0870306
0.0869883
0.0869397
0.0868832
0.0868171
0.08674
0.0866482
0.0865401
0.08641
0.0862536
0.0860657
0.0858389
0.0855644
0.0852315
0.0848272
0.0843358
0.0837392
0.0830159
0.0821466
0.081098
0.0872939
0.0872803
0.0872529
0.0872268
0.0872061
0.0871853
0.0871611
0.0871343
0.0871052
0.0870733
0.0870373
0.0869963
0.0869494
0.086895
0.0868316
0.0867568
0.0866687
0.0865645
0.0864398
0.0862901
0.0861102
0.0858932
0.0856307
0.0853124
0.0849258
0.0844558
0.0838844
0.0831905
0.0823464
0.081325
0.0872812
0.0872716
0.0872505
0.0872271
0.0872065
0.0871861
0.087163
0.0871373
0.0871092
0.0870783
0.0870437
0.0870043
0.0869592
0.0869074
0.086847
0.0867759
0.0866922
0.0865933
0.0864752
0.0863336
0.0861635
0.0859585
0.0857106
0.08541
0.085045
0.084601
0.0840603
0.0834018
0.0825946
0.0816127
0.0872719
0.0872647
0.0872479
0.0872273
0.0872076
0.0871879
0.0871662
0.0871417
0.0871149
0.0870854
0.0870524
0.087015
0.0869721
0.086923
0.086866
0.0867992
0.0867207
0.086628
0.0865175
0.0863854
0.0862268
0.0860358
0.085805
0.0855253
0.0851856
0.0847721
0.0842676
0.0836514
0.0828913
0.0819622
0.0872652
0.0872595
0.0872458
0.0872278
0.0872092
0.0871904
0.0871697
0.0871465
0.087121
0.0870929
0.0870616
0.0870263
0.0869861
0.0869402
0.086887
0.086825
0.0867524
0.0866667
0.0865649
0.0864435
0.0862979
0.0861229
0.0859115
0.0856556
0.0853447
0.0849661
0.0845033
0.0839364
0.0832335
0.0823701
0.0872605
0.0872558
0.0872443
0.0872285
0.0872112
0.0871933
0.0871737
0.0871519
0.0871278
0.0871014
0.087072
0.0870392
0.0870019
0.0869595
0.0869106
0.086854
0.0867878
0.08671
0.0866179
0.0865083
0.0863772
0.0862199
0.0860302
0.0858006
0.0855219
0.0851823
0.0847665
0.0842559
0.0836198
0.0828349
0.0872575
0.0872535
0.0872437
0.0872296
0.0872137
0.0871967
0.0871783
0.0871578
0.0871353
0.0871106
0.0870834
0.0870531
0.087019
0.0869804
0.0869362
0.0868853
0.0868261
0.0867568
0.0866752
0.0865785
0.0864631
0.086325
0.0861589
0.0859582
0.0857146
0.0854179
0.0850541
0.0846065
0.0840465
0.0833522
0.0872559
0.0872524
0.0872438
0.0872312
0.0872165
0.0872006
0.0871833
0.0871643
0.0871434
0.0871206
0.0870956
0.087068
0.0870373
0.0870027
0.0869636
0.0869188
0.0868671
0.086807
0.0867366
0.0866536
0.0865551
0.0864377
0.0862968
0.086127
0.0859213
0.0856708
0.0853637
0.0849852
0.0845099
0.0839181
0.0872555
0.0872525
0.0872448
0.0872334
0.0872199
0.087205
0.0871888
0.0871712
0.0871519
0.0871311
0.0871085
0.0870838
0.0870566
0.0870263
0.0869924
0.0869541
0.0869103
0.0868598
0.0868013
0.0867328
0.086652
0.0865563
0.0864421
0.086305
0.0861394
0.0859382
0.0856917
0.0853877
0.0850048
0.0845263
0.0872563
0.0872535
0.0872465
0.0872361
0.0872236
0.0872098
0.0871947
0.0871785
0.0871609
0.0871421
0.0871219
0.0871002
0.0870767
0.0870509
0.0870224
0.0869908
0.0869552
0.0869148
0.0868685
0.0868151
0.0867529
0.0866798
0.0865934
0.0864904
0.0863668
0.0862172
0.0860345
0.0858095
0.0855256
0.0851698
0.0872579
0.0872554
0.087249
0.0872394
0.0872277
0.0872149
0.087201
0.0871861
0.0871702
0.0871535
0.0871358
0.0871171
0.0870973
0.0870761
0.0870533
0.0870285
0.0870013
0.0869713
0.0869377
0.0868997
0.0868565
0.0868067
0.0867489
0.086681
0.0866007
0.0865045
0.0863881
0.0862454
0.0860655
0.08584
0.0872605
0.0872581
0.0872521
0.0872431
0.0872323
0.0872203
0.0872075
0.087194
0.0871798
0.0871651
0.0871499
0.0871343
0.0871183
0.0871018
0.0870847
0.0870669
0.0870483
0.0870287
0.0870079
0.0869857
0.0869618
0.0869357
0.0869069
0.0868748
0.0868385
0.0867968
0.086748
0.0866898
0.0866172
0.0865269
0.0872639
0.0872617
0.0872559
0.0872474
0.0872371
0.087226
0.0872142
0.087202
0.0871894
0.0871768
0.0871641
0.0871517
0.0871395
0.0871276
0.0871162
0.0871054
0.0870954
0.0870864
0.0870785
0.0870722
0.0870676
0.0870653
0.0870657
0.0870695
0.0870775
0.0870906
0.08711
0.0871369
0.0871728
0.0872197
0.0872682
0.0872659
0.0872604
0.0872521
0.0872423
0.0872318
0.0872211
0.0872101
0.0871992
0.0871885
0.0871783
0.0871689
0.0871605
0.0871533
0.0871476
0.0871438
0.0871423
0.0871438
0.0871487
0.0871581
0.0871728
0.087194
0.0872235
0.087263
0.0873149
0.0873823
0.0874693
0.0875806
0.087724
0.087907
0.0872732
0.0872709
0.0872653
0.0872571
0.0872477
0.0872378
0.087228
0.0872182
0.0872088
0.0872
0.0871923
0.087186
0.0871812
0.0871786
0.0871785
0.0871815
0.0871885
0.0872002
0.0872178
0.0872425
0.0872761
0.0873206
0.0873785
0.0874529
0.0875479
0.0876685
0.0878215
0.088015
0.0882627
0.0885775
0.087279
0.0872766
0.0872708
0.0872625
0.0872532
0.0872439
0.0872348
0.0872262
0.0872182
0.0872113
0.087206
0.0872025
0.0872014
0.0872032
0.0872085
0.0872182
0.0872333
0.0872551
0.0872849
0.0873246
0.0873766
0.0874436
0.087529
0.0876373
0.087774
0.0879459
0.0881622
0.0884346
0.0887813
0.0892204
0.0872856
0.0872831
0.0872768
0.0872681
0.0872587
0.0872499
0.0872416
0.087234
0.0872274
0.0872223
0.0872191
0.0872185
0.0872208
0.0872268
0.0872374
0.0872535
0.0872765
0.0873078
0.0873494
0.0874035
0.0874731
0.0875616
0.0876735
0.0878141
0.0879905
0.0882111
0.0884875
0.0888339
0.0892728
0.0898261
0.0872932
0.0872903
0.0872833
0.0872738
0.0872643
0.0872558
0.0872482
0.0872415
0.0872361
0.0872327
0.0872317
0.0872336
0.0872392
0.0872493
0.0872648
0.087287
0.0873174
0.0873578
0.0874105
0.0874782
0.0875645
0.0876734
0.0878102
0.0879813
0.088195
0.0884613
0.0887936
0.0892084
0.0897312
0.0903866
0.0873017
0.0872983
0.0872901
0.0872796
0.0872698
0.0872616
0.0872546
0.0872486
0.0872443
0.0872424
0.0872434
0.0872479
0.0872565
0.0872703
0.0872905
0.0873183
0.0873557
0.0874046
0.0874677
0.0875482
0.0876499
0.0877778
0.0879378
0.0881373
0.0883854
0.0886939
0.0890774
0.0895543
0.0901517
0.0908963
0.0873115
0.0873073
0.0872973
0.0872852
0.087275
0.0872671
0.0872606
0.0872552
0.0872519
0.0872514
0.0872542
0.0872609
0.0872723
0.0872896
0.087314
0.087347
0.0873908
0.0874475
0.0875201
0.0876122
0.0877282
0.0878735
0.0880547
0.08828
0.0885595
0.0889061
0.0893356
0.0898678
0.0905306
0.0913508
0.0873229
0.0873173
0.0873046
0.0872905
0.0872799
0.0872723
0.0872661
0.0872613
0.0872589
0.0872597
0.0872641
0.0872729
0.0872869
0.0873072
0.0873355
0.0873733
0.0874227
0.0874865
0.0875677
0.0876704
0.0877992
0.0879601
0.0881603
0.0884086
0.0887162
0.0890964
0.0895666
0.0901471
0.090866
0.0917493
0.0873363
0.0873284
0.0873117
0.0872954
0.0872845
0.0872772
0.087271
0.0872665
0.0872648
0.0872667
0.0872725
0.087283
0.0872992
0.0873223
0.0873539
0.0873958
0.0874504
0.0875203
0.0876091
0.087721
0.0878611
0.0880357
0.0882525
0.088521
0.0888528
0.0892623
0.0897673
0.0903891
0.0911558
0.0920915
0.0873526
0.0873407
0.087318
0.0872993
0.087289
0.0872821
0.0872759
0.0872716
0.0872706
0.0872734
0.0872805
0.0872925
0.0873106
0.087336
0.0873705
0.0874159
0.0874748
0.08755
0.0876453
0.087765
0.0879146
0.0881008
0.0883317
0.0886172
0.0889695
0.0894034
0.0899374
0.0905934
0.0914002
0.0923801
0.0873731
0.0873543
0.0873226
0.0873015
0.0872917
0.0872849
0.0872785
0.0872744
0.087274
0.0872777
0.0872858
0.087299
0.0873187
0.0873461
0.087383
0.0874313
0.0874938
0.0875734
0.0876739
0.0878
0.0879575
0.0881532
0.0883956
0.0886949
0.0890637
0.089517
0.090074
0.090757
0.0915979
0.0926159
0.0873998
0.0873686
0.0873273
0.0873061
0.087297
0.0872895
0.0872826
0.0872786
0.0872786
0.0872827
0.0872914
0.0873056
0.0873264
0.0873552
0.0873938
0.0874444
0.0875095
0.0875924
0.087697
0.0878279
0.0879913
0.0881943
0.0884454
0.0887551
0.0891362
0.0896039
0.0901773
0.0908789
0.0917478
0.0928078
0.0874366
0.0873689
0.0873209
0.0873056
0.0872983
0.0872902
0.0872831
0.0872794
0.0872799
0.0872845
0.0872938
0.0873087
0.0873303
0.0873602
0.0874001
0.0874522
0.0875193
0.0876045
0.0877119
0.0878464
0.088014
0.0882218
0.0884788
0.0887956
0.089185
0.0896623
0.0902456
0.0909564
0.0918339
0.0929382
0.0875131
0.0873784
0.0873191
0.0873074
0.0873012
0.0872924
0.0872849
0.0872813
0.0872818
0.0872866
0.0872961
0.0873112
0.0873332
0.0873636
0.0874041
0.087457
0.087525
0.0876114
0.0877202
0.0878566
0.0880264
0.0882367
0.0884967
0.0888172
0.0892109
0.089693
0.0902806
0.090994
0.091844
0.0928362
0.080061
0.0791282
0.0785876
0.0783823
0.0781527
0.0778165
0.0774337
0.0770495
0.0766718
0.0762968
0.0759222
0.0755467
0.0751675
0.0747803
0.0743797
0.0739594
0.0735116
0.0730257
0.0724881
0.0718799
0.0711749
0.0703303
0.0693044
0.067902
0.0663287
0.0628924
0.0612645
0.0472338
0.0499642
-0.0252153
0.0805534
0.0796876
0.0790692
0.0787892
0.0785039
0.0781449
0.0777727
0.0774221
0.0770866
0.076755
0.0764242
0.0760937
0.0757614
0.0754239
0.0750773
0.074717
0.0743373
0.0739303
0.0734859
0.0729902
0.072423
0.0717544
0.0709401
0.0698753
0.0685654
0.0660892
0.0643586
0.0537349
0.0550196
-0.00826828
0.0801957
0.079652
0.0792411
0.0790043
0.0787542
0.0784453
0.078129
0.07783
0.0775399
0.0772503
0.0769614
0.0766748
0.0763894
0.0761028
0.0758123
0.0755152
0.0752075
0.0748844
0.0745393
0.0741631
0.0737427
0.0732582
0.0726767
0.071937
0.0709843
0.0693185
0.0678359
0.0601561
0.0606106
0.00883179
0.0802647
0.0799291
0.0796425
0.0793942
0.079135
0.0788538
0.0785767
0.0783154
0.0780633
0.077815
0.0775711
0.0773326
0.0770988
0.0768684
0.0766402
0.0764129
0.0761852
0.0759549
0.0757194
0.0754748
0.0752153
0.0749314
0.0746044
0.074204
0.0736693
0.0727518
0.0717624
0.0666812
0.0668238
0.025741
0.0804756
0.0802208
0.0799965
0.0797663
0.0795315
0.0792975
0.0790715
0.0788558
0.0786475
0.078445
0.0782494
0.0780621
0.0778833
0.0777131
0.0775518
0.0774002
0.0772591
0.0771295
0.0770128
0.0769106
0.0768244
0.0767556
0.0767009
0.0766551
0.0765795
0.0763741
0.0760647
0.073273
0.0736222
0.0423292
0.0807817
0.0805863
0.0804198
0.0802252
0.0800224
0.0798283
0.0796449
0.0794706
0.0793049
0.0791486
0.0790031
0.0788697
0.0787497
0.0786443
0.0785554
0.0784856
0.0784382
0.0784173
0.0784286
0.0784793
0.0785787
0.078739
0.0789728
0.0792985
0.0797092
0.0802039
0.0806961
0.0799462
0.0808955
0.0585709
0.0811679
0.0810203
0.0809008
0.0807417
0.0805725
0.0804182
0.0802788
0.0801497
0.0800308
0.0799243
0.0798321
0.0797563
0.0796989
0.0796628
0.0796513
0.0796691
0.0797219
0.0798172
0.079965
0.0801782
0.0804741
0.0808758
0.0814116
0.0821229
0.0830381
0.0842282
0.085596
0.0866749
0.0885403
0.0743126
0.0816246
0.0815204
0.0814449
0.0813238
0.081192
0.0810791
0.0809843
0.0809013
0.0808304
0.0807751
0.0807385
0.080723
0.0807318
0.0807689
0.0808395
0.0809501
0.0811092
0.0813275
0.0816193
0.0820035
0.0825051
0.083158
0.0840064
0.0851137
0.0865433
0.0884245
0.0907034
0.093426
0.0964565
0.0893706
0.0821497
0.0820863
0.0820525
0.08197
0.0818771
0.0818061
0.0817562
0.0817205
0.0816997
0.0816981
0.0817196
0.0817674
0.0818457
0.0819598
0.0821166
0.0823247
0.082595
0.0829419
0.0833838
0.0839455
0.0846597
0.085571
0.0867386
0.088247
0.0901936
0.0927559
0.0959502
0.10015
0.104519
0.103572
0.0827387
0.0827146
0.082721
0.0826779
0.0826252
0.082597
0.0825929
0.0826058
0.0826367
0.0826905
0.0827721
0.0828854
0.0830357
0.0832297
0.0834759
0.083785
0.0841705
0.0846499
0.0852462
0.0859897
0.0869206
0.0880937
0.0895826
0.0914912
0.0939488
0.0971739
0.101262
0.106784
0.112586
0.116759
0.0833882
0.0834018
0.0834465
0.083443
0.0834314
0.0834467
0.083489
0.0835513
0.0836349
0.0837455
0.0838885
0.0840691
0.0842932
0.0845691
0.0849069
0.0853191
0.0858219
0.0864362
0.0871888
0.0881156
0.0892639
0.0906979
0.0925047
0.0948061
0.09776
0.101619
0.106557
0.113251
0.120501
0.128788
0.0840914
0.0841412
0.0842224
0.0842585
0.0842888
0.0843479
0.0844368
0.0845489
0.0846857
0.0848537
0.0850589
0.0853074
0.0856062
0.0859647
0.0863947
0.0869106
0.0875312
0.0882801
0.0891884
0.0902967
0.0916591
0.0933486
0.0954642
0.0981436
0.10157
0.106023
0.111747
0.119463
0.1281
0.139516
0.0848405
0.0849247
0.0850403
0.0851155
0.0851878
0.0852907
0.0854258
0.0855874
0.0857773
0.0860024
0.0862696
0.0865856
0.0869586
0.0873991
0.0879204
0.0885387
0.0892751
0.090156
0.0912162
0.0925008
0.0940699
0.0960043
0.0984134
0.101448
0.105313
0.110309
0.116739
0.125324
0.135205
0.148782
0.0856249
0.0857415
0.085889
0.0860025
0.0861165
0.0862626
0.086443
0.086653
0.086895
0.0871761
0.0875038
0.0878858
0.0883311
0.0888514
0.0894611
0.0901785
0.0910264
0.0920339
0.093239
0.0946909
0.0964548
0.0986182
0.101299
0.10466
0.108922
0.114399
0.121442
0.130738
0.14165
0.156435
0.0864322
0.0865791
0.0867559
0.0869062
0.0870609
0.0872488
0.0874728
0.0877294
0.0880214
0.0883563
0.0887421
0.0891871
0.0897014
0.0902974
0.090991
0.0918017
0.0927543
0.0938803
0.09522
0.0968264
0.0987689
0.10114
0.104066
0.107717
0.112324
0.118213
0.125765
0.135614
0.147314
0.162511
0.0872484
0.0874231
0.0876263
0.0878114
0.0880052
0.0882329
0.088498
0.0887984
0.0891375
0.0895229
0.089963
0.0904668
0.091045
0.0917111
0.0924819
0.0933783
0.0944265
0.0956597
0.0971207
0.0988652
0.100966
0.10352
0.106657
0.110555
0.115452
0.121675
0.129626
0.13987
0.152129
0.167261
0.0880583
0.0882585
0.088485
0.0887023
0.0889327
0.0891974
0.0895005
0.0898411
0.0902233
0.0906548
0.0911442
0.0917012
0.0923371
0.093066
0.0939056
0.0948778
0.09601
0.097337
0.0989032
0.100766
0.103001
0.105708
0.10902
0.113116
0.11824
0.124715
0.132951
0.143436
0.156036
0.170635
0.0888467
0.0890697
0.0893166
0.089563
0.0898268
0.0901252
0.0904622
0.0908387
0.0912592
0.0917314
0.0922642
0.0928676
0.0935534
0.0943364
0.0952349
0.0962715
0.0974744
0.0988794
0.100532
0.102491
0.104834
0.107661
0.111107
0.11535
0.120635
0.127276
0.135678
0.14625
0.158942
0.172523
0.089599
0.0898422
0.0901066
0.0903785
0.0906721
0.091
0.0913666
0.0917739
0.0922272
0.092734
0.0933033
0.0939454
0.0946725
0.0954998
0.0964459
0.0975339
0.0987927
0.100258
0.101978
0.104009
0.106431
0.109343
0.11288
0.117218
0.122596
0.129313
0.137761
0.148253
0.160722
0.173048
0.0903026
0.0905634
0.0908426
0.0911363
0.0914553
0.0918083
0.0921995
0.0926323
0.0931122
0.0936469
0.0942453
0.0949177
0.0956768
0.0965378
0.0975195
0.0986453
0.0999442
0.101453
0.103217
0.105296
0.107767
0.110729
0.114314
0.118693
0.124095
0.130802
0.139174
0.149409
0.161378
0.172279
0.0909468
0.0912227
0.0915142
0.0918258
0.0921655
0.0925389
0.0929496
0.0934022
0.0939025
0.0944581
0.0950778
0.095772
0.0965533
0.097437
0.098442
0.0995915
0.100914
0.102447
0.104235
0.106337
0.108828
0.111805
0.115394
0.119762
0.125124
0.131735
0.139919
0.149737
0.161063
0.170109
0.0915256
0.0918144
0.0921159
0.0924415
0.0927974
0.0931863
0.0936114
0.094078
0.0945924
0.0951618
0.0957951
0.0965023
0.0972962
0.0981919
0.099208
0.100367
0.101699
0.103238
0.105029
0.10713
0.109612
0.112571
0.116127
0.120435
0.125697
0.132134
0.140033
0.149284
0.159906
0.166414
0.092034
0.0923335
0.0926429
0.0929791
0.0933467
0.0937464
0.0941812
0.0946567
0.0951793
0.0957562
0.0963958
0.097108
0.0979054
0.0988027
0.0998183
0.100975
0.1023
0.103828
0.105603
0.10768
0.110129
0.113039
0.116525
0.12073
0.125838
0.13203
0.139566
0.148115
0.157999
0.161592
0.0924736
0.0927817
0.0930968
0.0934396
0.0938143
0.0942201
0.0946596
0.0951385
0.0956635
0.0962414
0.0968804
0.0975901
0.0983826
0.0992722
0.100277
0.101418
0.102723
0.104225
0.105966
0.108
0.110391
0.113226
0.116609
0.120671
0.12558
0.131467
0.13858
0.146319
0.155458
0.156011
0.0928468
0.0931614
0.0934793
0.0938254
0.0942043
0.0946136
0.0950546
0.0955329
0.0960556
0.0966292
0.0972615
0.0979616
0.0987412
0.0996144
0.100598
0.101713
0.102986
0.104448
0.10614
0.108112
0.110426
0.113161
0.116415
0.120302
0.124974
0.130509
0.137158
0.143983
0.152411
0.14931
0.093166
0.0934843
0.0937971
0.0941382
0.0945158
0.0949245
0.0953629
0.0958366
0.0963531
0.0969189
0.0975404
0.0982263
0.0989876
0.0998376
0.100793
0.101873
0.103102
0.104513
0.106143
0.108038
0.110258
0.112875
0.115978
0.119665
0.124072
0.129217
0.135378
0.141179
0.148953
0.141521
0.093444
0.0937637
0.0940664
0.0944032
0.0947818
0.0951882
0.0956194
0.0960841
0.0965903
0.0971431
0.0977482
0.0984136
0.0991506
0.0999715
0.100891
0.101929
0.103107
0.104457
0.106013
0.107821
0.109933
0.112416
0.115352
0.11882
0.122943
0.127666
0.133333
0.13799
0.145199
0.132969
0.0937263
0.0939866
0.094225
0.0945519
0.0949445
0.0953544
0.0957768
0.0962307
0.0967261
0.0972692
0.097861
0.0985057
0.0992155
0.100003
0.100882
0.101869
0.102988
0.104269
0.105744
0.107453
0.109448
0.111787
0.114544
0.11778
0.121611
0.125889
0.131083
0.134475
0.141258
0.12391
0.0942417
0.0943623
0.0944558
0.0947422
0.0951404
0.0955594
0.0959778
0.0964208
0.0968949
0.0974089
0.0979725
0.0985915
0.099272
0.100025
0.100868
0.101804
0.102861
0.104068
0.105456
0.107063
0.108935
0.111124
0.113695
0.116692
0.120224
0.124035
0.128785
0.130776
0.137256
0.11457
0.0943175
0.0942001
0.0942866
0.0946517
0.0950919
0.0955458
0.0959753
0.096418
0.0968919
0.0973958
0.0979397
0.0985301
0.0991717
0.0998754
0.100652
0.101524
0.102512
0.103637
0.104929
0.106424
0.108165
0.110197
0.112579
0.115333
0.118585
0.121906
0.126324
0.126756
0.133162
0.105148
0.0968948
0.0885928
0.0794483
0.0701028
0.0612032
0.0531255
0.046197
0.0407893
0.0373052
0.0361371
0.0373539
0.0403878
0.0437491
0.0458318
0.0458171
0.0440533
0.0425435
0.0410604
0.039402
0.0382464
0.0374343
0.0365195
0.0352861
0.0338056
0.0322832
0.0308196
0.0292338
0.0273171
0.0251977
0.0225069
0.128989
0.123118
0.116647
0.110297
0.103908
0.0972473
0.0905082
0.0840468
0.0780302
0.0728428
0.0689642
0.0664594
0.0648614
0.0628599
0.0593346
0.0533577
0.0457562
0.0404257
0.038875
0.0380381
0.0364267
0.034434
0.0332696
0.0326567
0.0319507
0.0311103
0.0302459
0.0294049
0.0281842
0.0261902
0.123578
0.120068
0.115993
0.111323
0.105944
0.0999023
0.093505
0.0870016
0.0807251
0.0752334
0.0708977
0.0674532
0.0642989
0.0605225
0.0553597
0.0500154
0.0452548
0.0414134
0.0393627
0.0376771
0.0357035
0.0352865
0.0366874
0.0378754
0.0392408
0.0407876
0.0414674
0.0415797
0.041452
0.040594
0.124589
0.122772
0.120351
0.117055
0.113007
0.108271
0.102931
0.0971125
0.0910487
0.0850784
0.0795072
0.0744167
0.0697253
0.0651945
0.0606343
0.0563998
0.0521764
0.0473623
0.0437901
0.041543
0.0399387
0.0403046
0.042352
0.0452845
0.0491023
0.0520638
0.0537687
0.055018
0.0552598
0.0544976
0.120634
0.119797
0.118601
0.116725
0.114029
0.110596
0.106503
0.101771
0.0964856
0.0908649
0.0852233
0.0798383
0.0748241
0.0701322
0.0656321
0.0613173
0.0570976
0.0532235
0.0503961
0.0481588
0.0467391
0.047159
0.0492762
0.0526302
0.0564653
0.0593102
0.0608823
0.0607353
0.0587971
0.0555752
0.117783
0.117646
0.117238
0.116083
0.114141
0.111504
0.108167
0.104106
0.099373
0.0941411
0.0886762
0.0832621
0.0780865
0.0731952
0.0685284
0.064087
0.0599834
0.056528
0.0540099
0.0524271
0.0519788
0.0526534
0.0538882
0.0554914
0.0571034
0.0576392
0.0563164
0.0534219
0.048533
0.0418815
0.114792
0.11505
0.115139
0.114575
0.113344
0.111465
0.10889
0.105547
0.101442
0.0966884
0.0914978
0.0861363
0.0808447
0.0757684
0.0709574
0.0664773
0.0624818
0.0591903
0.0568033
0.0554095
0.054996
0.0553074
0.0559359
0.0562928
0.0554819
0.0528759
0.0484724
0.0424475
0.0341992
0.0250544
0.112244
0.112772
0.113209
0.113061
0.112305
0.110972
0.108992
0.106258
0.10273
0.0984676
0.0936293
0.0884499
0.0831883
0.078055
0.0731834
0.0686907
0.0647394
0.061519
0.0591861
0.0577654
0.0571048
0.0568607
0.0565503
0.0555418
0.0532149
0.0493148
0.0438616
0.036794
0.0278506
0.0188658
0.110005
0.110693
0.111341
0.11148
0.111089
0.11019
0.108694
0.106468
0.103441
0.0996326
0.0951555
0.0902127
0.0850613
0.0799477
0.0750616
0.0705608
0.0666178
0.0634093
0.0610482
0.0594913
0.0585015
0.0576671
0.0564619
0.0543492
0.0509698
0.0462479
0.0402866
0.0333293
0.0258096
0.0188594
0.108082
0.108869
0.109656
0.109997
0.109876
0.109307
0.108194
0.106392
0.1038
0.100404
0.0962764
0.0915855
0.0865769
0.0815171
0.0766373
0.0721312
0.0681825
0.0649519
0.0625079
0.0607478
0.0593779
0.0579576
0.0559983
0.0531056
0.0491178
0.0441373
0.0384849
0.0326737
0.0273985
0.0234056
0.106425
0.10727
0.108141
0.108621
0.108698
0.108387
0.107583
0.106133
0.103918
0.100894
0.0970965
0.092661
0.0878151
0.0828337
0.0779782
0.0734723
0.0695098
0.0662345
0.0636749
0.0616828
0.0599332
0.0579974
0.0554709
0.0521156
0.047956
0.0432735
0.0385671
0.0344771
0.0316495
0.0304954
0.104995
0.105873
0.106796
0.107374
0.1076
0.107486
0.106928
0.105768
0.103875
0.101179
0.0976864
0.0934992
0.0888244
0.0839367
0.0791177
0.0746151
0.0706306
0.0672934
0.0646009
0.062375
0.0602852
0.0579465
0.0550619
0.051548
0.0475915
0.0436064
0.0401636
0.0377775
0.0369289
0.0375318
0.103755
0.10465
0.105604
0.10625
0.106587
0.106627
0.106267
0.105347
0.103728
0.101322
0.0981064
0.0941543
0.08965
0.0848625
0.0800859
0.0755861
0.0715721
0.068162
0.0653315
0.0628881
0.060517
0.0578984
0.05485
0.0514262
0.0479331
0.0448338
0.0426318
0.0416698
0.042192
0.0436533
0.102671
0.103574
0.104546
0.105242
0.105664
0.105825
0.105624
0.104904
0.103519
0.101367
0.0984015
0.0946687
0.0903296
0.0856436
0.0809113
0.0764127
0.0723637
0.0688757
0.0659113
0.0632773
0.0606913
0.0579101
0.0548609
0.0517086
0.0488201
0.0466263
0.0455242
0.0456455
0.0470305
0.0488558
0.101717
0.102622
0.103606
0.104338
0.104827
0.105084
0.105013
0.10446
0.103276
0.101346
0.0986053
0.0950746
0.0908924
0.0863057
0.0816171
0.0771174
0.0730297
0.0694628
0.0663745
0.0635826
0.0608486
0.0580086
0.0550867
0.0523221
0.0500831
0.0487369
0.0485409
0.049427
0.0513072
0.0532152
0.100873
0.101775
0.102765
0.103527
0.104069
0.104405
0.104442
0.104029
0.103018
0.101283
0.0987435
0.0953977
0.0913622
0.0868698
0.0822223
0.0777184
0.0735893
0.0699456
0.0667471
0.0638317
0.0610119
0.0582008
0.0554997
0.0531794
0.0515824
0.0509835
0.0514901
0.0528778
0.0549953
0.0568142
0.100117
0.101013
0.102008
0.102795
0.103383
0.103785
0.103913
0.10362
0.102758
0.101196
0.0988359
0.0956583
0.0917583
0.0873539
0.0827429
0.0782312
0.0740589
0.070342
0.0670486
0.0640433
0.061193
0.0584808
0.05606
0.0542052
0.0532077
0.0532353
0.054256
0.0559418
0.0581175
0.0597535
0.0994314
0.100323
0.101321
0.102132
0.10276
0.10322
0.103426
0.103238
0.102507
0.101096
0.0988978
0.0958727
0.0920966
0.0877723
0.0831925
0.0786685
0.0744515
0.0706663
0.0672936
0.0642295
0.0613961
0.0588355
0.0567283
0.0553337
0.0548723
0.0554025
0.0567753
0.0586072
0.0607194
0.062134
0.0988069
0.0996938
0.100694
0.101525
0.102192
0.102706
0.102981
0.102885
0.10227
0.100995
0.0989412
0.0960538
0.09239
0.0881373
0.083582
0.0790408
0.0747778
0.0709294
0.0674924
0.0643972
0.0616201
0.0592476
0.0574692
0.05651
0.0565094
0.0574262
0.059019
0.0608872
0.0628541
0.0640448
0.0982316
0.0991148
0.100116
0.100967
0.101671
0.102235
0.102575
0.102561
0.102051
0.100899
0.0989754
0.0962121
0.0926491
0.0884589
0.0839207
0.0793566
0.0750464
0.0711401
0.0676526
0.0645501
0.0618612
0.0597005
0.0582515
0.0576892
0.0580702
0.0592689
0.0609772
0.0628071
0.0645788
0.0655665
0.0976976
0.0985778
0.0995795
0.100449
0.10119
0.101803
0.102203
0.102267
0.101853
0.100812
0.0990076
0.0963563
0.0928828
0.0887457
0.0842161
0.0796227
0.0752635
0.0713044
0.0677785
0.0646883
0.0621117
0.0601776
0.059047
0.0588357
0.0595226
0.0609125
0.0626528
0.0643943
0.0659512
0.0667787
0.0971988
0.0980766
0.0990763
0.0999629
0.100742
0.101404
0.101862
0.101999
0.101676
0.10074
0.0990434
0.0964931
0.0930984
0.0890049
0.084475
0.0798453
0.075436
0.0714283
0.0678745
0.0648137
0.0623687
0.0606659
0.0598313
0.0599177
0.06084
0.0623522
0.0640684
0.0656873
0.0670262
0.0677573
0.096735
0.097607
0.0985998
0.0995034
0.100321
0.101031
0.101548
0.101757
0.101521
0.100682
0.0990876
0.0966288
0.0933023
0.0892417
0.0847009
0.0800258
0.0755639
0.0715125
0.0679379
0.064914
0.0626166
0.0611493
0.0605852
0.0609133
0.0619981
0.0635706
0.0652389
0.0667429
0.0678837
0.0685825
0.0963122
0.0971639
0.0981431
0.099064
0.0999219
0.100681
0.101256
0.101538
0.101386
0.100642
0.0991425
0.0967682
0.0935016
0.0894654
0.0849047
0.0801768
0.0756596
0.0715675
0.0679875
0.0650307
0.0628705
0.061624
0.0612937
0.0618152
0.0630098
0.0645815
0.0661579
0.0675646
0.068589
0.0693626
0.0959191
0.0967508
0.0977061
0.0986405
0.0995389
0.100348
0.100982
0.101338
0.101273
0.100621
0.0992115
0.0969116
0.0936925
0.0896671
0.085071
0.0802787
0.0757057
0.0715702
0.0679699
0.0650684
0.063088
0.0620604
0.0619251
0.0625905
0.0638772
0.065464
0.0669435
0.0682157
0.0691367
0.0701358
0.0955661
0.0963743
0.0972902
0.0982333
0.0991695
0.100028
0.100721
0.101153
0.101176
0.100619
0.0993029
0.0970773
0.0939032
0.0898865
0.0852485
0.08038
0.0757509
0.0715985
0.0680091
0.0651473
0.0633231
0.062475
0.0624746
0.0632027
0.0645049
0.0661162
0.0676263
0.0688869
0.0698089
0.0710284
0.0952499
0.0960181
0.0968932
0.0978422
0.098811
0.0997169
0.100471
0.100982
0.101095
0.100628
0.0993985
0.0972328
0.0940776
0.0900447
0.085345
0.0803927
0.0756808
0.0714678
0.0678134
0.0651437
0.0635041
0.0628363
0.0629566
0.0637445
0.0650129
0.0664999
0.0678978
0.0691365
0.0703775
0.0719736
0.0949715
0.095674
0.0965094
0.0974681
0.0984643
0.0994112
0.100222
0.100791
0.101017
0.100659
0.0995324
0.0974559
0.0943542
0.0902992
0.0855142
0.0804799
0.0757614
0.0714763
0.0677794
0.0651813
0.0636911
0.063163
0.0633353
0.0642082
0.0656738
0.067355
0.0687444
0.0699263
0.0711643
0.0728566
0.0947719
0.0953418
0.0961299
0.0971087
0.0981599
0.0991732
0.10006
0.100716
0.100987
0.100713
0.0996546
0.0976058
0.0944786
0.0903545
0.0854505
0.0803049
0.0756053
0.0713221
0.0676539
0.0651824
0.0638367
0.0633464
0.0634636
0.0641514
0.0654525
0.0671275
0.0687427
0.0702369
0.0718175
0.073734
0.0946817
0.0950541
0.0957054
0.0965969
0.0976342
0.098689
0.0996464
0.100421
0.100866
0.100768
0.0998801
0.0979878
0.0949419
0.0907454
0.0857279
0.0804251
0.0755009
0.0710157
0.0673812
0.0650516
0.0639169
0.0635998
0.0638686
0.0647152
0.0662835
0.0680918
0.0697535
0.0712244
0.0727408
0.0741821
-0.117111
-0.101557
-0.056106
-0.00423363
0.0150361
0.037935
0.0459722
0.0541815
0.0580585
0.0606963
0.0620633
0.0627303
0.0629729
0.0629958
0.062934
0.0628701
0.0628484
0.0628945
0.0630109
0.0631874
0.0634264
0.0636877
0.0640139
0.0643116
0.0647234
0.0650793
0.0656671
0.0661669
0.0672115
0.0659414
-0.118642
-0.108901
-0.063162
-0.00910426
0.0142605
0.0365483
0.0462262
0.0543451
0.0588961
0.0616658
0.0631602
0.0638573
0.0640683
0.0640111
0.0638357
0.0636395
0.0634797
0.0633895
0.0633822
0.0634491
0.063595
0.0637795
0.0640306
0.0642733
0.0645781
0.0648229
0.0651591
0.0652959
0.0657583
0.0652177
-0.119485
-0.114389
-0.0729722
-0.0157845
0.0120971
0.0340007
0.0456942
0.0541789
0.0595043
0.0626485
0.0643648
0.0651483
0.0653476
0.0652085
0.0649037
0.0645506
0.0642249
0.0639727
0.0638172
0.0637576
0.0637931
0.0638995
0.0640749
0.0642779
0.064517
0.0647333
0.0649822
0.0651339
0.0654511
0.0655691
-0.119884
-0.116905
-0.0818979
-0.0213532
0.0105528
0.0326501
0.0458171
0.054776
0.0605859
0.0640245
0.0658569
0.0666333
0.0667458
0.0664715
0.0660061
0.0654826
0.06499
0.0645853
0.0642979
0.0641324
0.064084
0.0641333
0.064267
0.0644589
0.0646992
0.0649571
0.0652497
0.0655221
0.0658521
0.0660876
-0.12056
-0.116769
-0.0898023
-0.0268182
0.00902263
0.031889
0.0461475
0.0556242
0.0618189
0.06554
0.0675025
0.0682817
0.0683072
0.0678887
0.0672484
0.0665368
0.0658556
0.0652749
0.0648332
0.0645403
0.0643913
0.0643682
0.0644516
0.0646163
0.0648438
0.0651089
0.065405
0.0657009
0.0660131
0.0662687
-0.122093
-0.117801
-0.0978158
-0.033822
0.00639972
0.0307566
0.0461465
0.0562875
0.0629393
0.0670193
0.0692015
0.0700565
0.0700405
0.0694952
0.0686739
0.0677492
0.0668423
0.0660433
0.0654054
0.0649471
0.0646659
0.0645443
0.0645581
0.0646782
0.0648779
0.0651303
0.0654179
0.0657189
0.0660345
0.0663274
-0.124189
-0.122952
-0.106972
-0.0426882
0.0023252
0.0289704
0.0457416
0.0567134
0.063913
0.0684133
0.0708839
0.0718782
0.0718616
0.0712096
0.0702156
0.0690717
0.067916
0.066864
0.065991
0.0653314
0.0648896
0.0646491
0.0645823
0.0646553
0.0648332
0.0650842
0.0653837
0.0657093
0.0660529
0.0663774
-0.126412
-0.130778
-0.116653
-0.0527262
-0.00304712
0.0264951
0.0449309
0.0568883
0.0647112
0.0696616
0.0724432
0.073619
0.0736625
0.0729485
0.0717977
0.0704306
0.0690088
0.067677
0.0665391
0.0656494
0.0650215
0.0646411
0.0644809
0.0645027
0.0646632
0.064922
0.065246
0.0656076
0.0659931
0.0663584
-0.128407
-0.138738
-0.125736
-0.0632013
-0.00955213
0.0231466
0.0435285
0.0566468
0.0651957
0.0706514
0.0737767
0.0751368
0.0752244
0.0744819
0.0732426
0.0717101
0.0700359
0.0683801
0.0669069
0.0657353
0.0648984
0.0643703
0.0641156
0.0640937
0.0642519
0.0645365
0.0649037
0.065319
0.0657654
0.0661929
-0.129926
-0.145528
-0.133615
-0.0737307
-0.0171173
0.0186217
0.0411681
0.0556586
0.0651112
0.0712024
0.074758
0.0763352
0.076458
0.0756451
0.0742734
0.0725976
0.0707781
0.0689159
0.0671169
0.0655639
0.0644178
0.0636881
0.0633086
0.0632422
0.0634238
0.0637742
0.0642289
0.0647391
0.0652821
0.0658045
-0.130824
-0.150694
-0.140018
-0.0839547
-0.0257362
0.0126133
0.0373864
0.0534352
0.0639202