/*--------------------------------*- C++ -*----------------------------------*\
  =========                 |
  \\      /  F ield         | OpenFOAM: The Open Source CFD Toolbox
   \\    /   O peration     | Website:  https://openfoam.org
    \\  /    A nd           | Version:  11
     \\/     M anipulation  |
\*---------------------------------------------------------------------------*/
FoamFile
{
    format      ascii;
    class       surfaceScalarField;
    location    "5";
    object      phi;
}
// * * * * * * * * * * * * * * * * * * * * * * * * * * * * * * * * * * * * * //

dimensions      [0 3 -1 0 0 0 0];

internalField   nonuniform List<scalar> 
24840
(
1.57973e-05
1.36422e-08
1.57788e-05
1.85423e-08
1.57615e-05
1.73e-08
1.57443e-05
1.71832e-08
1.57268e-05
1.75062e-08
1.57092e-05
1.76057e-08
1.56916e-05
1.7548e-08
1.56742e-05
1.74303e-08
1.5657e-05
1.72559e-08
1.56399e-05
1.70142e-08
1.56232e-05
1.67025e-08
1.56069e-05
1.63144e-08
1.55911e-05
1.58384e-08
1.55758e-05
1.52585e-08
1.55613e-05
1.45504e-08
1.55476e-05
1.3675e-08
1.5535e-05
1.25852e-08
1.55237e-05
1.12872e-08
1.55141e-05
9.67479e-09
1.55064e-05
7.63111e-09
1.55013e-05
5.11684e-09
1.54992e-05
2.06086e-09
1.5501e-05
-1.72532e-09
1.55074e-05
-6.41104e-09
1.55197e-05
-1.22888e-08
1.55392e-05
-1.95534e-08
1.55683e-05
-2.90316e-08
1.56099e-05
-4.16408e-08
1.56724e-05
-6.25001e-08
-1.37048e-07
1.58094e-05
1.5817e-05
7.59137e-09
1.58208e-05
1.47922e-08
1.58234e-05
1.46261e-08
1.58257e-05
1.49483e-08
1.58277e-05
1.54376e-08
1.58297e-05
1.56049e-08
1.58318e-05
1.55008e-08
1.58339e-05
1.52796e-08
1.58363e-05
1.49381e-08
1.58388e-05
1.44647e-08
1.58417e-05
1.38577e-08
1.58449e-05
1.31025e-08
1.58485e-05
1.2178e-08
1.58527e-05
1.1055e-08
1.58576e-05
9.69139e-09
1.58633e-05
8.00704e-09
1.58699e-05
5.90161e-09
1.58778e-05
3.40482e-09
1.58872e-05
3.12995e-10
1.58984e-05
-3.57977e-09
1.59119e-05
-8.35635e-09
1.59281e-05
-1.41774e-08
1.59477e-05
-2.13483e-08
1.59715e-05
-3.01959e-08
1.60003e-05
-4.1095e-08
1.60355e-05
-5.47295e-08
1.60778e-05
-7.1326e-08
1.61312e-05
-9.50347e-08
1.61874e-05
-1.18753e-07
-1.54716e-07
1.62051e-05
1.58137e-05
4.90537e-09
1.58171e-05
1.13642e-08
1.58193e-05
1.2445e-08
1.58215e-05
1.27137e-08
1.58237e-05
1.32183e-08
1.58258e-05
1.35398e-08
1.58278e-05
1.34312e-08
1.583e-05
1.31313e-08
1.58323e-05
1.26366e-08
1.58348e-05
1.19392e-08
1.58376e-05
1.10381e-08
1.58408e-05
9.9117e-09
1.58445e-05
8.54193e-09
1.58486e-05
6.89548e-09
1.58534e-05
4.93715e-09
1.58589e-05
2.5366e-09
1.58653e-05
-4.96203e-10
1.58727e-05
-4.0482e-09
1.58816e-05
-8.53059e-09
1.58921e-05
-1.41122e-08
1.59047e-05
-2.0985e-08
1.592e-05
-2.94176e-08
1.59384e-05
-3.97902e-08
1.59608e-05
-5.256e-08
1.59879e-05
-6.82637e-08
1.60209e-05
-8.77117e-08
1.60612e-05
-1.1158e-07
1.61077e-05
-1.416e-07
1.61661e-05
-1.77094e-07
-2.08855e-07
1.62202e-05
1.58125e-05
3.3319e-09
1.58154e-05
8.53364e-09
1.58175e-05
1.03105e-08
1.58195e-05
1.07467e-08
1.58215e-05
1.11787e-08
1.58235e-05
1.15248e-08
1.58255e-05
1.14266e-08
1.58276e-05
1.10441e-08
1.58299e-05
1.03921e-08
1.58323e-05
9.47265e-09
1.58351e-05
8.28858e-09
1.58382e-05
6.80343e-09
1.58417e-05
5.00337e-09
1.58458e-05
2.8389e-09
1.58504e-05
3.1936e-10
1.58557e-05
-2.79291e-09
1.58619e-05
-6.64774e-09
1.58691e-05
-1.13021e-08
1.58777e-05
-1.71041e-08
1.58879e-05
-2.43126e-08
1.59001e-05
-3.3209e-08
1.59149e-05
-4.41521e-08
1.59327e-05
-5.76001e-08
1.59542e-05
-7.41278e-08
1.59804e-05
-9.44314e-08
1.60121e-05
-1.19423e-07
1.60506e-05
-1.50066e-07
1.60964e-05
-1.87347e-07
1.61526e-05
-2.33308e-07
-2.74156e-07
1.62179e-05
1.58119e-05
2.3506e-09
1.58141e-05
6.40449e-09
1.5816e-05
8.34821e-09
1.58178e-05
8.94325e-09
1.58197e-05
9.30691e-09
1.58217e-05
9.5709e-09
1.58236e-05
9.47045e-09
1.58257e-05
9.00308e-09
1.58279e-05
8.19974e-09
1.58303e-05
7.06688e-09
1.58329e-05
5.60495e-09
1.5836e-05
3.78343e-09
1.58394e-05
1.58988e-09
1.58433e-05
-1.07677e-09
1.58478e-05
-4.1493e-09
1.58529e-05
-7.93404e-09
1.58588e-05
-1.25832e-08
1.58658e-05
-1.82779e-08
1.58741e-05
-2.53414e-08
1.58838e-05
-3.40975e-08
1.58955e-05
-4.49097e-08
1.59096e-05
-5.82226e-08
1.59266e-05
-7.45841e-08
1.59471e-05
-9.46785e-08
1.59721e-05
-1.19348e-07
1.60023e-05
-1.49624e-07
1.60389e-05
-1.86737e-07
1.60832e-05
-2.31576e-07
1.61371e-05
-2.87259e-07
-3.41389e-07
1.62043e-05
1.58116e-05
1.69179e-09
1.58133e-05
4.77724e-09
1.5815e-05
6.56778e-09
1.58167e-05
7.2377e-09
1.58185e-05
7.54316e-09
1.58204e-05
7.71291e-09
1.58223e-05
7.56852e-09
1.58242e-05
7.01802e-09
1.58264e-05
6.07123e-09
1.58287e-05
4.73528e-09
1.58313e-05
3.00252e-09
1.58342e-05
8.59171e-10
1.58375e-05
-1.70426e-09
1.58413e-05
-4.80037e-09
1.58455e-05
-8.43128e-09
1.58504e-05
-1.28444e-08
1.58561e-05
-1.82489e-08
1.58627e-05
-2.48994e-08
1.58705e-05
-3.31371e-08
1.58798e-05
-4.33445e-08
1.58908e-05
-5.59565e-08
1.59041e-05
-7.14915e-08
1.59201e-05
-9.05817e-08
1.59394e-05
-1.14015e-07
1.59628e-05
-1.4277e-07
1.59912e-05
-1.78029e-07
1.60258e-05
-2.21269e-07
1.60678e-05
-2.73608e-07
1.61192e-05
-3.38677e-07
-4.06893e-07
1.61847e-05
1.58114e-05
1.21193e-09
1.58127e-05
3.49842e-09
1.58143e-05
4.9948e-09
1.58159e-05
5.64499e-09
1.58175e-05
5.89489e-09
1.58193e-05
5.96605e-09
1.58211e-05
5.74466e-09
1.5823e-05
5.1045e-09
1.58251e-05
4.01944e-09
1.58273e-05
2.49073e-09
1.58298e-05
5.11947e-10
1.58326e-05
-1.9345e-09
1.58358e-05
-4.85482e-09
1.58393e-05
-8.34621e-09
1.58433e-05
-1.24816e-08
1.5848e-05
-1.74762e-08
1.58533e-05
-2.35854e-08
1.58595e-05
-3.11151e-08
1.58668e-05
-4.04399e-08
1.58755e-05
-5.19891e-08
1.58858e-05
-6.62571e-08
1.58981e-05
-8.3831e-08
1.5913e-05
-1.05425e-07
1.59309e-05
-1.31928e-07
1.59526e-05
-1.6445e-07
1.59789e-05
-2.04336e-07
1.60109e-05
-2.533e-07
1.60501e-05
-3.12851e-07
1.60983e-05
-3.86843e-07
-4.68842e-07
1.61603e-05
1.58113e-05
8.40086e-10
1.58124e-05
2.46582e-09
1.58137e-05
3.61751e-09
1.58152e-05
4.16757e-09
1.58168e-05
4.3453e-09
1.58184e-05
4.31473e-09
1.58202e-05
3.99871e-09
1.5822e-05
3.26211e-09
1.5824e-05
2.04488e-09
1.58261e-05
3.35282e-10
1.58285e-05
-1.86969e-09
1.58312e-05
-4.58806e-09
1.58342e-05
-7.83417e-09
1.58375e-05
-1.16913e-08
1.58413e-05
-1.62758e-08
1.58456e-05
-2.18013e-08
1.58506e-05
-2.85525e-08
1.58563e-05
-3.68745e-08
1.58631e-05
-4.71784e-08
1.5871e-05
-5.99382e-08
1.58805e-05
-7.57007e-08
1.58918e-05
-9.51139e-08
1.59053e-05
-1.18967e-07
1.59216e-05
-1.48239e-07
1.59413e-05
-1.84164e-07
1.59652e-05
-2.28254e-07
1.59944e-05
-2.82451e-07
1.60303e-05
-3.48711e-07
1.60744e-05
-4.31e-07
-5.26059e-07
1.61316e-05
1.58113e-05
5.3893e-10
1.58121e-05
1.60859e-09
1.58133e-05
2.40774e-09
1.58147e-05
2.80259e-09
1.58162e-05
2.88666e-09
1.58177e-05
2.75389e-09
1.58194e-05
2.33709e-09
1.58211e-05
1.50025e-09
1.5823e-05
1.58535e-10
1.58251e-05
-1.71465e-09
1.58273e-05
-4.12546e-09
1.58298e-05
-7.08602e-09
1.58326e-05
-1.06208e-08
1.58357e-05
-1.48087e-08
1.58392e-05
-1.97885e-08
1.58432e-05
-2.57849e-08
1.58478e-05
-3.31053e-08
1.5853e-05
-4.21274e-08
1.58592e-05
-5.32963e-08
1.58663e-05
-6.71245e-08
1.58748e-05
-8.42035e-08
1.5885e-05
-1.05234e-07
1.58971e-05
-1.3107e-07
1.59116e-05
-1.62775e-07
1.59291e-05
-2.01694e-07
1.59504e-05
-2.49499e-07
1.59763e-05
-3.08348e-07
1.60082e-05
-3.80641e-07
1.60476e-05
-4.70407e-07
-5.77505e-07
1.60991e-05
1.58112e-05
2.85662e-10
1.58119e-05
8.78494e-10
1.5813e-05
1.3369e-09
1.58143e-05
1.54457e-09
1.58156e-05
1.51526e-09
1.58171e-05
1.27882e-09
1.58187e-05
7.60037e-10
1.58204e-05
-1.77435e-10
1.58222e-05
-1.6356e-09
1.58241e-05
-3.65519e-09
1.58262e-05
-6.24663e-09
1.58286e-05
-9.41968e-09
1.58312e-05
-1.3204e-08
1.5834e-05
-1.768e-08
1.58372e-05
-2.29996e-08
1.58409e-05
-2.94014e-08
1.5845e-05
-3.72118e-08
1.58497e-05
-4.68344e-08
1.58551e-05
-5.87435e-08
1.58615e-05
-7.34844e-08
1.5869e-05
-9.16863e-08
1.58778e-05
-1.14094e-07
1.58884e-05
-1.41616e-07
1.5901e-05
-1.75387e-07
1.59161e-05
-2.1685e-07
1.59344e-05
-2.67819e-07
1.59567e-05
-3.30642e-07
1.59842e-05
-4.08134e-07
1.60182e-05
-5.0437e-07
-6.22175e-07
1.60629e-05
1.58112e-05
6.5261e-11
1.58118e-05
2.42091e-10
1.58128e-05
3.79843e-10
1.58139e-05
3.85091e-10
1.58152e-05
2.27153e-10
1.58166e-05
-1.15318e-10
1.58181e-05
-7.34201e-10
1.58197e-05
-1.76934e-09
1.58214e-05
-3.33351e-09
1.58232e-05
-5.48035e-09
1.58252e-05
-8.22523e-09
1.58274e-05
-1.15778e-08
1.58297e-05
-1.55702e-08
1.58323e-05
-2.02867e-08
1.58352e-05
-2.58882e-08
1.58385e-05
-3.26254e-08
1.58421e-05
-4.08408e-08
1.58462e-05
-5.09581e-08
1.58509e-05
-6.34755e-08
1.58564e-05
-7.89645e-08
1.58628e-05
-9.8084e-08
1.58703e-05
-1.21613e-07
1.58792e-05
-1.50504e-07
1.58898e-05
-1.85948e-07
1.59024e-05
-2.29466e-07
1.59176e-05
-2.82989e-07
1.5936e-05
-3.49025e-07
1.59586e-05
-4.30746e-07
1.59864e-05
-5.32251e-07
-6.59085e-07
1.60234e-05
1.58112e-05
-1.30786e-10
1.58117e-05
-3.23739e-10
1.58126e-05
-4.86084e-10
1.58137e-05
-6.87497e-10
1.58149e-05
-9.83033e-10
1.58162e-05
-1.433e-09
1.58176e-05
-2.14841e-09
1.58191e-05
-3.27459e-09
1.58207e-05
-4.93228e-09
1.58224e-05
-7.18549e-09
1.58242e-05
-1.00551e-08
1.58262e-05
-1.3552e-08
1.58284e-05
-1.77097e-08
1.58307e-05
-2.26162e-08
1.58332e-05
-2.84389e-08
1.58361e-05
-3.54384e-08
1.58392e-05
-4.39692e-08
1.58427e-05
-5.44707e-08
1.58467e-05
-6.74582e-08
1.58512e-05
-8.35227e-08
1.58565e-05
-1.03345e-07
1.58626e-05
-1.27728e-07
1.58698e-05
-1.57654e-07
1.58782e-05
-1.94355e-07
1.58881e-05
-2.39407e-07
1.59e-05
-2.94829e-07
1.59142e-05
-3.63244e-07
1.59315e-05
-4.48101e-07
1.59528e-05
-5.53504e-07
-6.87342e-07
1.5981e-05
1.58111e-05
-3.07178e-10
1.58117e-05
-8.35925e-10
1.58124e-05
-1.27993e-09
1.58134e-05
-1.6862e-09
1.58146e-05
-2.12269e-09
1.58158e-05
-2.6793e-09
1.58172e-05
-3.48586e-09
1.58186e-05
-4.69405e-09
1.58201e-05
-6.43044e-09
1.58217e-05
-8.7673e-09
1.58233e-05
-1.17315e-08
1.58251e-05
-1.53356e-08
1.5827e-05
-1.96146e-08
1.58291e-05
-2.46586e-08
1.58313e-05
-3.06398e-08
1.58337e-05
-3.78257e-08
1.58363e-05
-4.65793e-08
1.58392e-05
-5.735e-08
1.58424e-05
-7.06646e-08
1.5846e-05
-8.71263e-08
1.585e-05
-1.07428e-07
1.58547e-05
-1.32389e-07
1.58601e-05
-1.63007e-07
1.58662e-05
-2.00534e-07
1.58734e-05
-2.46579e-07
1.58818e-05
-3.03208e-07
1.58917e-05
-3.7311e-07
1.59035e-05
-4.59919e-07
1.59177e-05
-5.67696e-07
-7.06181e-07
1.59365e-05
1.58111e-05
-4.68431e-10
1.58116e-05
-1.30736e-09
1.58123e-05
-2.0167e-09
1.58133e-05
-2.62323e-09
1.58144e-05
-3.20043e-09
1.58155e-05
-3.86043e-09
1.58168e-05
-4.75046e-09
1.58181e-05
-6.02908e-09
1.58195e-05
-7.82733e-09
1.5821e-05
-1.0224e-08
1.58225e-05
-1.32515e-08
1.58241e-05
-1.69249e-08
1.58258e-05
-2.12795e-08
1.58275e-05
-2.64071e-08
1.58293e-05
-3.24826e-08
1.58313e-05
-3.97774e-08
1.58334e-05
-4.86588e-08
1.58356e-05
-5.95815e-08
1.5838e-05
-7.30774e-08
1.58407e-05
-8.97546e-08
1.58435e-05
-1.10311e-07
1.58467e-05
-1.35567e-07
1.58502e-05
-1.66526e-07
1.58541e-05
-2.04441e-07
1.58585e-05
-2.50923e-07
1.58633e-05
-3.08048e-07
1.58687e-05
-3.78512e-07
1.58748e-05
-4.66025e-07
1.58817e-05
-5.74548e-07
-7.15058e-07
1.58906e-05
1.58111e-05
-6.18734e-10
1.58116e-05
-1.74931e-09
1.58123e-05
-2.7106e-09
1.58131e-05
-3.51047e-09
1.58142e-05
-4.22462e-09
1.58153e-05
-4.98238e-09
1.58165e-05
-5.94638e-09
1.58177e-05
-7.282e-09
1.5819e-05
-9.12396e-09
1.58204e-05
-1.1556e-08
1.58217e-05
-1.46151e-08
1.58231e-05
-1.83185e-08
1.58245e-05
-2.27021e-08
1.5826e-05
-2.78582e-08
1.58275e-05
-3.39627e-08
1.5829e-05
-4.12878e-08
1.58305e-05
-5.02013e-08
1.58321e-05
-6.11577e-08
1.58337e-05
-7.4688e-08
1.58354e-05
-9.13982e-08
1.5837e-05
-1.11982e-07
1.58387e-05
-1.37252e-07
1.58404e-05
-1.682e-07
1.5842e-05
-2.06063e-07
1.58435e-05
-2.52425e-07
1.58448e-05
-3.0933e-07
1.58457e-05
-3.79422e-07
1.5846e-05
-4.66367e-07
1.58455e-05
-5.73955e-07
-7.13702e-07
1.58441e-05
1.58111e-05
-7.62099e-10
1.58115e-05
-2.17232e-09
1.58122e-05
-3.3755e-09
1.5813e-05
-4.36022e-09
1.5814e-05
-5.20356e-09
1.58151e-05
-6.05065e-09
1.58162e-05
-7.07825e-09
1.58174e-05
-8.45708e-09
1.58186e-05
-1.03238e-08
1.58198e-05
-1.27655e-08
1.5821e-05
-1.58234e-08
1.58222e-05
-1.95167e-08
1.58234e-05
-2.38819e-08
1.58245e-05
-2.9011e-08
1.58257e-05
-3.5079e-08
1.58267e-05
-4.23559e-08
1.58277e-05
-5.1206e-08
1.58287e-05
-6.20784e-08
1.58295e-05
-7.54974e-08
1.58301e-05
-9.20595e-08
1.58306e-05
-1.12445e-07
1.58308e-05
-1.37451e-07
1.58306e-05
-1.68041e-07
1.583e-05
-2.05417e-07
1.58287e-05
-2.51112e-07
1.58264e-05
-3.07095e-07
1.58229e-05
-3.75897e-07
1.58176e-05
-4.61023e-07
1.58096e-05
-5.66014e-07
-7.0218e-07
1.57981e-05
1.58111e-05
-9.02548e-10
1.58115e-05
-2.58725e-09
1.58122e-05
-4.02545e-09
1.5813e-05
-5.18494e-09
1.58139e-05
-6.14616e-09
1.5815e-05
-7.07205e-09
1.5816e-05
-8.15219e-09
1.58171e-05
-9.55966e-09
1.58182e-05
-1.14308e-08
1.58193e-05
-1.38556e-08
1.58204e-05
-1.68788e-08
1.58214e-05
-2.05219e-08
1.58223e-05
-2.48214e-08
1.58232e-05
-2.98683e-08
1.58239e-05
-3.58347e-08
1.58246e-05
-4.29859e-08
1.5825e-05
-5.16782e-08
1.58253e-05
-6.23509e-08
1.58253e-05
-7.55153e-08
1.5825e-05
-9.17518e-08
1.58243e-05
-1.1172e-07
1.5823e-05
-1.36188e-07
1.58211e-05
-1.66083e-07
1.58182e-05
-2.02554e-07
1.58142e-05
-2.47054e-07
1.58085e-05
-3.01443e-07
1.58007e-05
-3.68082e-07
1.57899e-05
-4.50205e-07
1.57749e-05
-5.51025e-07
-6.80923e-07
1.57536e-05
1.58111e-05
-1.04448e-09
1.58115e-05
-3.00614e-09
1.58122e-05
-4.67558e-09
1.5813e-05
-5.99798e-09
1.58139e-05
-7.06246e-09
1.58149e-05
-8.05458e-09
1.58159e-05
-9.1751e-09
1.58169e-05
-1.05952e-08
1.5818e-05
-1.24493e-08
1.58189e-05
-1.48298e-08
1.58198e-05
-1.77851e-08
1.58207e-05
-2.13382e-08
1.58214e-05
-2.55254e-08
1.58219e-05
-3.04358e-08
1.58223e-05
-3.62372e-08
1.58225e-05
-4.31866e-08
1.58225e-05
-5.16294e-08
1.58221e-05
-6.19896e-08
1.58214e-05
-7.47603e-08
1.58201e-05
-9.04989e-08
1.58182e-05
-1.09837e-07
1.58156e-05
-1.33506e-07
1.58119e-05
-1.62384e-07
1.58069e-05
-1.97549e-07
1.58002e-05
-2.4036e-07
1.57912e-05
-2.92528e-07
1.57794e-05
-3.56201e-07
1.57634e-05
-4.34249e-07
1.57419e-05
-5.29489e-07
-6.50731e-07
1.57117e-05
1.58111e-05
-1.19317e-09
1.58116e-05
-3.44343e-09
1.58122e-05
-5.34335e-09
1.5813e-05
-6.8136e-09
1.58139e-05
-7.96262e-09
1.58149e-05
-9.00649e-09
1.58159e-05
-1.01542e-08
1.58168e-05
-1.15699e-08
1.58178e-05
-1.33844e-08
1.58186e-05
-1.56933e-08
1.58194e-05
-1.85479e-08
1.582e-05
-2.1972e-08
1.58205e-05
-2.60015e-08
1.58208e-05
-3.07227e-08
1.58209e-05
-3.62972e-08
1.58206e-05
-4.29718e-08
1.58201e-05
-5.10763e-08
1.58191e-05
-6.10155e-08
1.58176e-05
-7.32588e-08
1.58155e-05
-8.8335e-08
1.58125e-05
-1.0684e-07
1.58084e-05
-1.29463e-07
1.5803e-05
-1.57019e-07
1.5796e-05
-1.90508e-07
1.57868e-05
-2.31171e-07
1.57748e-05
-2.80552e-07
1.57592e-05
-3.40548e-07
1.57385e-05
-4.13599e-07
1.57111e-05
-5.02077e-07
-6.12735e-07
1.56731e-05
1.58111e-05
-1.35549e-09
1.58116e-05
-3.91765e-09
1.58123e-05
-6.04929e-09
1.58131e-05
-7.64655e-09
1.5814e-05
-8.85662e-09
1.5815e-05
-9.93658e-09
1.58159e-05
-1.10975e-08
1.58168e-05
-1.24903e-08
1.58177e-05
-1.42421e-08
1.58184e-05
-1.64523e-08
1.58191e-05
-1.91742e-08
1.58195e-05
-2.24316e-08
1.58198e-05
-2.62592e-08
1.58198e-05
-3.07405e-08
1.58195e-05
-3.60292e-08
1.58189e-05
-4.23589e-08
1.58179e-05
-5.00407e-08
1.58163e-05
-5.94558e-08
1.58141e-05
-7.10451e-08
1.58111e-05
-8.53033e-08
1.5807e-05
-1.02786e-07
1.58017e-05
-1.24129e-07
1.57948e-05
-1.50084e-07
1.57858e-05
-1.81557e-07
1.57743e-05
-2.19661e-07
1.57595e-05
-2.65755e-07
1.57404e-05
-3.21469e-07
1.57156e-05
-3.88778e-07
1.56831e-05
-4.69594e-07
-5.68314e-07
1.56387e-05
1.58112e-05
-1.54104e-09
1.58117e-05
-4.45371e-09
1.58125e-05
-6.81796e-09
1.58133e-05
-8.51161e-09
1.58142e-05
-9.75432e-09
1.58151e-05
-1.08545e-08
1.58161e-05
-1.20136e-08
1.58169e-05
-1.33631e-08
1.58177e-05
-1.50288e-08
1.58184e-05
-1.7114e-08
1.58189e-05
-1.96724e-08
1.58192e-05
-2.27267e-08
1.58192e-05
-2.63108e-08
1.5819e-05
-3.05042e-08
1.58184e-05
-3.54514e-08
1.58174e-05
-4.13702e-08
1.58159e-05
-4.855e-08
1.58138e-05
-5.73445e-08
1.58109e-05
-6.81614e-08
1.58071e-05
-8.14568e-08
1.5802e-05
-9.77402e-08
1.57955e-05
-1.17592e-07
1.57871e-05
-1.41689e-07
1.57764e-05
-1.70841e-07
1.57628e-05
-2.06024e-07
1.57454e-05
-2.48408e-07
1.57233e-05
-2.99348e-07
1.56949e-05
-3.60357e-07
1.56582e-05
-4.32912e-07
-5.19013e-07
1.56089e-05
1.58112e-05
-1.76409e-09
1.58118e-05
-5.08667e-09
1.58127e-05
-7.67848e-09
1.58136e-05
-9.42236e-09
1.58145e-05
-1.06653e-08
1.58154e-05
-1.17711e-08
1.58163e-05
-1.29116e-08
1.58172e-05
-1.41955e-08
1.58179e-05
-1.57513e-08
1.58184e-05
-1.76861e-08
1.58188e-05
-2.00513e-08
1.5819e-05
-2.2868e-08
1.58188e-05
-2.61691e-08
1.58184e-05
-3.00298e-08
1.58175e-05
-3.45837e-08
1.58161e-05
-4.00306e-08
1.58142e-05
-4.66349e-08
1.58116e-05
-5.47193e-08
1.58081e-05
-6.4655e-08
1.58035e-05
-7.68549e-08
1.57975e-05
-9.17785e-08
1.57899e-05
-1.09946e-07
1.57802e-05
-1.31958e-07
1.57678e-05
-1.5852e-07
1.57523e-05
-1.90474e-07
1.57327e-05
-2.28796e-07
1.57079e-05
-2.74585e-07
1.56765e-05
-3.28919e-07
1.56365e-05
-3.92918e-07
-4.66311e-07
1.55838e-05
1.58112e-05
-2.04717e-09
1.5812e-05
-5.86737e-09
1.5813e-05
-8.66395e-09
1.5814e-05
-1.03896e-08
1.58149e-05
-1.15995e-08
1.58158e-05
-1.26975e-08
1.58167e-05
-1.37996e-08
1.58175e-05
-1.49942e-08
1.58182e-05
-1.6418e-08
1.58187e-05
-1.8179e-08
1.5819e-05
-2.03234e-08
1.5819e-05
-2.28703e-08
1.58186e-05
-2.5852e-08
1.5818e-05
-2.93386e-08
1.58168e-05
-3.34515e-08
1.58152e-05
-3.83701e-08
1.58129e-05
-4.43317e-08
1.58098e-05
-5.16254e-08
1.58057e-05
-6.05819e-08
1.58004e-05
-7.15666e-08
1.57936e-05
-8.49858e-08
1.5785e-05
-1.01298e-07
1.5774e-05
-1.21024e-07
1.57603e-05
-1.44767e-07
1.5743e-05
-1.73232e-07
1.57215e-05
-2.07212e-07
1.56944e-05
-2.47572e-07
1.56605e-05
-2.95013e-07
1.5618e-05
-3.50428e-07
-4.11695e-07
1.55634e-05
1.58113e-05
-2.42862e-09
1.58124e-05
-6.86976e-09
1.58135e-05
-9.80742e-09
1.58145e-05
-1.14213e-08
1.58155e-05
-1.25701e-08
1.58164e-05
-1.36455e-08
1.58173e-05
-1.46823e-08
1.58181e-05
-1.57621e-08
1.58187e-05
-1.70331e-08
1.58191e-05
-1.85985e-08
1.58193e-05
-2.04964e-08
1.58192e-05
-2.27441e-08
1.58187e-05
-2.53736e-08
1.58178e-05
-2.84493e-08
1.58164e-05
-3.20791e-08
1.58145e-05
-3.64203e-08
1.58118e-05
-4.16799e-08
1.58083e-05
-4.81105e-08
1.58037e-05
-5.59997e-08
1.57978e-05
-6.56628e-08
1.57903e-05
-7.74511e-08
1.57808e-05
-9.17606e-08
1.57688e-05
-1.0903e-07
1.57538e-05
-1.2976e-07
1.57351e-05
-1.54529e-07
1.57118e-05
-1.83951e-07
1.56829e-05
-2.1869e-07
1.5647e-05
-2.59131e-07
1.56027e-05
-3.06135e-07
-3.56259e-07
1.55473e-05
1.58115e-05
-2.98047e-09
1.58128e-05
-8.19973e-09
1.58142e-05
-1.11263e-08
1.58153e-05
-1.25216e-08
1.58163e-05
-1.35999e-08
1.58173e-05
-1.46327e-08
1.58182e-05
-1.55709e-08
1.58189e-05
-1.65123e-08
1.58195e-05
-1.76119e-08
1.58199e-05
-1.89609e-08
1.582e-05
-2.05875e-08
1.58197e-05
-2.25088e-08
1.58191e-05
-2.47559e-08
1.5818e-05
-2.73868e-08
1.58165e-05
-3.04953e-08
1.58143e-05
-3.42153e-08
1.58113e-05
-3.8721e-08
1.58074e-05
-4.42264e-08
1.58024e-05
-5.09736e-08
1.57959e-05
-5.9223e-08
1.57878e-05
-6.92711e-08
1.57775e-05
-8.14525e-08
1.57645e-05
-9.61226e-08
1.57485e-05
-1.13683e-07
1.57285e-05
-1.34591e-07
1.57039e-05
-1.59292e-07
1.56735e-05
-1.88291e-07
1.5636e-05
-2.21665e-07
1.55904e-05
-2.60543e-07
-3.00733e-07
1.55349e-05
1.58118e-05
-3.84644e-09
1.58136e-05
-1.00153e-08
1.58151e-05
-1.26014e-08
1.58163e-05
-1.36815e-08
1.58174e-05
-1.46948e-08
1.58184e-05
-1.56506e-08
1.58193e-05
-1.64558e-08
1.582e-05
-1.72432e-08
1.58206e-05
-1.81577e-08
1.58209e-05
-1.92726e-08
1.58209e-05
-2.06068e-08
1.58206e-05
-2.21788e-08
1.58198e-05
-2.40187e-08
1.58186e-05
-2.61775e-08
1.58168e-05
-2.87337e-08
1.58144e-05
-3.17957e-08
1.58112e-05
-3.55031e-08
1.5807e-05
-4.003e-08
1.58016e-05
-4.55719e-08
1.57947e-05
-5.23305e-08
1.5786e-05
-6.05469e-08
1.5775e-05
-7.04968e-08
1.57614e-05
-8.24544e-08
1.57444e-05
-9.67274e-08
1.57235e-05
-1.13658e-07
1.56977e-05
-1.33526e-07
1.56661e-05
-1.56707e-07
1.56274e-05
-1.82929e-07
1.55808e-05
-2.13983e-07
-2.44688e-07
1.55248e-05
1.58124e-05
-5.29378e-09
1.58149e-05
-1.2522e-08
1.58165e-05
-1.42282e-08
1.58178e-05
-1.49755e-08
1.5819e-05
-1.58976e-08
1.58201e-05
-1.66985e-08
1.5821e-05
-1.73349e-08
1.58217e-05
-1.79616e-08
1.58222e-05
-1.86791e-08
1.58225e-05
-1.95442e-08
1.58224e-05
-2.05666e-08
1.5822e-05
-2.17683e-08
1.58212e-05
-2.3178e-08
1.58199e-05
-2.48401e-08
1.58179e-05
-2.68184e-08
1.58153e-05
-2.91934e-08
1.58119e-05
-3.20694e-08
1.58075e-05
-3.55799e-08
1.58017e-05
-3.98696e-08
1.57945e-05
-4.50743e-08
1.57853e-05
-5.13889e-08
1.57739e-05
-5.90286e-08
1.57596e-05
-6.81797e-08
1.57419e-05
-7.90721e-08
1.57202e-05
-9.19503e-08
1.56936e-05
-1.06943e-07
1.56612e-05
-1.2428e-07
1.56214e-05
-1.43149e-07
1.55743e-05
-1.66881e-07
-1.8618e-07
1.55158e-05
1.58135e-05
-7.83999e-09
1.58166e-05
-1.56313e-08
1.58183e-05
-1.58875e-08
1.58198e-05
-1.65059e-08
1.58211e-05
-1.72332e-08
1.58222e-05
-1.77853e-08
1.58231e-05
-1.82334e-08
1.58239e-05
-1.86899e-08
1.58244e-05
-1.91975e-08
1.58246e-05
-1.9794e-08
1.58246e-05
-2.04888e-08
1.58241e-05
-2.13046e-08
1.58232e-05
-2.22673e-08
1.58218e-05
-2.34141e-08
1.58197e-05
-2.47956e-08
1.5817e-05
-2.64601e-08
1.58134e-05
-2.84716e-08
1.58087e-05
-3.09285e-08
1.58028e-05
-3.39332e-08
1.57953e-05
-3.75327e-08
1.57858e-05
-4.18821e-08
1.57739e-05
-4.71598e-08
1.57592e-05
-5.34527e-08
1.5741e-05
-6.09128e-08
1.57187e-05
-6.9687e-08
1.56916e-05
-7.98224e-08
1.56587e-05
-9.13586e-08
1.56182e-05
-1.02691e-07
1.55702e-05
-1.1887e-07
-1.19179e-07
1.55032e-05
1.5817e-05
-1.38375e-08
1.58203e-05
-1.89688e-08
1.58223e-05
-1.78512e-08
1.58237e-05
-1.79638e-08
1.58249e-05
-1.84265e-08
1.58259e-05
-1.87314e-08
1.58266e-05
-1.8944e-08
1.5827e-05
-1.91643e-08
1.58273e-05
-1.94183e-08
1.58272e-05
-1.97188e-08
1.58268e-05
-2.00715e-08
1.5826e-05
-2.04877e-08
1.58247e-05
-2.09802e-08
1.58228e-05
-2.15683e-08
1.58203e-05
-2.22793e-08
1.5817e-05
-2.31351e-08
1.58127e-05
-2.41686e-08
1.58072e-05
-2.54368e-08
1.58003e-05
-2.69966e-08
1.57916e-05
-2.8854e-08
1.57808e-05
-3.11031e-08
1.57675e-05
-3.38478e-08
1.57511e-05
-3.71103e-08
1.57312e-05
-4.09745e-08
1.5707e-05
-4.55177e-08
1.56779e-05
-5.07025e-08
1.56431e-05
-5.65718e-08
1.56012e-05
-6.0811e-08
1.55484e-05
-6.60591e-08
-2.46469e-08
1.54539e-05
1.57971e-05
1.57782e-05
1.57603e-05
1.57423e-05
1.57239e-05
1.57052e-05
1.56862e-05
1.56671e-05
1.56477e-05
1.56279e-05
1.56079e-05
1.55874e-05
1.55664e-05
1.55448e-05
1.55226e-05
1.54994e-05
1.54753e-05
1.54498e-05
1.54228e-05
1.5394e-05
1.53629e-05
1.5329e-05
1.52919e-05
1.52509e-05
1.52054e-05
1.51547e-05
1.50981e-05
1.50373e-05
1.49713e-05
1.49466e-05
1.55239e-05
-9.06817e-06
9.35369e-06
1.51894e-05
-9.15322e-06
9.48772e-06
1.47988e-05
-9.21225e-06
9.60285e-06
1.43634e-05
-9.24571e-06
9.68116e-06
1.39032e-05
-9.27463e-06
9.7348e-06
1.34315e-05
-9.30628e-06
9.77801e-06
1.29544e-05
-9.34144e-06
9.81853e-06
1.24745e-05
-9.37973e-06
9.85958e-06
1.19929e-05
-9.42103e-06
9.90265e-06
1.15097e-05
-9.4653e-06
9.9485e-06
1.10248e-05
-9.51257e-06
9.99749e-06
1.0538e-05
-9.56311e-06
1.00499e-05
1.00493e-05
-9.61743e-06
1.01062e-05
9.55854e-06
-9.67628e-06
1.0167e-05
9.06578e-06
-9.74064e-06
1.02334e-05
8.57092e-06
-9.81172e-06
1.03066e-05
8.07379e-06
-9.89105e-06
1.03882e-05
7.57411e-06
-9.98068e-06
1.04804e-05
7.07148e-06
-1.00833e-05
1.05859e-05
6.56528e-06
-1.02025e-05
1.07087e-05
6.05469e-06
-1.03432e-05
1.08538e-05
5.53797e-06
-1.05127e-05
1.10295e-05
5.01446e-06
-1.07202e-05
1.12437e-05
4.47618e-06
-1.09849e-05
1.15232e-05
3.93105e-06
-1.13146e-05
1.18597e-05
3.33689e-06
-1.18014e-05
1.23956e-05
2.74883e-06
-1.23443e-05
1.29324e-05
1.99775e-06
-1.35322e-05
1.42832e-05
1.22848e-06
-1.44258e-05
1.51951e-05
-1.84837e-05
1.97122e-05
1.58011e-05
-8.66413e-06
1.53482e-05
-8.70036e-06
1.48719e-05
-8.73593e-06
1.43898e-05
-8.76367e-06
1.39086e-05
-8.7934e-06
1.34292e-05
-8.82692e-06
1.2951e-05
-8.86322e-06
1.24728e-05
-8.90148e-06
1.19935e-05
-8.94172e-06
1.15125e-05
-8.98431e-06
1.10296e-05
-9.02964e-06
1.05446e-05
-9.07817e-06
1.00577e-05
-9.13051e-06
9.56883e-06
-9.1874e-06
9.07791e-06
-9.24973e-06
8.58484e-06
-9.31864e-06
8.08939e-06
-9.3956e-06
7.59124e-06
-9.48253e-06
7.08993e-06
-9.58197e-06
6.58479e-06
-9.69734e-06
6.07485e-06
-9.8333e-06
5.55855e-06
-9.99643e-06
5.03418e-06
-1.01959e-05
4.49627e-06
-1.0447e-05
3.94595e-06
-1.07643e-05
3.35478e-06
-1.12102e-05
2.75313e-06
-1.17426e-05
2.00918e-06
-1.27882e-05
1.23266e-06
-1.36493e-05
-1.7251e-05
1.57648e-05
-8.20875e-06
1.5299e-05
-8.23456e-06
1.48281e-05
-8.26497e-06
1.43587e-05
-8.29432e-06
1.38894e-05
-8.32404e-06
1.34186e-05
-8.35616e-06
1.29457e-05
-8.39028e-06
1.24703e-05
-8.42611e-06
1.19926e-05
-8.46403e-06
1.15128e-05
-8.50452e-06
1.10311e-05
-8.54793e-06
1.05476e-05
-8.59464e-06
1.00622e-05
-8.64515e-06
9.57494e-06
-8.70013e-06
9.08564e-06
-8.76042e-06
8.59411e-06
-8.82711e-06
8.10011e-06
-8.9016e-06
7.60328e-06
-8.9857e-06
7.10312e-06
-9.08181e-06
6.59889e-06
-9.19312e-06
6.08956e-06
-9.32396e-06
5.57355e-06
-9.48043e-06
5.04871e-06
-9.67102e-06
4.51073e-06
-9.90902e-06
3.95697e-06
-1.02105e-05
3.36752e-06
-1.06208e-05
2.75568e-06
-1.11308e-05
2.01717e-06
-1.20497e-05
1.23114e-06
-1.28633e-05
-1.60199e-05
1.57573e-05
-7.74815e-06
1.52941e-05
-7.77134e-06
1.48268e-05
-7.7977e-06
1.43575e-05
-7.82508e-06
1.38869e-05
-7.85338e-06
1.34143e-05
-7.88361e-06
1.294e-05
-7.91594e-06
1.24641e-05
-7.95026e-06
1.19869e-05
-7.98677e-06
1.15081e-05
-8.02577e-06
1.10278e-05
-8.06758e-06
1.05457e-05
-8.11258e-06
1.00618e-05
-8.16126e-06
9.57597e-06
-8.21428e-06
9.08802e-06
-8.27248e-06
8.59777e-06
-8.33686e-06
8.10494e-06
-8.40877e-06
7.60914e-06
-8.4899e-06
7.1098e-06
-8.58248e-06
6.60616e-06
-8.68947e-06
6.09709e-06
-8.81489e-06
5.58098e-06
-8.96432e-06
5.05546e-06
-9.1455e-06
4.51662e-06
-9.37018e-06
3.95997e-06
-9.65388e-06
3.37054e-06
-1.00314e-05
2.75023e-06
-1.05105e-05
2.01629e-06
-1.13158e-05
1.22397e-06
-1.2071e-05
-1.47959e-05
1.57412e-05
-7.28496e-06
1.52762e-05
-7.30638e-06
1.48086e-05
-7.33013e-06
1.43395e-05
-7.35597e-06
1.38695e-05
-7.38336e-06
1.33983e-05
-7.41242e-06
1.29257e-05
-7.44333e-06
1.24516e-05
-7.47617e-06
1.19759e-05
-7.5111e-06
1.14986e-05
-7.54844e-06
1.10195e-05
-7.58851e-06
1.05387e-05
-7.6317e-06
1.00559e-05
-7.67852e-06
9.5712e-06
-7.72957e-06
9.08435e-06
-7.78562e-06
8.59512e-06
-7.84764e-06
8.1032e-06
-7.91685e-06
7.60815e-06
-7.99485e-06
7.10938e-06
-8.0837e-06
6.60605e-06
-8.18614e-06
6.09699e-06
-8.30584e-06
5.58052e-06
-8.44784e-06
5.05417e-06
-8.61915e-06
4.51413e-06
-8.83014e-06
3.95509e-06
-9.09485e-06
3.36471e-06
-9.441e-06
2.73795e-06
-9.88373e-06
2.00763e-06
-1.05854e-05
1.20992e-06
-1.12733e-05
-1.3586e-05
1.57209e-05
-6.8211e-06
1.52558e-05
-6.84129e-06
1.47891e-05
-6.86341e-06
1.4321e-05
-6.88795e-06
1.38519e-05
-6.91422e-06
1.33815e-05
-6.94197e-06
1.29095e-05
-6.97137e-06
1.2436e-05
-7.00267e-06
1.1961e-05
-7.03608e-06
1.14844e-05
-7.07184e-06
1.10062e-05
-7.11028e-06
1.05262e-05
-7.15176e-06
1.00444e-05
-7.19674e-06
9.56064e-06
-7.24579e-06
9.07466e-06
-7.29964e-06
8.58621e-06
-7.35919e-06
8.09495e-06
-7.42559e-06
7.6004e-06
-7.5003e-06
7.10193e-06
-7.58523e-06
6.59865e-06
-7.68287e-06
6.08936e-06
-7.79654e-06
5.57229e-06
-7.93078e-06
5.04494e-06
-8.0918e-06
4.50347e-06
-8.28866e-06
3.94229e-06
-8.53366e-06
3.35043e-06
-8.84914e-06
2.7188e-06
-9.25209e-06
1.99175e-06
-9.8584e-06
1.19063e-06
-1.04721e-05
-1.23954e-05
1.56963e-05
-6.35715e-06
1.52313e-05
-6.3763e-06
1.4765e-05
-6.39712e-06
1.42975e-05
-6.42042e-06
1.38288e-05
-6.44551e-06
1.33588e-05
-6.47198e-06
1.28874e-05
-6.50002e-06
1.24147e-05
-6.52991e-06
1.19405e-05
-6.56186e-06
1.14647e-05
-6.59609e-06
1.09873e-05
-6.6329e-06
1.05082e-05
-6.67263e-06
1.00272e-05
-6.71572e-06
9.5441e-06
-6.76272e-06
9.05876e-06
-6.81429e-06
8.57085e-06
-6.87128e-06
8.08e-06
-6.93474e-06
7.5857e-06
-7.00601e-06
7.08729e-06
-7.08682e-06
6.58385e-06
-7.17942e-06
6.0741e-06
-7.2868e-06
5.55627e-06
-7.41295e-06
5.0278e-06
-7.56333e-06
4.48482e-06
-7.74569e-06
3.92169e-06
-7.97053e-06
3.32819e-06
-8.25564e-06
2.6931e-06
-8.617e-06
1.96957e-06
-9.13487e-06
1.16687e-06
-9.66943e-06
-1.12285e-05
1.56677e-05
-5.89321e-06
1.52028e-05
-5.91144e-06
1.47369e-05
-5.93116e-06
1.42698e-05
-5.9533e-06
1.38015e-05
-5.97723e-06
1.3332e-05
-6.00247e-06
1.28611e-05
-6.0292e-06
1.23889e-05
-6.0577e-06
1.19153e-05
-6.0882e-06
1.14401e-05
-6.12091e-06
1.09633e-05
-6.15607e-06
1.04847e-05
-6.19404e-06
1.00042e-05
-6.23523e-06
9.52161e-06
-6.28013e-06
9.03668e-06
-6.32936e-06
8.54909e-06
-6.38369e-06
8.05843e-06
-6.44408e-06
7.56418e-06
-6.51176e-06
7.06563e-06
-6.58826e-06
6.56182e-06
-6.67562e-06
6.05146e-06
-6.77644e-06
5.53273e-06
-6.89422e-06
5.00305e-06
-7.03365e-06
4.45859e-06
-7.20122e-06
3.8937e-06
-7.40564e-06
3.2987e-06
-7.66065e-06
2.66138e-06
-7.97968e-06
1.94171e-06
-8.4152e-06
1.13954e-06
-8.86725e-06
-1.0089e-05
1.56351e-05
-5.42929e-06
1.51704e-05
-5.44669e-06
1.47046e-05
-5.46541e-06
1.42378e-05
-5.48645e-06
1.37698e-05
-5.50924e-06
1.33006e-05
-5.53328e-06
1.28301e-05
-5.55873e-06
1.23583e-05
-5.58588e-06
1.18851e-05
-5.61496e-06
1.14103e-05
-5.64614e-06
1.09339e-05
-5.67966e-06
1.04557e-05
-5.71586e-06
9.97557e-06
-5.75509e-06
9.49328e-06
-5.79784e-06
9.00857e-06
-5.84464e-06
8.5211e-06
-5.89622e-06
8.03044e-06
-5.95343e-06
7.53605e-06
-6.01736e-06
7.03718e-06
-6.0894e-06
6.53286e-06
-6.1713e-06
6.02177e-06
-6.26535e-06
5.50207e-06
-6.37452e-06
4.97119e-06
-6.50276e-06
4.42531e-06
-6.65535e-06
3.85892e-06
-6.83924e-06
3.26274e-06
-7.06447e-06
2.62433e-06
-7.34127e-06
1.90902e-06
-7.69989e-06
1.10963e-06
-8.06786e-06
-8.97933e-06
1.55989e-05
-4.96531e-06
1.51342e-05
-4.98195e-06
1.46685e-05
-4.99977e-06
1.42018e-05
-5.01976e-06
1.3734e-05
-5.04142e-06
1.3265e-05
-5.06429e-06
1.27948e-05
-5.08849e-06
1.23232e-05
-5.11431e-06
1.18502e-05
-5.14197e-06
1.13757e-05
-5.17162e-06
1.08995e-05
-5.2035e-06
1.04216e-05
-5.23789e-06
9.94161e-06
-5.27513e-06
9.45943e-06
-5.31566e-06
8.97476e-06
-5.35997e-06
8.48724e-06
-5.4087e-06
7.99643e-06
-5.46261e-06
7.50174e-06
-5.52267e-06
7.00242e-06
-5.59008e-06
6.49749e-06
-5.66636e-06
5.9856e-06
-5.75346e-06
5.46492e-06
-5.85384e-06
4.93288e-06
-5.97073e-06
4.38577e-06
-6.10824e-06
3.81817e-06
-6.27164e-06