/*--------------------------------*- C++ -*----------------------------------*\
  =========                 |
  \\      /  F ield         | OpenFOAM: The Open Source CFD Toolbox
   \\    /   O peration     | Website:  https://openfoam.org
    \\  /    A nd           | Version:  11
     \\/     M anipulation  |
\*---------------------------------------------------------------------------*/
FoamFile
{
    format      ascii;
    class       surfaceScalarField;
    location    "5";
    object      phi;
}
// * * * * * * * * * * * * * * * * * * * * * * * * * * * * * * * * * * * * * //

dimensions      [0 3 -1 0 0 0 0];

internalField   nonuniform List<scalar> 
24840
(
1.9242e-05
6.10576e-09
1.92364e-05
5.61303e-09
1.92336e-05
2.79525e-09
1.92338e-05
-1.80896e-10
1.92369e-05
-3.13746e-09
1.92433e-05
-6.31613e-09
1.92529e-05
-9.59998e-09
1.92659e-05
-1.30595e-08
1.92827e-05
-1.67719e-08
1.93035e-05
-2.08488e-08
1.93289e-05
-2.53901e-08
1.93594e-05
-3.05155e-08
1.93958e-05
-3.63713e-08
1.94389e-05
-4.31364e-08
1.949e-05
-5.10212e-08
1.95502e-05
-6.02663e-08
1.96214e-05
-7.11449e-08
1.97053e-05
-8.39619e-08
1.98044e-05
-9.90534e-08
1.99212e-05
-1.16785e-07
2.00587e-05
-1.37544e-07
2.02205e-05
-1.61732e-07
2.04102e-05
-1.89712e-07
2.0632e-05
-2.21871e-07
2.08907e-05
-2.58634e-07
2.11906e-05
-2.99943e-07
2.15373e-05
-3.46692e-07
2.19306e-05
-3.93253e-07
2.2392e-05
-4.61442e-07
-4.37493e-07
2.28295e-05
1.92529e-05
1.33048e-09
1.92596e-05
-1.0354e-09
1.92685e-05
-6.13315e-09
1.92804e-05
-1.21014e-08
1.92956e-05
-1.82849e-08
1.9314e-05
-2.48101e-08
1.93362e-05
-3.17264e-08
1.93622e-05
-3.90558e-08
1.93922e-05
-4.67874e-08
1.94263e-05
-5.49281e-08
1.94645e-05
-6.36046e-08
1.95071e-05
-7.31358e-08
1.95547e-05
-8.39722e-08
1.96081e-05
-9.65797e-08
1.96685e-05
-1.11396e-07
1.97371e-05
-1.28863e-07
1.98154e-05
-1.49465e-07
1.99052e-05
-1.73758e-07
2.00086e-05
-2.0238e-07
2.01278e-05
-2.36031e-07
2.02657e-05
-2.75471e-07
2.04255e-05
-3.21521e-07
2.06108e-05
-3.75012e-07
2.08257e-05
-4.36748e-07
2.10746e-05
-5.07498e-07
2.13623e-05
-5.87668e-07
2.1694e-05
-6.78427e-07
2.2075e-05
-7.742e-07
2.25117e-05
-8.98161e-07
-9.25333e-07
2.29995e-05
1.92512e-05
-1.74575e-09
1.92572e-05
-7.00596e-09
1.92657e-05
-1.46711e-08
1.92772e-05
-2.35634e-08
1.92918e-05
-3.29414e-08
1.93098e-05
-4.27537e-08
1.93311e-05
-5.30778e-08
1.9356e-05
-6.39324e-08
1.93846e-05
-7.53342e-08
1.9417e-05
-8.73731e-08
1.94537e-05
-1.00284e-07
1.9495e-05
-1.14484e-07
1.95416e-05
-1.30533e-07
1.95941e-05
-1.49051e-07
1.96533e-05
-1.70678e-07
1.97206e-05
-1.96088e-07
1.97971e-05
-2.26029e-07
1.98847e-05
-2.61344e-07
1.99853e-05
-3.02994e-07
2.01013e-05
-3.52045e-07
2.02355e-05
-4.09665e-07
2.03911e-05
-4.77125e-07
2.05719e-05
-5.5575e-07
2.0782e-05
-6.46846e-07
2.10262e-05
-7.5168e-07
2.13095e-05
-8.71037e-07
2.16377e-05
-1.00662e-06
2.20159e-05
-1.15237e-06
2.24506e-05
-1.3329e-06
-1.42367e-06
2.2949e-05
1.92503e-05
-3.89523e-09
1.92556e-05
-1.23509e-08
1.92637e-05
-2.27531e-08
1.92747e-05
-3.45087e-08
1.92887e-05
-4.70148e-08
1.93061e-05
-6.00819e-08
1.93267e-05
-7.37206e-08
1.93507e-05
-8.7953e-08
1.93782e-05
-1.02847e-07
1.94095e-05
-1.18596e-07
1.94447e-05
-1.35555e-07
1.94845e-05
-1.54245e-07
1.95293e-05
-1.75326e-07
1.95798e-05
-1.99546e-07
1.96368e-05
-2.27725e-07
1.97015e-05
-2.6076e-07
1.97751e-05
-2.99653e-07
1.98593e-05
-3.45538e-07
1.9956e-05
-3.99698e-07
2.00675e-05
-4.63572e-07
2.01966e-05
-5.38751e-07
2.03465e-05
-6.26962e-07
2.05207e-05
-7.30031e-07
2.07237e-05
-8.49822e-07
2.09602e-05
-9.88204e-07
2.12358e-05
-1.14655e-06
2.15563e-05
-1.32712e-06
2.19284e-05
-1.52452e-06
2.23581e-05
-1.76258e-06
-1.92446e-06
2.28589e-05
1.92498e-05
-5.52354e-09
1.92545e-05
-1.70749e-08
1.9262e-05
-3.02686e-08
1.92723e-05
-4.48404e-08
1.92857e-05
-6.03411e-08
1.93021e-05
-7.65166e-08
1.93217e-05
-9.33205e-08
1.93445e-05
-1.10793e-07
1.93707e-05
-1.29053e-07
1.94005e-05
-1.48363e-07
1.94341e-05
-1.69163e-07
1.94719e-05
-1.92079e-07
1.95145e-05
-2.17883e-07
1.95624e-05
-2.47469e-07
1.96165e-05
-2.8183e-07
1.96778e-05
-3.22073e-07
1.97476e-05
-3.69439e-07
1.98274e-05
-4.25338e-07
1.99191e-05
-4.91366e-07
2.00249e-05
-5.69322e-07
2.01473e-05
-6.61206e-07
2.02896e-05
-7.69217e-07
2.04553e-05
-8.95727e-07
2.06487e-05
-1.04322e-06
2.08747e-05
-1.21425e-06
2.11391e-05
-1.41098e-06
2.14484e-05
-1.63639e-06
2.18104e-05
-1.88652e-06
2.22315e-05
-2.18366e-06
-2.42139e-06
2.27284e-05
1.92495e-05
-6.89954e-09
1.92537e-05
-2.1289e-08
1.92607e-05
-3.72025e-08
1.92703e-05
-5.4491e-08
1.92828e-05
-7.28227e-08
1.92982e-05
-9.19327e-08
1.93166e-05
-1.11731e-07
1.93381e-05
-1.32256e-07
1.93627e-05
-1.53669e-07
1.93906e-05
-1.76298e-07
1.94221e-05
-2.00669e-07
1.94576e-05
-2.27505e-07
1.94974e-05
-2.57694e-07
1.95422e-05
-2.92266e-07
1.95927e-05
-3.32377e-07
1.965e-05
-3.79321e-07
1.97151e-05
-4.34562e-07
1.97895e-05
-4.99761e-07
1.9875e-05
-5.76815e-07
1.99735e-05
-6.67875e-07
2.00877e-05
-7.75356e-07
2.02204e-05
-9.01937e-07
2.03752e-05
-1.05055e-06
2.05564e-05
-1.22436e-06
2.07688e-05
-1.42671e-06
2.10186e-05
-1.66076e-06
2.13127e-05
-1.93046e-06
2.166e-05
-2.23382e-06
2.2068e-05
-2.59165e-06
-2.91066e-06
2.25572e-05
1.92494e-05
-8.11947e-09
1.92531e-05
-2.50516e-08
1.92594e-05
-4.35156e-08
1.92683e-05
-6.33664e-08
1.92798e-05
-8.43333e-08
1.9294e-05
-1.06159e-07
1.9311e-05
-1.28727e-07
1.93309e-05
-1.52077e-07
1.93536e-05
-1.76402e-07
1.93794e-05
-2.02088e-07
1.94084e-05
-2.29734e-07
1.94411e-05
-2.60151e-07
1.94777e-05
-2.94335e-07
1.95189e-05
-3.33442e-07
1.95653e-05
-3.7878e-07
1.96178e-05
-4.31818e-07
1.96775e-05
-4.94216e-07
1.97456e-05
-5.67872e-07
1.98237e-05
-6.54962e-07
1.99138e-05
-7.57969e-07
2.00182e-05
-8.79703e-07
2.01395e-05
-1.02332e-06
2.02813e-05
-1.19233e-06
2.04476e-05
-1.39061e-06
2.06433e-05
-1.6224e-06
2.08745e-05
-1.89202e-06
2.11487e-05
-2.20468e-06
2.14759e-05
-2.56094e-06
2.18646e-05
-2.98041e-06
-3.38621e-06
2.23402e-05
1.92492e-05
-9.20498e-09
1.92526e-05
-2.83946e-08
1.92582e-05
-4.91844e-08
1.92663e-05
-7.13938e-08
1.92767e-05
-9.4771e-08
1.92896e-05
-1.19068e-07
1.9305e-05
-1.44155e-07
1.9323e-05
-1.70068e-07
1.93436e-05
-1.97028e-07
1.9367e-05
-2.25465e-07
1.93933e-05
-2.56044e-07
1.94228e-05
-2.89656e-07
1.94559e-05
-3.27394e-07
1.9493e-05
-3.70533e-07
1.95347e-05
-4.20512e-07
1.95819e-05
-4.78955e-07
1.96353e-05
-5.47695e-07
1.96963e-05
-6.28838e-07
1.97662e-05
-7.24808e-07
1.98466e-05
-8.38395e-07
1.99397e-05
-9.7278e-07
2.00479e-05
-1.13158e-06
2.01745e-05
-1.31887e-06
2.03231e-05
-1.53927e-06
2.04987e-05
-1.79796e-06
2.07072e-05
-2.10059e-06
2.09564e-05
-2.45386e-06
2.12569e-05
-2.86145e-06
2.16187e-05
-3.34218e-06
-3.8391e-06
2.20716e-05
1.92491e-05
-1.01589e-08
1.9252e-05
-3.13298e-08
1.9257e-05
-5.41879e-08
1.92641e-05
-7.85113e-08
1.92734e-05
-1.04044e-07
1.92849e-05
-1.30539e-07
1.92986e-05
-1.57859e-07
1.93146e-05
-1.86041e-07
1.93329e-05
-2.15322e-07
1.93536e-05
-2.46173e-07
1.93768e-05
-2.79314e-07
1.94029e-05
-3.15702e-07
1.9432e-05
-3.56517e-07
1.94646e-05
-4.03133e-07
1.95012e-05
-4.57107e-07
1.95424e-05
-5.20189e-07
1.95891e-05
-5.94362e-07
1.96422e-05
-6.81905e-07
1.97028e-05
-7.8546e-07
1.97725e-05
-9.08082e-07
1.9853e-05
-1.05328e-06
1.99465e-05
-1.2251e-06
2.00558e-05
-1.42814e-06
2.01843e-05
-1.66774e-06
2.03364e-05
-1.95005e-06
2.05179e-05
-2.28211e-06
2.07364e-05
-2.67235e-06
2.10029e-05
-3.12796e-06
2.13282e-05
-3.66746e-06
-4.25716e-06
2.17462e-05
1.9249e-05
-1.098e-08
1.92515e-05
-3.38553e-08
1.92558e-05
-5.85033e-08
1.92619e-05
-8.46654e-08
1.927e-05
-1.1207e-07
1.92799e-05
-1.40465e-07
1.92918e-05
-1.6971e-07
1.93055e-05
-1.99838e-07
1.93213e-05
-2.31103e-07
1.93392e-05
-2.64004e-07
1.93592e-05
-2.99305e-07
1.93815e-05
-3.3802e-07
1.94064e-05
-3.81399e-07
1.94341e-05
-4.309e-07
1.94652e-05
-4.88172e-07
1.95001e-05
-5.55068e-07
1.95394e-05
-6.33687e-07
1.95839e-05
-7.26448e-07
1.96346e-05
-8.36164e-07
1.96927e-05
-9.66109e-07
1.97595e-05
-1.12007e-06
1.98368e-05
-1.30243e-06
1.99269e-05
-1.51828e-06
2.00328e-05
-1.77359e-06
2.01582e-05
-2.07546e-06
2.03083e-05
-2.43226e-06
2.04902e-05
-2.85425e-06
2.07147e-05
-3.35238e-06
2.09925e-05
-3.94527e-06
-4.62505e-06
2.13604e-05
1.92488e-05
-1.16654e-08
1.92509e-05
-3.59631e-08
1.92545e-05
-6.21081e-08
1.92597e-05
-8.9811e-08
1.92664e-05
-1.18782e-07
1.92747e-05
-1.48759e-07
1.92846e-05
-1.79597e-07
1.92961e-05
-2.11328e-07
1.93092e-05
-2.44215e-07
1.93239e-05
-2.78781e-07
1.93405e-05
-3.15819e-07
1.93588e-05
-3.56389e-07
1.93792e-05
-4.01794e-07
1.94019e-05
-4.53553e-07
1.94271e-05
-5.13389e-07
1.94553e-05
-5.83226e-07
1.94868e-05
-6.65245e-07
1.95223e-05
-7.61963e-07
1.95625e-05
-8.76318e-07
1.96081e-05
-1.01174e-06
1.96603e-05
-1.17222e-06
1.97202e-05
-1.3624e-06
1.97897e-05
-1.58774e-06
1.98708e-05
-1.85474e-06
1.99667e-05
-2.17128e-06
2.00814e-05
-2.54696e-06
2.02209e-05
-2.99377e-06
2.03948e-05
-3.52632e-06
2.06132e-05
-4.1637e-06
-4.92474e-06
2.09129e-05
1.92487e-05
-1.22123e-08
1.92504e-05
-3.76445e-08
1.92532e-05
-6.49827e-08
1.92573e-05
-9.39126e-08
1.92627e-05
-1.24126e-07
1.92693e-05
-1.5535e-07
1.92771e-05
-1.87433e-07
1.92862e-05
-2.20407e-07
1.92965e-05
-2.54539e-07
1.93081e-05
-2.90367e-07
1.9321e-05
-3.28705e-07
1.93352e-05
-3.7064e-07
1.9351e-05
-4.17513e-07
1.93683e-05
-4.70886e-07
1.93874e-05
-5.32525e-07
1.94086e-05
-6.04398e-07
1.94321e-05
-6.88733e-07
1.94582e-05
-7.88098e-07
1.94874e-05
-9.055e-07
1.95201e-05
-1.04445e-06
1.9557e-05
-1.20906e-06
1.95987e-05
-1.40413e-06
1.96463e-05
-1.63533e-06
1.97011e-05
-1.90952e-06
1.97649e-05
-2.23515e-06
1.98407e-05
-2.62274e-06
1.99326e-05
-3.08571e-06
2.00482e-05
-3.64185e-06
2.01953e-05
-4.31085e-06
-5.13681e-06
2.04074e-05
1.92485e-05
-1.26184e-08
1.92498e-05
-3.88922e-08
1.92519e-05
-6.71124e-08
1.92549e-05
-9.6944e-08
1.92589e-05
-1.28063e-07
1.92637e-05
-1.60186e-07
1.92694e-05
-1.93155e-07
1.9276e-05
-2.26999e-07
1.92835e-05
-2.61988e-07
1.92918e-05
-2.98664e-07
1.93009e-05
-3.37853e-07
1.93109e-05
-3.80657e-07
1.93219e-05
-4.28433e-07
1.93337e-05
-4.82764e-07
1.93467e-05
-5.45434e-07
1.93607e-05
-6.18426e-07
1.93759e-05
-7.03973e-07
1.93925e-05
-8.04652e-07
1.94105e-05
-9.23474e-07
1.943e-05
-1.06397e-06
1.94511e-05
-1.23024e-06
1.94741e-05
-1.42712e-06
1.94992e-05
-1.66036e-06
1.95265e-05
-1.9369e-06
1.95569e-05
-2.26546e-06
1.95912e-05
-2.65708e-06
1.96315e-05
-3.12603e-06
1.96821e-05
-3.69239e-06
1.97474e-05
-4.37617e-06
-5.24251e-06
1.98531e-05
1.92484e-05
-1.28827e-08
1.92492e-05
-3.9702e-08
1.92506e-05
-6.84883e-08
1.92525e-05
-9.88899e-08
1.9255e-05
-1.3057e-07
1.92581e-05
-1.63236e-07
1.92617e-05
-1.96724e-07
1.92657e-05
-2.31059e-07
1.92702e-05
-2.66509e-07
1.92752e-05
-3.03616e-07
1.92805e-05
-3.43204e-07
1.92863e-05
-3.86376e-07
1.92923e-05
-4.3449e-07
1.92987e-05
-4.89128e-07
1.93053e-05
-5.52062e-07
1.93121e-05
-6.25258e-07
1.93191e-05
-7.1092e-07
1.9326e-05
-8.11583e-07
1.93327e-05
-9.30207e-07
1.9339e-05
-1.07024e-06
1.93445e-05
-1.23571e-06
1.93487e-05
-1.43132e-06
1.9351e-05
-1.66267e-06
1.93507e-05
-1.93658e-06
1.93468e-05
-2.26161e-06
1.93385e-05
-2.64877e-06
1.9325e-05
-3.11245e-06
1.93062e-05
-3.67368e-06
1.92822e-05
-4.3521e-06
-5.22679e-06
1.92665e-05
1.92483e-05
-1.30034e-08
1.92486e-05
-4.00748e-08
1.92492e-05
-6.91096e-08
1.92501e-05
-9.97463e-08
1.92512e-05
-1.31639e-07
1.92524e-05
-1.64488e-07
1.92538e-05
-1.98124e-07
1.92553e-05
-2.32569e-07
1.92569e-05
-2.68084e-07
1.92585e-05
-3.05203e-07
1.926e-05
-3.44741e-07
1.92614e-05
-3.87789e-07
1.92626e-05
-4.35687e-07
1.92635e-05
-4.89991e-07
1.92639e-05
-5.5244e-07
1.92636e-05
-6.24947e-07
1.92623e-05
-7.09655e-07
1.92597e-05
-8.09013e-07
1.92554e-05
-9.25867e-07
1.92487e-05
-1.06352e-06
1.92387e-05
-1.22578e-06
1.92245e-05
-1.4171e-06
1.92046e-05
-1.64273e-06
1.91771e-05
-1.90907e-06
1.91396e-05
-2.22412e-06
1.90891e-05
-2.59824e-06
1.90216e-05
-3.04501e-06
1.89327e-05
-3.58477e-06
1.88163e-05
-4.23574e-06
-5.08152e-06
1.86711e-05
1.92481e-05
-1.29863e-08
1.92481e-05
-4.00122e-08
1.92479e-05
-6.89808e-08
1.92477e-05
-9.95199e-08
1.92473e-05
-1.31277e-07
1.92468e-05
-1.6395e-07
1.9246e-05
-1.97366e-07
1.9245e-05
-2.31542e-07
1.92437e-05
-2.6673e-07
1.92419e-05
-3.0345e-07
1.92397e-05
-3.42498e-07
1.92368e-05
-3.8494e-07
1.92332e-05
-4.32083e-07
1.92287e-05
-4.85437e-07
1.92229e-05
-5.46679e-07
1.92156e-05
-6.17648e-07
1.92063e-05
-7.00387e-07
1.91945e-05
-7.97219e-07
1.91795e-05
-9.10821e-07
1.91602e-05
-1.04427e-06
1.91355e-05
-1.20107e-06
1.91037e-05
-1.38528e-06
1.90626e-05
-1.60161e-06
1.90093e-05
-1.85575e-06
1.89399e-05
-2.15475e-06
1.88494e-05
-2.50769e-06
1.87307e-05
-2.92635e-06
1.85746e-05
-3.42872e-06
1.83691e-05
-4.03017e-06
-4.80845e-06
1.8096e-05
1.9248e-05
-1.28295e-08
1.92475e-05
-3.95266e-08
1.92466e-05
-6.81191e-08
1.92453e-05
-9.82315e-08
1.92436e-05
-1.29509e-07
1.92413e-05
-1.61651e-07
1.92384e-05
-1.94482e-07
1.92349e-05
-2.28017e-07
1.92306e-05
-2.62495e-07
1.92256e-05
-2.98416e-07
1.92196e-05
-3.36549e-07
1.92126e-05
-3.77924e-07
1.92043e-05
-4.23797e-07
1.91945e-05
-4.75615e-07
1.91828e-05
-5.34972e-07
1.91688e-05
-6.03607e-07
1.91518e-05
-6.83437e-07
1.91312e-05
-7.76621e-07
1.9106e-05
-8.85617e-07
1.9075e-05
-1.01321e-06
1.90364e-05
-1.16253e-06
1.89882e-05
-1.3371e-06
1.89276e-05
-1.54096e-06
1.88507e-05
-1.77883e-06
1.87524e-05
-2.05646e-06
1.86258e-05
-2.38106e-06
1.84612e-05
-2.76184e-06
1.82453e-05
-3.21277e-06
1.79602e-05
-3.74508e-06
-4.42081e-06
1.75726e-05
1.92478e-05
-1.25404e-08
1.92469e-05
-3.86309e-08
1.92454e-05
-6.65475e-08
1.92431e-05
-9.59127e-08
1.92399e-05
-1.26375e-07
1.92359e-05
-1.57638e-07
1.9231e-05
-1.89531e-07
1.9225e-05
-2.22062e-07
1.9218e-05
-2.55459e-07
1.92097e-05
-2.90197e-07
1.92002e-05
-3.2701e-07
1.91892e-05
-3.6688e-07
1.91764e-05
-4.11001e-07
1.91615e-05
-4.60737e-07
1.91441e-05
-5.17584e-07
1.91237e-05
-5.83159e-07
1.90994e-05
-6.59229e-07
1.90706e-05
-7.4776e-07
1.90359e-05
-8.50956e-07
1.8994e-05
-9.7126e-07
1.89428e-05
-1.11136e-06
1.88799e-05
-1.27417e-06
1.88018e-05
-1.46292e-06
1.87042e-05
-1.68121e-06
1.8581e-05
-1.9332e-06
1.84238e-05
-2.22388e-06
1.82211e-05
-2.5592e-06
1.79563e-05
-2.94795e-06
1.76075e-05
-3.39625e-06
-3.94283e-06
1.71295e-05
1.92477e-05
-1.21252e-08
1.92464e-05
-3.73457e-08
1.92442e-05
-6.42994e-08
1.92409e-05
-9.26087e-08
1.92364e-05
-1.21929e-07
1.92308e-05
-1.51978e-07
1.92238e-05
-1.8259e-07
1.92155e-05
-2.13771e-07
1.92058e-05
-2.45732e-07
1.91945e-05
-2.78921e-07
1.91816e-05
-3.14033e-07
1.91667e-05
-3.51991e-07
1.91496e-05
-3.93913e-07
1.91299e-05
-4.41068e-07
1.91072e-05
-4.94839e-07
1.90807e-05
-5.56707e-07
1.90498e-05
-6.28271e-07
1.90133e-05
-7.11283e-07
1.897e-05
-8.07665e-07
1.89182e-05
-9.19494e-07
1.88558e-05
-1.04896e-06
1.878e-05
-1.19835e-06
1.86871e-05
-1.37e-06
1.85722e-05
-1.56631e-06
1.84287e-05
-1.78971e-06
1.82476e-05
-2.04276e-06
1.80163e-05
-2.3279e-06
1.77165e-05
-2.6481e-06
1.73242e-05
-3.004e-06
-3.40699e-06
1.67884e-05
1.92476e-05
-1.15926e-08
1.9246e-05
-3.56979e-08
1.92431e-05
-6.14182e-08
1.92388e-05
-8.83768e-08
1.92332e-05
-1.16243e-07
1.92259e-05
-1.44755e-07
1.92171e-05
-1.7376e-07
1.92066e-05
-2.03261e-07
1.91943e-05
-2.33451e-07
1.91801e-05
-2.6475e-07
1.91639e-05
-2.97805e-07
1.91454e-05
-3.33475e-07
1.91243e-05
-3.72792e-07
1.91001e-05
-4.16921e-07
1.90724e-05
-4.67117e-07
1.90404e-05
-5.24715e-07
1.90033e-05
-5.91137e-07
1.89599e-05
-6.67909e-07
1.89089e-05
-7.56661e-07
1.88485e-05
-8.59088e-07
1.87764e-05
-9.76888e-07
1.86898e-05
-1.11168e-06
1.85847e-05
-1.26494e-06
1.84562e-05
-1.43784e-06
1.82976e-05
-1.63113e-06
1.80998e-05
-1.84495e-06
1.78502e-05
-2.07828e-06
1.75305e-05
-2.32838e-06
1.71172e-05
-2.59073e-06
-2.84959e-06
1.65598e-05
1.92475e-05
-1.09538e-08
1.92455e-05
-3.3722e-08
1.92421e-05
-5.79588e-08
1.9237e-05
-8.32875e-08
1.92301e-05
-1.09401e-07
1.92214e-05
-1.3607e-07
1.92108e-05
-1.63161e-07
1.91983e-05
-1.90672e-07
1.91836e-05
-2.1878e-07
1.91667e-05
-2.47871e-07
1.91474e-05
-2.78544e-07
1.91256e-05
-3.11584e-07
1.91007e-05
-3.47933e-07
1.90724e-05
-3.88641e-07
1.90401e-05
-4.34833e-07
1.90031e-05
-4.87688e-07
1.89604e-05
-5.48448e-07
1.89109e-05
-6.18409e-07
1.88532e-05
-6.98909e-07
1.87853e-05
-7.91272e-07
1.87052e-05
-8.96716e-07
1.86097e-05
-1.01625e-06
1.84953e-05
-1.1505e-06
1.8357e-05
-1.29955e-06
1.81885e-05
-1.46262e-06
1.79812e-05
-1.63763e-06
1.77235e-05
-1.82056e-06
1.73987e-05
-2.00365e-06
1.69862e-05
-2.17818e-06
-2.30534e-06
1.64419e-05
1.92474e-05
-1.02229e-08
1.92451e-05
-3.14627e-08
1.92412e-05
-5.3989e-08
1.92353e-05
-7.74238e-08
1.92274e-05
-1.015e-07
1.92174e-05
-1.2604e-07
1.92051e-05
-1.5093e-07
1.91906e-05
-1.76164e-07
1.91738e-05
-2.01901e-07
1.91544e-05
-2.28495e-07
1.91323e-05
-2.5649e-07
1.91073e-05
-2.86597e-07
1.90791e-05
-3.19658e-07
1.9047e-05
-3.56605e-07
1.90106e-05
-3.9843e-07
1.89691e-05
-4.46158e-07
1.89215e-05
-5.00846e-07
1.88667e-05
-5.63568e-07
1.88031e-05
-6.35385e-07
1.87291e-05
-7.17271e-07
1.86424e-05
-8.10013e-07
1.85402e-05
-9.14066e-07
1.84191e-05
-1.02935e-06
1.82746e-05
-1.15501e-06
1.81009e-05
-1.28897e-06
1.78907e-05
-1.42741e-06
1.76341e-05
-1.56395e-06
1.73175e-05
-1.68704e-06
1.69243e-05
-1.78506e-06
-1.80262e-06
1.64216e-05
1.92473e-05
-9.4185e-09
1.92448e-05
-2.89788e-08
1.92404e-05
-4.95927e-08
1.92339e-05
-7.08809e-08
1.92251e-05
-9.26497e-08
1.92138e-05
-1.14792e-07
1.92001e-05
-1.37219e-07
1.91838e-05
-1.59914e-07
1.9165e-05
-1.83019e-07
1.91433e-05
-2.06855e-07
1.91187e-05
-2.3191e-07
1.9091e-05
-2.58816e-07
1.90596e-05
-2.88312e-07
1.90242e-05
-3.21213e-07
1.89842e-05
-3.58375e-07
1.89387e-05
-4.00671e-07
1.88868e-05
-4.4898e-07
1.88274e-05
-5.04166e-07
1.87591e-05
-5.67036e-07
1.86801e-05
-6.38259e-07
1.85883e-05
-7.1825e-07
1.84812e-05
-8.07008e-07
1.83558e-05
-9.03895e-07
1.82081e-05
-1.00733e-06
1.80335e-05
-1.11433e-06
1.78259e-05
-1.21984e-06
1.75779e-05
-1.31595e-06
1.72797e-05
-1.38883e-06
1.692e-05
-1.42538e-06
-1.36145e-06
1.64788e-05
1.92473e-05
-8.56667e-09
1.92447e-05
-2.63508e-08
1.92399e-05
-4.48706e-08
1.92328e-05
-6.37641e-08
1.92231e-05
-8.29704e-08
1.92108e-05
-1.02473e-07
1.91958e-05
-1.22194e-07
1.9178e-05
-1.42109e-07
1.91573e-05
-1.62346e-07
1.91337e-05
-1.83194e-07
1.91068e-05
-2.05081e-07
1.90766e-05
-2.28555e-07
1.90425e-05
-2.54253e-07
1.90042e-05
-2.82872e-07
1.89609e-05
-3.15135e-07
1.8912e-05
-3.51768e-07
1.88565e-05
-3.93484e-07
1.87933e-05
-4.40954e-07
1.8721e-05
-4.94763e-07
1.86381e-05
-5.55321e-07
1.85426e-05
-6.22748e-07
1.84323e-05
-6.96704e-07
1.83046e-05
-7.76161e-07
1.81563e-05
-8.5908e-07
1.79839e-05
-9.41945e-07
1.77832e-05
-1.01908e-06
1.75491e-05
-1.08191e-06
1.72762e-05
-1.11585e-06
1.69585e-05
-1.10769e-06
-9.92174e-07
1.65892e-05
1.92473e-05
-7.71158e-09
1.92446e-05
-2.36978e-08
1.92397e-05
-3.99386e-08
1.92321e-05
-5.61771e-08
1.92217e-05
-7.25868e-08
1.92085e-05
-8.92385e-08
1.91923e-05
-1.06043e-07
1.91732e-05
-1.22965e-07
1.9151e-05
-1.40126e-07
1.91256e-05
-1.57784e-07
1.90968e-05
-1.76303e-07
1.90644e-05
-1.96147e-07
1.9028e-05
-2.17852e-07
1.89871e-05
-2.41998e-07
1.89411e-05
-2.6918e-07
1.88894e-05
-2.99984e-07
1.88308e-05
-3.34969e-07
1.87645e-05
-3.74638e-07
1.86892e-05
-4.19385e-07
1.86032e-05
-4.69416e-07
1.85051e-05
-5.24636e-07
1.83929e-05
-5.84491e-07
1.82645e-05
-6.4774e-07
1.81176e-05
-7.12155e-07
1.79497e-05
-7.74075e-07
1.77584e-05
-8.27784e-07
1.75414e-05
-8.64862e-07
1.72969e-05
-8.71389e-07
1.70244e-05
-8.3515e-07
-6.96298e-07
1.67285e-05
1.92474e-05
-6.93429e-09
1.92449e-05
-2.12134e-08
1.92399e-05
-3.49316e-08
1.92319e-05
-4.82245e-08
1.92209e-05
-6.16187e-08
1.92069e-05
-7.52243e-08
1.91898e-05
-8.89184e-08
1.91695e-05
-1.02667e-07
1.9146e-05
-1.16586e-07
1.91191e-05
-1.3089e-07
1.90887e-05
-1.45881e-07
1.90544e-05
-1.61936e-07
1.90161e-05
-1.79492e-07
1.89731e-05
-1.99016e-07
1.89249e-05
-2.2098e-07
1.88708e-05
-2.45839e-07
1.88098e-05
-2.74016e-07
1.8741e-05
-3.0587e-07
1.86633e-05
-3.41639e-07
1.85752e-05
-3.81372e-07
1.84754e-05
-4.2484e-07
1.83624e-05
-4.71394e-07
1.82344e-05
-5.19758e-07
1.809e-05
-5.67761e-07
1.79279e-05
-6.11956e-07
1.77472e-05
-6.47079e-07
1.75479e-05
-6.65574e-07
1.73318e-05
-6.55287e-07
1.71026e-05
-6.05995e-07
-4.67972e-07
1.68743e-05
1.92476e-05
-6.39625e-09
1.92455e-05
-1.91581e-08
1.92406e-05
-2.99967e-08
1.92324e-05
-4.00694e-08
1.92211e-05
-5.02717e-08
1.92065e-05
-6.06431e-08
1.91886e-05
-7.10365e-08
1.91674e-05
-8.14451e-08
1.91428e-05
-9.19727e-08
1.91147e-05
-1.02785e-07
1.90829e-05
-1.14113e-07
1.90472e-05
-1.26249e-07
1.90073e-05
-1.39533e-07
1.89626e-05
-1.54325e-07
1.89126e-05
-1.70979e-07
1.88566e-05
-1.89829e-07
1.87937e-05
-2.11178e-07
1.87231e-05
-2.3527e-07
1.86437e-05
-2.62208e-07
1.85543e-05
-2.91923e-07
1.84536e-05
-3.24136e-07
1.83404e-05
-3.58205e-07
1.82136e-05
-3.92974e-07
1.80724e-05
-4.26539e-07
1.79164e-05
-4.55971e-07
1.77462e-05
-4.76852e-07
1.75636e-05
-4.8303e-07
1.73731e-05
-4.64749e-07
1.71819e-05
-4.14808e-07
-2.95393e-07
1.70093e-05
1.92484e-05
-6.63063e-09
1.92469e-05
-1.76683e-08
1.9242e-05
-2.51012e-08
1.92337e-05
-3.17594e-08
1.9222e-05
-3.86424e-08
1.9207e-05
-4.56382e-08
1.91886e-05
-5.26182e-08
1.91668e-05
-5.95923e-08
1.91414e-05
-6.66304e-08
1.91125e-05
-7.38444e-08
1.90798e-05
-8.14022e-08
1.9043e-05
-8.95256e-08
1.9002e-05
-9.84657e-08
1.89561e-05
-1.08473e-07
1.89049e-05
-1.19782e-07
1.88477e-05
-1.32605e-07
1.87837e-05
-1.47146e-07
1.8712e-05
-1.63575e-07
1.86316e-05
-1.8185e-07
1.85415e-05
-2.01809e-07
1.84406e-05
-2.23216e-07
1.83279e-05
-2.45541e-07
1.82028e-05
-2.67863e-07
1.8065e-05
-2.88698e-07
1.79148e-05
-3.05835e-07
1.77539e-05
-3.15955e-07
1.75856e-05
-3.14663e-07
1.74153e-05
-2.94478e-07
1.72537e-05
-2.53178e-07
-1.62207e-07
1.71205e-05
1.92511e-05
-9.58812e-09
1.92495e-05
-1.60772e-08
1.92441e-05
-1.96713e-08
1.92355e-05
-2.32077e-08
1.92235e-05
-2.66497e-08
1.92079e-05
-3.00111e-08
1.91886e-05
-3.33658e-08
1.91658e-05
-3.67514e-08
1.91394e-05
-4.02146e-08
1.91094e-05
-4.38388e-08
1.90757e-05
-4.77233e-08
1.90381e-05
-5.19649e-08
1.89963e-05
-5.66601e-08
1.89498e-05
-6.19114e-08
1.88978e-05
-6.78242e-08
1.88397e-05
-7.44949e-08
1.87745e-05
-8.1978e-08
1.87012e-05
-9.02695e-08
1.86188e-05
-9.94328e-08
1.85265e-05
-1.09448e-07
1.84233e-05
-1.20086e-07
1.83088e-05
-1.30997e-07
1.81825e-05
-1.41617e-07
1.80449e-05
-1.5108e-07
1.78972e-05
-1.58107e-07
1.77421e-05
-1.60827e-07
1.75842e-05
-1.56762e-07
1.74314e-05
-1.41684e-07
1.72924e-05
-1.14238e-07
-4.07351e-08
1.7171e-05
1.92385e-05
1.92225e-05
1.92028e-05
1.91796e-05
1.91529e-05
1.91229e-05
1.90896e-05
1.90528e-05
1.90126e-05
1.89688e-05
1.8921e-05
1.88691e-05
1.88124e-05
1.87505e-05
1.86827e-05
1.86082e-05
1.85262e-05
1.84359e-05
1.83365e-05
1.82271e-05
1.8107e-05
1.7976e-05
1.78344e-05
1.76833e-05
1.75252e-05
1.73643e-05
1.72076e-05
1.70659e-05
1.69517e-05
1.69109e-05
2.23861e-05
-1.0606e-05
1.10494e-05
2.19383e-05
-1.07412e-05
1.1189e-05
2.14623e-05
-1.08698e-05
1.13458e-05
2.09549e-05
-1.09874e-05
1.14948e-05
2.04225e-05
-1.11029e-05
1.16353e-05
1.98712e-05
-1.12202e-05
1.17715e-05
1.93052e-05
-1.13404e-05
1.19064e-05
1.87274e-05
-1.14645e-05
1.20422e-05
1.81399e-05
-1.15938e-05
1.21813e-05
1.75435e-05
-1.17292e-05
1.23257e-05
1.69381e-05
-1.18714e-05
1.24768e-05
1.63233e-05
-1.20209e-05
1.26357e-05
1.56984e-05
-1.21784e-05
1.28033e-05
1.50625e-05
-1.23452e-05
1.29811e-05
1.44146e-05
-1.25227e-05
1.31705e-05
1.37537e-05
-1.27126e-05
1.33735e-05
1.30783e-05
-1.29171e-05
1.35926e-05
1.23864e-05
-1.31387e-05
1.38306e-05
1.16755e-05
-1.33802e-05
1.40911e-05
1.09423e-05
-1.36452e-05
1.43784e-05
1.01823e-05
-1.39378e-05
1.46977e-05
9.39e-06
-1.42633e-05
1.50556e-05
8.55762e-06
-1.46277e-05
1.54601e-05
7.67487e-06
-1.50395e-05
1.59223e-05
6.72741e-06
-1.55061e-05
1.64536e-05
5.69487e-06
-1.60429e-05
1.70754e-05
4.55803e-06
-1.66528e-05
1.77897e-05
3.234e-06
-1.73784e-05
1.87024e-05
1.81356e-06
-1.81168e-05
1.95373e-05
-1.9325e-05
2.11386e-05
2.25296e-05
-1.01361e-05
2.20241e-05
-1.02357e-05
2.14924e-05
-1.03381e-05
2.0945e-05
-1.04401e-05
2.03869e-05
-1.05447e-05
1.98205e-05
-1.06538e-05
1.92472e-05
-1.07671e-05
1.86674e-05
-1.08847e-05
1.80805e-05
-1.10069e-05
1.74857e-05
-1.11344e-05
1.68819e-05
-1.12676e-05
1.62682e-05
-1.14072e-05
1.56438e-05
-1.1554e-05
1.5008e-05
-1.17094e-05
1.43599e-05
-1.18745e-05
1.36983e-05
-1.2051e-05
1.30216e-05
-1.22404e-05
1.23277e-05
-1.24448e-05
1.16139e-05
-1.26665e-05
1.08768e-05
-1.29081e-05
1.01121e-05
-1.3173e-05
9.31396e-06
-1.34652e-05
8.47502e-06
-1.37888e-05
7.58526e-06
-1.41497e-05
6.63139e-06
-1.45523e-05
5.59587e-06
-1.50073e-05
4.45389e-06
-1.55109e-05
3.16774e-06
-1.60923e-05
1.74054e-06
-1.66896e-05
-1.75845e-05
2.24371e-05
-9.62419e-06
2.19106e-05
-9.70925e-06
2.13718e-05
-9.79929e-06
2.08258e-05
-9.89409e-06
2.02739e-05
-9.99292e-06
1.97154e-05
-1.00952e-05
1.91491e-05
-1.02008e-05
1.85745e-05
-1.031e-05
1.79908e-05
-1.04233e-05
1.73976e-05
-1.05412e-05
1.67945e-05
-1.06645e-05
1.61811e-05
-1.07938e-05
1.55571e-05
-1.093e-05
1.49216e-05
-1.10739e-05
1.42737e-05
-1.12266e-05
1.3612e-05
-1.13892e-05
1.29346e-05
-1.15631e-05
1.22395e-05
-1.17497e-05
1.15239e-05
-1.19509e-05
1.07844e-05
-1.21686e-05
1.00166e-05
-1.24053e-05
9.21494e-06
-1.26635e-05
8.37218e-06
-1.2946e-05
7.47886e-06
-1.32564e-05
6.52273e-06
-1.35961e-05
5.4876e-06
-1.39722e-05
4.35111e-06
-1.43744e-05
3.08826e-06
-1.48294e-05
1.66892e-06
-1.52703e-05
-1.59155e-05
2.23384e-05
-9.10372e-06
2.18092e-05
-9.18003e-06
2.12709e-05
-9.26101e-06
2.07252e-05
-9.34839e-06
2.01723e-05
-9.44002e-06
1.96114e-05
-9.53432e-06
1.90421e-05
-9.63145e-06
1.84641e-05
-9.73207e-06
1.78776e-05
-9.83672e-06
1.72822e-05
-9.94585e-06
1.66776e-05
-1.00599e-05
1.60632e-05
-1.01795e-05
1.54383e-05
-1.03051e-05
1.48018e-05
-1.04374e-05
1.41526e-05
-1.05774e-05
1.3489e-05
-1.07257e-05
1.28094e-05
-1.08835e-05
1.21116e-05
-1.10519e-05
1.13929e-05
-1.12321e-05
1.06498e-05
-1.14255e-05
9.87813e-06
-1.16336e-05
9.07253e-06
-1.18579e-05
8.22619e-06
-1.20997e-05
7.33033e-06
-1.23606e-05
6.37395e-06
-1.26398e-05
5.34254e-06
-1.29408e-05
4.21763e-06
-1.32495e-05
2.97867e-06
-1.35905e-05
1.5889e-06
-1.38805e-05
-1.43266e-05
2.22018e-05
-8.57715e-06
2.16679e-05
-8.64605e-06
2.11259e-05
-8.71905e-06
2.05767e-05
-8.79922e-06
2.00205e-05
-8.88382e-06
1.94569e-05
-8.97073e-06
1.88856e-05
-9.06014e-06
1.83064e-05
-9.15285e-06
1.7719e-05
-9.24931e-06
1.71229e-05
-9.34975e-06
1.65175e-05
-9.4545e-06
1.5902e-05
-9.56399e-06
1.52757e-05
-9.6787e-06
1.46374e-05
-9.79917e-06
1.3986e-05
-9.92599e-06
1.33201e-05
-1.00598e-05
1.26379e-05
-1.02013e-05
1.19372e-05
-1.03512e-05
1.12154e-05
-1.05103e-05
1.04692e-05
-1.06793e-05
9.69458e-06
-1.0859e-05
8.88645e-06
-1.10498e-05
8.03857e-06
-1.12518e-05
7.14306e-06
-1.14651e-05
6.19025e-06
-1.16869e-05
5.16754e-06
-1.19181e-05
4.06001e-06
-1.21419e-05
2.84924e-06
-1.23797e-05
1.50324e-06
-1.25345e-05
-1.28234e-05
2.20257e-05
-8.04565e-06
2.14876e-05
-8.10797e-06
2.09424e-05
-8.17378e-06
2.03903e-05
-8.24717e-06
1.98315e-05
-8.32503e-06
1.92656e-05
-8.40482e-06
1.86922e-05
-8.48669e-06
1.81108e-05
-8.57151e-06
1.75212e-05
-8.65967e-06
1.69228e-05
-8.7513e-06
1.63149e-05
-8.84664e-06
1.56969e-05
-8.946e-06
1.5068e-05
-9.04976e-06
1.44271e-05
-9.15827e-06
1.3773e-05
-9.27193e-06
1.31043e-05
-9.39112e-06
1.24193e-05
-9.51625e-06
1.17158e-05
-9.64769e-06
1.09912e-05
-9.78576e-06
1.02426e-05
-9.93067e-06
9.46605e-06
-1.00824e-05
8.65707e-06
-1.02408e-05
7.81004e-06
-1.04048e-05
6.91804e-06
-1.05731e-05
5.97285e-06
-1.07417e-05
4.96385e-06
-1.09091e-05
3.87931e-06
-1.10574e-05
2.70334e-06
-1.12037e-05
1.41248e-06
-1.12437e-05
-1.14109e-05
2.18039e-05
-7.50938e-06
2.12616e-05
-7.56567e-06
2.07126e-05
-7.62481e-06
2.01571e-05
-7.69169e-06
1.95951e-05
-7.76295e-06
1.9026e-05
-7.83576e-06
1.84495e-05
-7.91023e-06
1.78653e-05
-7.98725e-06
1.72728e-05
-8.0672e-06
1.66716e-05
-8.15011e-06
1.60611e-05
-8.2361e-06
1.54405e-05
-8.32538e-06
1.48089e-05
-8.41819e-06
1.41654e-05
-8.51475e-06
1.35087e-05
-8.61526e-06
1.28375e-05
-8.7199e-06
1.215e-05
-8.8288e-06
1.14443e-05
-8.94202e-06
1.07181e-05
-9.05952e-06
9.96847e-06
-9.18103e-06
9.19205e-06
-9.30602e-06
8.38477e-06
-9.43351e-06
7.54181e-06
-9.56181e-06
6.6573e-06
-9.68856e-06
5.72447e-06
-9.80892e-06
4.73474e-06
-9.91938e-06
3.67935e-06
-1.0002e-05
2.54535e-06
-1.00697e-05
1.31851e-06
-1.00168e-05
-1.00924e-05
2.15305e-05
-6.96834e-06
2.09839e-05
-7.01905e-06
2.04311e-05
-7.07194e-06
1.98719e-05
-7.13254e-06
1.93063e-05
-7.19734e-06
1.87339e-05
-7.26333e-06
1.81542e-05
-7.33056e-06
1.75669e-05
-7.39993e-06
1.69715e-05
-7.47177e-06
1.63674e-05
-7.54605e-06
1.57541e-05
-7.62276e-06
1.51307e-05
-7.70205e-06
1.44966e-05
-7.78404e-06
1.38506e-05
-7.86881e-06
1.31918e-05
-7.9564e-06
1.25187e-05
-8.04679e-06
1.18298e-05
-8.1399e-06
1.11233e-05
-8.23552e-06
1.0397e-05
-8.33327e-06
9.64852e-06
-8.43253e-06
8.87481e-06
-8.53231e-06
8.07243e-06
-8.63113e-06
7.23733e-06
-8.72672e-06
6.36477e-06
-8.81599e-06
5.44944e-06
-8.89359e-06
4.48473e-06
-8.95467e-06
3.46472e-06
-8.98199e-06
2.37951e-06
-8.9845e-06
1.22343e-06
-8.86073e-06
-8.86898e-06
2.12004e-05
-6.42253e-06
2.06495e-05
-6.46808e-06
2.00927e-05
-6.51517e-06
1.95298e-05
-6.56969e-06
1.89607e-05
-6.62818e-06
1.83849e-05
-6.68751e-06
1.7802e-05
-6.74768e-06
1.72116e-05
-6.80958e-06
1.66133e-05
-6.8735e-06
1.60066e-05
-6.93932e-06
1.53908e-05
-7.00699e-06
1.47653e-05
-7.07654e-06
1.41293e-05
-7.14801e-06
1.34818e-05
-7.22135e-06
1.28219e-05
-7.29647e-06
1.21483e-05
-7.37319e-06
1.14597e-05
-7.45124e-06
1.07543e-05
-7.53018e-06
1.00304e-05
-7.60939e-06
9.28588e-06
-7.68796e-06
8.51816e-06
-7.76459e-06
7.72445e-06
-7.83741e-06
6.90154e-06
-7.90381e-06
6.04579e-06
-7.96024e-06
5.1533e-06
-8.0011e-06
4.21938e-06
-8.02075e-06
3.24063e-06
-8.00323e-06
2.21007e-06
-7.95393e-06
1.1292e-06
-7.77986e-06
-7.73979e-06
2.081e-05
-5.87217e-06
2.02549e-05
-5.91298e-06
1.96945e-05
-5.95473e-06
1.91282e-05
-6.00344e-06
1.85558e-05
-6.05579e-06
1.7977e-05
-6.10868e-06
1.73913e-05
-6.16205e-06
1.67985e-05
-6.21675e-06
1.6198e-05
-6.27303e-06
1.55895e-05
-6.33073e-06
1.49722e-05
-6.38971e-06
1.43456e-05
-6.44995e-06
1.3709e-05
-6.51138e-06
1.30615e-05
-6.57387e-06
1.24022e-05
-6.6372e-06
1.17301e-05
-6.70108e-06
1.10439e-05
-6.76507e-06
1.03423e-05
-6.82859e-06