/*--------------------------------*- C++ -*----------------------------------*\
  =========                 |
  \\      /  F ield         | OpenFOAM: The Open Source CFD Toolbox
   \\    /   O peration     | Website:  https://openfoam.org
    \\  /    A nd           | Version:  11
     \\/     M anipulation  |
\*---------------------------------------------------------------------------*/
FoamFile
{
    format      ascii;
    class       surfaceScalarField;
    location    "5";
    object      phi;
}
// * * * * * * * * * * * * * * * * * * * * * * * * * * * * * * * * * * * * * //

dimensions      [0 3 -1 0 0 0 0];

internalField   nonuniform List<scalar> 
24840
(
1.53203e-05
1.30802e-08
1.53033e-05
1.69824e-08
1.52881e-05
1.51596e-08
1.52741e-05
1.39777e-08
1.5261e-05
1.31509e-08
1.52489e-05
1.21262e-08
1.52381e-05
1.08038e-08
1.52288e-05
9.20957e-09
1.52217e-05
7.19152e-09
1.52169e-05
4.79423e-09
1.5215e-05
1.89076e-09
1.52167e-05
-1.73256e-09
1.52229e-05
-6.20853e-09
1.52347e-05
-1.17752e-08
1.52534e-05
-1.86808e-08
1.52806e-05
-2.72092e-08
1.53183e-05
-3.76859e-08
1.53691e-05
-5.08008e-08
1.54354e-05
-6.63455e-08
1.55205e-05
-8.51014e-08
1.56293e-05
-1.08808e-07
1.57672e-05
-1.37909e-07
1.59406e-05
-1.73416e-07
1.61574e-05
-2.16759e-07
1.64268e-05
-2.69389e-07
1.67597e-05
-3.32908e-07
1.717e-05
-4.10356e-07
1.76679e-05
-4.97806e-07
1.82954e-05
-6.2756e-07
-6.36024e-07
1.89314e-05
1.53395e-05
6.89889e-09
1.53443e-05
1.21743e-08
1.53494e-05
1.01259e-08
1.53549e-05
8.38881e-09
1.53612e-05
6.85514e-09
1.53685e-05
4.83885e-09
1.53771e-05
2.25903e-09
1.53871e-05
-7.72585e-10
1.53989e-05
-4.62461e-09
1.54128e-05
-9.15226e-09
1.54294e-05
-1.46839e-08
1.54492e-05
-2.14916e-08
1.54728e-05
-2.98694e-08
1.55012e-05
-4.01965e-08
1.55354e-05
-5.2896e-08
1.55767e-05
-6.84416e-08
1.56266e-05
-8.76558e-08
1.56869e-05
-1.11035e-07
1.57612e-05
-1.40623e-07
1.58538e-05
-1.77779e-07
1.59676e-05
-2.22562e-07
1.61067e-05
-2.77004e-07
1.62769e-05
-3.43592e-07
1.64851e-05
-4.2497e-07
1.67398e-05
-5.24138e-07
1.70515e-05
-6.44598e-07
1.74323e-05
-7.91111e-07
1.78969e-05
-9.62486e-07
1.84622e-05
-1.1928e-06
-1.32366e-06
1.91498e-05
1.53364e-05
3.80485e-09
1.53408e-05
7.7919e-09
1.53448e-05
6.16246e-09
1.53497e-05
3.5089e-09
1.53556e-05
9.29509e-10
1.53625e-05
-2.04943e-09
1.53706e-05
-5.84373e-09
1.53802e-05
-1.04191e-08
1.53915e-05
-1.59587e-08
1.5405e-05
-2.25796e-08
1.54209e-05
-3.06282e-08
1.54399e-05
-4.04987e-08
1.54627e-05
-5.26481e-08
1.54901e-05
-6.7639e-08
1.55234e-05
-8.61379e-08
1.55639e-05
-1.08926e-07
1.56133e-05
-1.37067e-07
1.56739e-05
-1.71682e-07
1.5748e-05
-2.14646e-07
1.58381e-05
-2.67912e-07
1.59485e-05
-3.32943e-07
1.60837e-05
-4.12248e-07
1.62494e-05
-5.09248e-07
1.64522e-05
-6.27843e-07
1.67007e-05
-7.72623e-07
1.70049e-05
-9.48809e-07
1.73775e-05
-1.16368e-06
1.78325e-05
-1.41749e-06
1.83889e-05
-1.74918e-06
-2.01005e-06
1.90753e-05
1.53352e-05
1.89261e-09
1.53391e-05
3.93008e-09
1.5343e-05
2.24647e-09
1.53475e-05
-9.65152e-10
1.53531e-05
-4.6387e-09
1.53597e-05
-8.69683e-09
1.53676e-05
-1.36955e-08
1.53769e-05
-1.97207e-08
1.53878e-05
-2.69269e-08
1.54008e-05
-3.55701e-08
1.54162e-05
-4.60504e-08
1.54346e-05
-5.88833e-08
1.54567e-05
-7.4683e-08
1.54832e-05
-9.41935e-08
1.55154e-05
-1.18304e-07
1.55545e-05
-1.48072e-07
1.56023e-05
-1.84827e-07
1.56607e-05
-2.30123e-07
1.57321e-05
-2.86047e-07
1.58193e-05
-3.55035e-07
1.59259e-05
-4.39547e-07
1.60565e-05
-5.42843e-07
1.62164e-05
-6.69238e-07
1.64125e-05
-8.23856e-07
1.66527e-05
-1.01282e-06
1.6947e-05
-1.24316e-06
1.73078e-05
-1.52447e-06
1.77502e-05
-1.85988e-06
1.82905e-05
-2.28953e-06
-2.68397e-06
1.89644e-05
1.53346e-05
5.93173e-10
1.53377e-05
8.38562e-10
1.53413e-05
-1.3532e-09
1.53456e-05
-5.25805e-09
1.53509e-05
-9.88493e-09
1.53572e-05
-1.50666e-08
1.53648e-05
-2.12369e-08
1.53737e-05
-2.86264e-08
1.53842e-05
-3.74409e-08
1.53966e-05
-4.80103e-08
1.54114e-05
-6.08123e-08
1.5429e-05
-7.64743e-08
1.54501e-05
-9.57582e-08
1.54755e-05
-1.19583e-07
1.55062e-05
-1.49046e-07
1.55436e-05
-1.85456e-07
1.55892e-05
-2.3041e-07
1.56449e-05
-2.85828e-07
1.57129e-05
-3.54115e-07
1.57961e-05
-4.38165e-07
1.58977e-05
-5.41232e-07
1.60223e-05
-6.67382e-07
1.61749e-05
-8.21813e-07
1.63618e-05
-1.01083e-06
1.65911e-05
-1.24207e-06
1.68723e-05
-1.5244e-06
1.72175e-05
-1.86964e-06
1.76421e-05
-2.28451e-06
1.81613e-05
-2.8087e-06
-3.33547e-06
1.88128e-05
1.53343e-05
-3.75283e-10
1.53368e-05
-1.68804e-09
1.53402e-05
-4.70073e-09
1.53442e-05
-9.31028e-09
1.53492e-05
-1.48259e-08
1.53552e-05
-2.10733e-08
1.53623e-05
-2.83785e-08
1.53707e-05
-3.70577e-08
1.53807e-05
-4.73933e-08
1.53925e-05
-5.9778e-08
1.54064e-05
-7.47677e-08
1.5423e-05
-9.30946e-08
1.54429e-05
-1.15658e-07
1.54669e-05
-1.43542e-07
1.54959e-05
-1.78036e-07
1.55311e-05
-2.2068e-07
1.5574e-05
-2.7333e-07
1.56264e-05
-3.38228e-07
1.56904e-05
-4.18126e-07
1.57686e-05
-5.16359e-07
1.58643e-05
-6.3686e-07
1.59814e-05
-7.84469e-07
1.61248e-05
-9.65258e-07
1.63006e-05
-1.18667e-06
1.65163e-05
-1.45777e-06
1.67813e-05
-1.78931e-06
1.71069e-05
-2.19526e-06
1.75086e-05
-2.68623e-06
1.8001e-05
-3.30112e-06
-3.95809e-06
1.86236e-05
1.53341e-05
-1.1454e-09
1.53362e-05
-3.79806e-09
1.53392e-05
-7.73558e-09
1.5343e-05
-1.30721e-08
1.53476e-05
-1.94267e-08
1.53532e-05
-2.66651e-08
1.53599e-05
-3.5048e-08
1.53678e-05
-4.49363e-08
1.5377e-05
-5.66878e-08
1.5388e-05
-7.07583e-08
1.5401e-05
-8.77781e-08
1.54165e-05
-1.08576e-07
1.5435e-05
-1.34179e-07
1.54573e-05
-1.65821e-07
1.54843e-05
-2.04971e-07
1.55169e-05
-2.53377e-07
1.55568e-05
-3.13136e-07
1.56053e-05
-3.86782e-07
1.56646e-05
-4.77407e-07
1.5737e-05
-5.88767e-07
1.58255e-05
-7.2539e-07
1.59339e-05
-8.92828e-07
1.60666e-05
-1.09799e-06
1.62293e-05
-1.34938e-06
1.6429e-05
-1.65746e-06
1.66745e-05
-2.03478e-06
1.69767e-05
-2.49745e-06
1.73506e-05
-3.06012e-06
1.78104e-05
-3.76092e-06
-4.5446e-06
1.83969e-05
1.5334e-05
-1.77269e-09
1.53358e-05
-5.5902e-09
1.53385e-05
-1.04476e-08
1.53419e-05
-1.65264e-08
1.53462e-05
-2.36707e-08
1.53513e-05
-3.18166e-08
1.53575e-05
-4.1199e-08
1.53647e-05
-5.22014e-08
1.53733e-05
-6.52459e-08
1.53834e-05
-8.08525e-08
1.53953e-05
-9.97214e-08
1.54095e-05
-1.2277e-07
1.54265e-05
-1.51137e-07
1.54468e-05
-1.86193e-07
1.54714e-05
-2.2957e-07
1.55013e-05
-2.83201e-07
1.55375e-05
-3.49405e-07
1.55817e-05
-4.3098e-07
1.56357e-05
-5.3133e-07
1.57015e-05
-6.54603e-07
1.5782e-05
-8.05845e-07
1.58804e-05
-9.91252e-07
1.60009e-05
-1.21851e-06
1.61486e-05
-1.49711e-06
1.633e-05
-1.8388e-06
1.6553e-05
-2.25784e-06
1.6828e-05
-2.77245e-06
1.71692e-05
-3.40129e-06
1.75902e-05
-4.18198e-06
-5.08694e-06
1.81326e-05
1.53339e-05
-2.2945e-09
1.53354e-05
-7.12861e-09
1.53378e-05
-1.28481e-08
1.53409e-05
-1.9653e-08
1.53448e-05
-2.75297e-08
1.53495e-05
-3.64927e-08
1.5355e-05
-4.67781e-08
1.53616e-05
-5.8785e-08
1.53694e-05
-7.29873e-08
1.53785e-05
-8.99648e-08
1.53892e-05
-1.10481e-07
1.5402e-05
-1.35532e-07
1.54172e-05
-1.66357e-07
1.54355e-05
-2.04447e-07
1.54575e-05
-2.51574e-07
1.54841e-05
-3.09841e-07
1.55165e-05
-3.81759e-07
1.55558e-05
-4.7036e-07
1.56038e-05
-5.79328e-07
1.56624e-05
-7.13159e-07
1.57339e-05
-8.77349e-07
1.58213e-05
-1.07866e-06
1.59283e-05
-1.32546e-06
1.60593e-05
-1.62814e-06
1.62201e-05
-1.99961e-06
1.6418e-05
-2.45572e-06
1.66622e-05
-3.01667e-06
1.69659e-05
-3.70499e-06
1.7342e-05
-4.55807e-06
-5.57633e-06
1.78314e-05
1.53338e-05
-2.73624e-09
1.53351e-05
-8.45035e-09
1.53372e-05
-1.4952e-08
1.534e-05
-2.24373e-08
1.53434e-05
-3.09792e-08
1.53476e-05
-4.06632e-08
1.53526e-05
-5.17432e-08
1.53584e-05
-6.4633e-08
1.53653e-05
-7.98459e-08
1.53733e-05
-9.8014e-08
1.53828e-05
-1.19958e-07
1.5394e-05
-1.46742e-07
1.54073e-05
-1.7969e-07
1.54233e-05
-2.20399e-07
1.54425e-05
-2.70763e-07
1.54657e-05
-3.33027e-07
1.54938e-05
-4.09869e-07
1.55279e-05
-5.04519e-07
1.55695e-05
-6.20902e-07
1.56202e-05
-7.63812e-07
1.56819e-05
-9.39125e-07
1.57574e-05
-1.15408e-06
1.58495e-05
-1.41764e-06
1.59624e-05
-1.74096e-06
1.61007e-05
-2.13797e-06
1.62709e-05
-2.6259e-06
1.6481e-05
-3.22678e-06
1.67427e-05
-3.9667e-06
1.70677e-05
-4.88305e-06
-6.00358e-06
1.74949e-05
1.53337e-05
-3.11175e-09
1.53348e-05
-9.58001e-09
1.53367e-05
-1.67724e-08
1.53391e-05
-2.48711e-08
1.53421e-05
-3.40006e-08
1.53458e-05
-4.43042e-08
1.53501e-05
-5.60606e-08
1.53551e-05
-6.96986e-08
1.53611e-05
-8.57624e-08
1.5368e-05
-1.04927e-07
1.53761e-05
-1.28063e-07
1.53856e-05
-1.56291e-07
1.53969e-05
-1.91006e-07
1.54104e-05
-2.33893e-07
1.54266e-05
-2.86945e-07
1.54461e-05
-3.52525e-07
1.54697e-05
-4.33447e-07
1.54983e-05
-5.33104e-07
1.5533e-05
-6.55618e-07
1.55752e-05
-8.06025e-07
1.56266e-05
-9.90507e-07
1.56892e-05
-1.21668e-06
1.57656e-05
-1.49401e-06
1.58589e-05
-1.83425e-06
1.59731e-05
-2.25217e-06
1.61133e-05
-2.76617e-06
1.62864e-05
-3.3998e-06
1.6502e-05
-4.18232e-06
1.677e-05
-5.15112e-06
-6.35954e-06
1.7126e-05
1.53337e-05
-3.42874e-09
1.53346e-05
-1.05349e-08
1.53362e-05
-1.83209e-08
1.53382e-05
-2.69514e-08
1.53408e-05
-3.65806e-08
1.53439e-05
-4.7396e-08
1.53475e-05
-5.97025e-08
1.53518e-05
-7.39443e-08
1.53567e-05
-9.06888e-08
1.53624e-05
-1.10645e-07
1.53691e-05
-1.34724e-07
1.53769e-05
-1.64091e-07
1.53861e-05
-2.002e-07
1.5397e-05
-2.44799e-07
1.541e-05
-2.99964e-07
1.54256e-05
-3.68143e-07
1.54444e-05
-4.52259e-07
1.54672e-05
-5.55828e-07
1.54947e-05
-6.83122e-07
1.5528e-05
-8.39361e-07
1.55685e-05
-1.03096e-06
1.56176e-05
-1.26581e-06
1.56773e-05
-1.55374e-06
1.575e-05
-1.90696e-06
1.58387e-05
-2.34086e-06
1.59472e-05
-2.87471e-06
1.60807e-05
-3.53325e-06
1.62466e-05
-4.34826e-06
1.64526e-05
-5.35708e-06
-6.63561e-06
1.67287e-05
1.53336e-05
-3.69214e-09
1.53344e-05
-1.13278e-08
1.53357e-05
-1.96082e-08
1.53374e-05
-2.86788e-08
1.53395e-05
-3.87107e-08
1.53421e-05
-4.99242e-08
1.5345e-05
-6.26483e-08
1.53484e-05
-7.73416e-08
1.53523e-05
-9.45886e-08
1.53568e-05
-1.15123e-07
1.53619e-05
-1.39885e-07
1.53679e-05
-1.70076e-07
1.53749e-05
-2.07188e-07
1.53831e-05
-2.53018e-07
1.53929e-05
-3.09694e-07
1.54045e-05
-3.79731e-07
1.54183e-05
-4.66122e-07
1.5435e-05
-5.72468e-07
1.5455e-05
-7.03141e-07
1.54791e-05
-8.63484e-07
1.55082e-05
-1.06006e-06
1.55433e-05
-1.30094e-06
1.55858e-05
-1.59618e-06
1.56371e-05
-1.95828e-06
1.56992e-05
-2.40299e-06
1.57746e-05
-2.95013e-06
1.58666e-05
-3.62519e-06
1.59801e-05
-4.46174e-06
1.61197e-05
-5.49669e-06
-6.8244e-06
1.63085e-05
1.53335e-05
-3.90569e-09
1.53342e-05
-1.19693e-08
1.53352e-05
-2.06442e-08
1.53366e-05
-3.00572e-08
1.53383e-05
-4.03876e-08
1.53402e-05
-5.18802e-08
1.53425e-05
-6.48848e-08
1.5345e-05
-7.98717e-08
1.53478e-05
-9.74364e-08
1.53511e-05
-1.18328e-07
1.53547e-05
-1.43507e-07
1.53588e-05
-1.74196e-07
1.53635e-05
-2.11911e-07
1.5369e-05
-2.58476e-07
1.53753e-05
-3.1605e-07
1.53828e-05
-3.87184e-07
1.53916e-05
-4.74908e-07
1.5402e-05
-5.82868e-07
1.54143e-05
-7.15488e-07
1.5429e-05
-8.78168e-07
1.54465e-05
-1.07753e-06
1.54673e-05
-1.32175e-06
1.5492e-05
-1.62093e-06
1.55214e-05
-1.98769e-06
1.55563e-05
-2.4379e-06
1.55978e-05
-2.99156e-06
1.5647e-05
-3.67439e-06
1.57061e-05
-4.52086e-06
1.57764e-05
-5.56697e-06
-6.92035e-06
1.58723e-05
1.53335e-05
-4.07273e-09
1.5334e-05
-1.24689e-08
1.53348e-05
-2.14402e-08
1.53358e-05
-3.10939e-08
1.53371e-05
-4.16131e-08
1.53384e-05
-5.32616e-08
1.534e-05
-6.6406e-08
1.53416e-05
-8.15249e-08
1.53434e-05
-9.92184e-08
1.53453e-05
-1.20243e-07
1.53474e-05
-1.45568e-07
1.53496e-05
-1.76424e-07
1.5352e-05
-2.14335e-07
1.53547e-05
-2.61132e-07
1.53576e-05
-3.18982e-07
1.53609e-05
-3.9044e-07
1.53645e-05
-4.78545e-07
1.53686e-05
-5.86944e-07
1.53732e-05
-7.20061e-07
1.53783e-05
-8.83291e-07
1.5384e-05
-1.08325e-06
1.53903e-05
-1.32806e-06
1.53972e-05
-1.62779e-06
1.54044e-05
-1.99497e-06
1.54119e-05
-2.44531e-06
1.54189e-05
-2.99865e-06
1.54249e-05
-3.68035e-06
1.54289e-05
-4.52483e-06
1.54284e-05
-5.56651e-06
-6.92037e-06
1.54284e-05
1.53335e-05
-4.19672e-09
1.53338e-05
-1.28366e-08
1.53344e-05
-2.20086e-08
1.53351e-05
-3.17994e-08
1.53359e-05
-4.23938e-08
1.53367e-05
-5.40719e-08
1.53375e-05
-6.72137e-08
1.53383e-05
-8.23009e-08
1.5339e-05
-9.99321e-08
1.53396e-05
-1.20863e-07
1.53401e-05
-1.46061e-07
1.53404e-05
-1.76753e-07
1.53405e-05
-2.14451e-07
1.53404e-05
-2.60976e-07
1.53399e-05
-3.18477e-07
1.53389e-05
-3.89489e-07
1.53374e-05
-4.7702e-07
1.53351e-05
-5.84682e-07
1.53319e-05
-7.16848e-07
1.53275e-05
-8.78846e-07
1.53214e-05
-1.07719e-06
1.53133e-05
-1.31989e-06
1.53023e-05
-1.61681e-06
1.52875e-05
-1.98019e-06
1.52676e-05
-2.42537e-06
1.52405e-05
-2.9716e-06
1.52035e-05
-3.64336e-06
1.51527e-05
-4.47403e-06
1.50819e-05
-5.49563e-06
-6.82433e-06
1.49858e-05
1.53334e-05
-4.28161e-09
1.53337e-05
-1.30841e-08
1.5334e-05
-2.23649e-08
1.53344e-05
-3.21882e-08
1.53348e-05
-4.27416e-08
1.5335e-05
-5.43212e-08
1.53351e-05
-6.73173e-08
1.5335e-05
-8.22089e-08
1.53347e-05
-9.95866e-08
1.5334e-05
-1.20198e-07
1.53329e-05
-1.44998e-07
1.53314e-05
-1.75194e-07
1.53292e-05
-2.12276e-07
1.53263e-05
-2.58028e-07
1.53223e-05
-3.14561e-07
1.53172e-05
-3.84361e-07
1.53106e-05
-4.70374e-07
1.5302e-05
-5.76137e-07
1.52911e-05
-7.05922e-07
1.52772e-05
-8.64929e-07
1.52595e-05
-1.05951e-06
1.5237e-05
-1.29742e-06
1.52085e-05
-1.58823e-06
1.5172e-05
-1.94374e-06
1.51252e-05
-2.3786e-06
1.50648e-05
-2.91119e-06
1.4986e-05
-3.56452e-06
1.4882e-05
-4.37004e-06
1.47429e-05
-5.35657e-06
-6.6353e-06
1.45539e-05
1.53334e-05
-4.33221e-09
1.53335e-05
-1.32255e-08
1.53337e-05
-2.25276e-08
1.53338e-05
-3.22786e-08
1.53337e-05
-4.26725e-08
1.53334e-05
-5.40253e-08
1.53328e-05
-6.67337e-08
1.53319e-05
-8.12673e-08
1.53305e-05
-9.82022e-08
1.53286e-05
-1.1827e-07
1.5326e-05
-1.42405e-07
1.53226e-05
-1.71783e-07
1.53181e-05
-2.07848e-07
1.53125e-05
-2.52337e-07
1.53052e-05
-3.07296e-07
1.5296e-05
-3.75134e-07
1.52843e-05
-4.58707e-07
1.52696e-05
-5.61432e-07
1.52511e-05
-6.87441e-07
1.52279e-05
-8.41747e-07
1.51989e-05
-1.03046e-06
1.51625e-05
-1.26102e-06
1.51168e-05
-1.54255e-06
1.50593e-05
-1.88624e-06
1.49866e-05
-2.30592e-06
1.48941e-05
-2.81869e-06
1.47753e-05
-3.4457e-06
1.46208e-05
-4.2156e-06
1.44176e-05
-5.15334e-06
-6.35957e-06
1.41419e-05
1.53334e-05
-4.35429e-09
1.53334e-05
-1.3279e-08
1.53334e-05
-2.25201e-08
1.53332e-05
-3.20929e-08
1.53328e-05
-4.22074e-08
1.53319e-05
-5.3206e-08
1.53307e-05
-6.54875e-08
1.53289e-05
-7.95036e-08
1.53265e-05
-9.58102e-08
1.53234e-05
-1.15117e-07
1.53193e-05
-1.38327e-07
1.53141e-05
-1.6657e-07
1.53075e-05
-2.01235e-07
1.52991e-05
-2.43984e-07
1.52886e-05
-2.9678e-07
1.52754e-05
-3.61932e-07
1.52589e-05
-4.42169e-07
1.52382e-05
-5.4076e-07
1.52124e-05
-6.61647e-07
1.51803e-05
-8.09604e-07
1.51402e-05
-9.90431e-07
1.50904e-05
-1.21118e-06
1.50283e-05
-1.48042e-06
1.49507e-05
-1.80863e-06
1.48533e-05
-2.20856e-06
1.47305e-05
-2.69586e-06
1.45742e-05
-3.28944e-06
1.43731e-05
-4.01447e-06
1.41113e-05
-4.89159e-06
-6.00634e-06
1.37581e-05
1.53333e-05
-4.35783e-09
1.53333e-05
-1.32665e-08
1.53332e-05
-2.23693e-08
1.53327e-05
-3.16568e-08
1.53319e-05
-4.13716e-08
1.53306e-05
-5.18914e-08
1.53287e-05
-6.36105e-08
1.53262e-05
-7.69538e-08
1.53228e-05
-9.24523e-08
1.53185e-05
-1.10789e-07
1.5313e-05
-1.32824e-07
1.5306e-05
-1.59631e-07
1.52973e-05
-1.92523e-07
1.52864e-05
-2.33076e-07
1.52728e-05
-2.83148e-07
1.52558e-05
-3.44918e-07
1.52346e-05
-4.20966e-07
1.52082e-05
-5.14375e-07
1.51754e-05
-6.28857e-07
1.51347e-05
-7.68901e-07
1.50842e-05
-9.39944e-07
1.50216e-05
-1.14856e-06
1.49439e-05
-1.40272e-06
1.48473e-05
-1.71203e-06
1.47268e-05
-2.08808e-06
1.45758e-05
-2.54486e-06
1.43852e-05
-3.09881e-06
1.41419e-05
-3.77121e-06
1.38286e-05
-4.57823e-06
-5.58706e-06
1.34093e-05
1.53333e-05
-4.34942e-09
1.53333e-05
-1.32207e-08
1.5333e-05
-2.21151e-08
1.53324e-05
-3.10006e-08
1.53312e-05
-4.01924e-08
1.53294e-05
-5.01141e-08
1.53269e-05
-6.11409e-08
1.53236e-05
-7.36613e-08
1.53194e-05
-8.818e-08
1.53139e-05
-1.05347e-07
1.53071e-05
-1.2597e-07
1.52985e-05
-1.51053e-07
1.52878e-05
-1.81823e-07
1.52745e-05
-2.19749e-07
1.52579e-05
-2.66563e-07
1.52373e-05
-3.24297e-07
1.52117e-05
-3.9535e-07
1.51799e-05
-4.82589e-07
1.51405e-05
-5.89462e-07
1.50917e-05
-7.20129e-07
1.50314e-05
-8.79612e-07
1.49568e-05
-1.07396e-06
1.48645e-05
-1.31045e-06
1.47502e-05
-1.59778e-06
1.46084e-05
-1.94626e-06
1.44317e-05
-2.36813e-06
1.42102e-05
-2.8773e-06
1.393e-05
-3.49097e-06
1.35727e-05
-4.221e-06
-5.11461e-06
1.31003e-05
1.53333e-05
-4.35256e-09
1.53333e-05
-1.31794e-08
1.5333e-05
-2.17924e-08
1.53321e-05
-3.01554e-08
1.53306e-05
-3.87023e-08
1.53284e-05
-4.79143e-08
1.53254e-05
-5.81243e-08
1.53214e-05
-6.96782e-08
1.53163e-05
-8.30547e-08
1.53098e-05
-9.88647e-08
1.53017e-05
-1.17855e-07
1.52916e-05
-1.40947e-07
1.52791e-05
-1.69267e-07
1.52635e-05
-2.04164e-07
1.52441e-05
-2.47225e-07
1.52201e-05
-3.00312e-07
1.51904e-05
-3.65622e-07
1.51536e-05
-4.45776e-07
1.51081e-05
-5.43924e-07
1.50518e-05
-6.63859e-07
1.49823e-05
-8.10147e-07
1.48966e-05
-9.88269e-07
1.47909e-05
-1.20476e-06
1.46605e-05
-1.46736e-06
1.44993e-05
-1.78507e-06
1.42996e-05
-2.16834e-06
1.40509e-05
-2.62862e-06
1.3739e-05
-3.17911e-06
1.33459e-05
-3.82793e-06
-4.60232e-06
1.28336e-05
1.53334e-05
-4.38982e-09
1.53334e-05
-1.32066e-08
1.53331e-05
-2.14509e-08
1.5332e-05
-2.91485e-08
1.53303e-05
-3.69379e-08
1.53277e-05
-4.53363e-08
1.53242e-05
-5.46096e-08
1.53196e-05
-6.50618e-08
1.53137e-05
-7.71468e-08
1.53062e-05
-9.14285e-08
1.5297e-05
-1.08581e-07
1.52854e-05
-1.29436e-07
1.52712e-05
-1.55006e-07
1.52535e-05
-1.86506e-07
1.52317e-05
-2.25361e-07
1.52046e-05
-2.73242e-07
1.51711e-05
-3.32123e-07
1.51297e-05
-4.04355e-07
1.50785e-05
-4.92759e-07
1.50154e-05
-6.00729e-07
1.49376e-05
-7.32345e-07
1.48418e-05
-8.92481e-07
1.47239e-05
-1.08692e-06
1.4579e-05
-1.32239e-06
1.44005e-05
-1.6066e-06
1.41804e-05
-1.94824e-06
1.39083e-05
-2.35651e-06
1.35701e-05
-2.84094e-06
1.3149e-05
-3.40678e-06
-4.06289e-06
1.26096e-05
1.53334e-05
-4.50275e-09
1.53336e-05
-1.33825e-08
1.53333e-05
-2.11419e-08
1.53322e-05
-2.80127e-08
1.53302e-05
-3.4941e-08
1.53273e-05
-4.24291e-08
1.53233e-05
-5.06487e-08
1.53181e-05
-5.98725e-08
1.53115e-05
-7.05306e-08
1.53032e-05
-8.31286e-08
1.52929e-05
-9.82608e-08
1.52801e-05
-1.16658e-07
1.52643e-05
-1.3921e-07
1.52448e-05
-1.66982e-07
1.52206e-05
-2.01223e-07
1.51908e-05
-2.43399e-07
1.51539e-05
-2.95237e-07
1.51084e-05
-3.58795e-07
1.50521e-05
-4.36544e-07
1.49829e-05
-5.3145e-07
1.48976e-05
-6.47078e-07
1.47928e-05
-7.87675e-07
1.46641e-05
-9.5826e-07
1.45063e-05
-1.16458e-06
1.43127e-05
-1.41301e-06
1.40751e-05
-1.71062e-06
1.37832e-05
-2.06461e-06
1.34236e-05
-2.48138e-06
1.29814e-05
-2.96449e-06
-3.5075e-06
1.2426e-05
1.53336e-05
-4.76461e-09
1.5334e-05
-1.38276e-08
1.53338e-05
-2.09006e-08
1.53326e-05
-2.67753e-08
1.53304e-05
-3.27653e-08
1.53272e-05
-3.92506e-08
1.53229e-05
-4.63034e-08
1.53172e-05
-5.4186e-08
1.53099e-05
-6.32978e-08
1.53009e-05
-7.4073e-08
1.52896e-05
-8.7021e-08
1.52758e-05
-1.02767e-07
1.52586e-05
-1.22064e-07
1.52374e-05
-1.45818e-07
1.52113e-05
-1.75088e-07
1.5179e-05
-2.11119e-07
1.51392e-05
-2.55375e-07
1.509e-05
-3.09604e-07
1.50293e-05
-3.759e-07
1.49547e-05
-4.5678e-07
1.48629e-05
-5.55272e-07
1.47502e-05
-6.74983e-07
1.46121e-05
-8.20191e-07
1.44432e-05
-9.95653e-07
1.42366e-05
-1.20647e-06
1.39842e-05
-1.45817e-06
1.36759e-05
-1.75634e-06
1.32993e-05
-2.10477e-06
1.28417e-05
-2.50692e-06
-2.94506e-06
1.22793e-05
1.53339e-05
-5.31628e-09
1.53348e-05
-1.47233e-08
1.53346e-05
-2.07291e-08
1.53333e-05
-2.54551e-08
1.5331e-05
-3.04527e-08
1.53276e-05
-3.58371e-08
1.53229e-05
-4.16181e-08
1.53168e-05
-4.80662e-08
1.5309e-05
-5.55331e-08
1.52993e-05
-6.43668e-08
1.52873e-05
-7.49959e-08
1.52724e-05
-8.79273e-08
1.52541e-05
-1.03771e-07
1.52316e-05
-1.23262e-07
1.52037e-05
-1.47259e-07
1.51694e-05
-1.7677e-07
1.5127e-05
-2.12988e-07
1.50747e-05
-2.5733e-07
1.50103e-05
-3.11499e-07
1.49311e-05
-3.77542e-07
1.48337e-05
-4.57926e-07
1.47144e-05
-5.55608e-07
1.45684e-05
-6.74195e-07
1.43902e-05
-8.17467e-07
1.4173e-05
-9.89253e-07
1.39085e-05
-1.19368e-06
1.35873e-05
-1.43516e-06
1.31978e-05
-1.71527e-06
1.27305e-05
-2.03964e-06
-2.38138e-06
1.21669e-05
1.53344e-05
-6.4082e-09
1.5336e-05
-1.63047e-08
1.53359e-05
-2.06366e-08
1.53346e-05
-2.41497e-08
1.53322e-05
-2.80822e-08
1.53286e-05
-3.2242e-08
1.53237e-05
-3.66575e-08
1.53172e-05
-4.1598e-08
1.5309e-05
-4.73362e-08
1.52988e-05
-5.41194e-08
1.52861e-05
-6.23215e-08
1.52705e-05
-7.23081e-08
1.52512e-05
-8.454e-08
1.52276e-05
-9.95733e-08
1.51984e-05
-1.18059e-07
1.51623e-05
-1.40761e-07
1.51179e-05
-1.68583e-07
1.50632e-05
-2.02603e-07
1.49958e-05
-2.44115e-07
1.4913e-05
-2.9468e-07
1.48112e-05
-3.56195e-07
1.46866e-05
-4.30946e-07
1.45344e-05
-5.22066e-07
1.43493e-05
-6.32349e-07
1.41244e-05
-7.64288e-07
1.38516e-05
-9.20874e-07
1.3522e-05
-1.10565e-06
1.31245e-05
-1.31777e-06
1.26533e-05
-1.56844e-06
-1.81786e-06
1.20898e-05
1.53355e-05
-8.54289e-09
1.53377e-05
-1.85116e-08
1.53376e-05
-2.05604e-08
1.53364e-05
-2.29883e-08
1.53341e-05
-2.56999e-08
1.53303e-05
-2.85096e-08
1.53252e-05
-3.14972e-08
1.53184e-05
-3.48786e-08
1.53099e-05
-3.88338e-08
1.52993e-05
-4.34798e-08
1.52862e-05
-4.91767e-08
1.527e-05
-5.61192e-08
1.525e-05
-6.46219e-08
1.52255e-05
-7.50557e-08
1.51953e-05
-8.78537e-08
1.51581e-05
-1.03533e-07
1.51122e-05
-1.22713e-07
1.50558e-05
-1.46134e-07
1.49863e-05
-1.74687e-07
1.49011e-05
-2.09452e-07
1.47967e-05
-2.5175e-07
1.46689e-05
-3.03181e-07
1.45135e-05
-3.66663e-07
1.43249e-05
-4.43741e-07
1.40959e-05
-5.35313e-07
1.38187e-05
-6.43713e-07
1.34846e-05
-7.71503e-07
1.30824e-05
-9.15566e-07
1.2607e-05
-1.09301e-06
-1.23758e-06
1.20267e-05
1.53392e-05
-1.44405e-08
1.53412e-05
-2.05131e-08
1.53406e-05
-1.99441e-08
1.53388e-05
-2.12054e-08
1.53358e-05
-2.27111e-08
1.53315e-05
-2.417e-08
1.53257e-05
-2.56969e-08
1.53183e-05
-2.74376e-08
1.53089e-05
-2.94852e-08
1.52973e-05
-3.18724e-08
1.5283e-05
-3.48447e-08
1.52653e-05
-3.84751e-08
1.52436e-05
-4.29372e-08
1.5217e-05
-4.84364e-08
1.51844e-05
-5.52118e-08
1.51444e-05
-6.35505e-08
1.50955e-05
-7.37963e-08
1.50357e-05
-8.63621e-08
1.49628e-05
-1.01748e-07
1.48739e-05
-1.20562e-07
1.47657e-05
-1.43529e-07
1.4634e-05
-1.71509e-07
1.44719e-05
-2.04581e-07
1.42724e-05
-2.44192e-07
1.40293e-05
-2.92281e-07
1.37351e-05
-3.49485e-07
1.33801e-05
-4.16483e-07
1.2957e-05
-4.92468e-07
1.24499e-05
-5.85905e-07
-5.88522e-07
1.18008e-05
1.53189e-05
1.52984e-05
1.52784e-05
1.52572e-05
1.52345e-05
1.52103e-05
1.51847e-05
1.51572e-05
1.51277e-05
1.50959e-05
1.5061e-05
1.50225e-05
1.49796e-05
1.49312e-05
1.4876e-05
1.48124e-05
1.47386e-05
1.46522e-05
1.45505e-05
1.44299e-05
1.42864e-05
1.41149e-05
1.39103e-05
1.36661e-05
1.33738e-05
1.30244e-05
1.26079e-05
1.21154e-05
1.15295e-05
1.0941e-05
1.86961e-05
-8.74926e-06
8.98462e-06
1.84878e-05
-8.94327e-06
9.15151e-06
1.82354e-05
-9.13627e-06
9.38872e-06
1.79424e-05
-9.31875e-06
9.61174e-06
1.76162e-05
-9.50114e-06
9.82728e-06
1.72646e-05
-9.68917e-06
1.00408e-05
1.68922e-05
-9.88496e-06
1.02574e-05
1.65018e-05
-1.00898e-05
1.04802e-05
1.60949e-05
-1.03046e-05
1.07115e-05
1.56716e-05
-1.053e-05
1.09533e-05
1.52313e-05
-1.07664e-05
1.12067e-05
1.47729e-05
-1.10142e-05
1.14726e-05
1.42953e-05
-1.12742e-05
1.17518e-05
1.37975e-05
-1.15476e-05
1.20455e-05
1.32782e-05
-1.18361e-05
1.23553e-05
1.27363e-05
-1.21417e-05
1.26836e-05
1.21702e-05
-1.24669e-05
1.3033e-05
1.1578e-05
-1.28149e-05
1.34071e-05
1.09572e-05
-1.3189e-05
1.38099e-05
1.03046e-05
-1.35939e-05
1.42465e-05
9.61601e-06
-1.40348e-05
1.47233e-05
8.88619e-06
-1.45184e-05
1.52482e-05
8.10816e-06
-1.50527e-05
1.58308e-05
7.27292e-06
-1.56485e-05
1.64837e-05
6.36741e-06
-1.63177e-05
1.72232e-05
5.37812e-06
-1.70783e-05
1.80676e-05
4.28451e-06
-1.79479e-05
1.90415e-05
3.00751e-06
-1.89788e-05
2.02558e-05
1.69364e-06
-2.00354e-05
2.13492e-05
-2.17952e-05
2.34888e-05
1.88954e-05
-8.49487e-06
1.85979e-05
-8.64574e-06
1.82671e-05
-8.80549e-06
1.79163e-05
-8.96788e-06
1.75513e-05
-9.13619e-06
1.71749e-05
-9.31277e-06
1.67877e-05
-9.49774e-06
1.63889e-05
-9.691e-06
1.59771e-05
-9.89277e-06
1.55505e-05
-1.01034e-05
1.51075e-05
-1.03234e-05
1.46468e-05
-1.05535e-05
1.41674e-05
-1.07948e-05
1.36684e-05
-1.10486e-05
1.31488e-05
-1.13165e-05
1.26075e-05
-1.16003e-05
1.20426e-05
-1.19021e-05
1.14522e-05
-1.22245e-05
1.08337e-05
-1.25705e-05
1.01837e-05
-1.29439e-05
9.49818e-06
-1.33492e-05
8.77179e-06
-1.3792e-05
7.99771e-06
-1.42787e-05
7.16703e-06
-1.48178e-05
6.26817e-06
-1.54188e-05
5.28636e-06
-1.60965e-05
4.20012e-06
-1.68617e-05
2.97181e-06
-1.77504e-05
1.63794e-06
-1.87015e-05
-2.01572e-05
1.87681e-05
-8.18765e-06
1.84427e-05
-8.3204e-06
1.81017e-05
-8.46451e-06
1.77506e-05
-8.61678e-06
1.73904e-05
-8.77596e-06
1.70194e-05
-8.94176e-06
1.66359e-05
-9.11421e-06
1.62384e-05
-9.29357e-06
1.5826e-05
-9.48034e-06
1.53978e-05
-9.67515e-06
1.49531e-05
-9.87872e-06
1.44914e-05
-1.00919e-05
1.40121e-05
-1.03155e-05
1.35144e-05
-1.05508e-05
1.29969e-05
-1.07991e-05
1.24583e-05
-1.10617e-05
1.18969e-05
-1.13406e-05
1.13103e-05
-1.16379e-05
1.0696e-05
-1.19562e-05
1.00506e-05
-1.22986e-05
9.37e-06
-1.26686e-05
8.64886e-06
-1.30708e-05
7.88049e-06
-1.35103e-05
7.05627e-06
-1.39936e-05
6.16512e-06
-1.45277e-05
5.19264e-06
-1.5124e-05
4.11956e-06
-1.57886e-05
2.91819e-06
-1.65491e-05
1.58624e-06
-1.73696e-05
-1.8571e-05
1.86438e-05
-7.86702e-06
1.8312e-05
-7.98856e-06
1.79678e-05
-8.12032e-06
1.76126e-05
-8.26164e-06
1.72465e-05
-8.40983e-06
1.68683e-05
-8.5635e-06
1.6477e-05
-8.72298e-06
1.60724e-05
-8.88897e-06
1.56541e-05
-9.06202e-06
1.52216e-05
-9.24262e-06
1.47742e-05
-9.43132e-06
1.43111e-05
-9.6288e-06
1.38314e-05
-9.83585e-06
1.3334e-05
-1.00534e-05
1.28174e-05
-1.02825e-05
1.22803e-05
-1.05246e-05
1.17208e-05
-1.07811e-05
1.11368e-05
-1.10538e-05
1.05254e-05
-1.13449e-05
9.88358e-06
-1.16567e-05
9.20704e-06
-1.19921e-05
8.49069e-06
-1.23545e-05
7.72805e-06
-1.27476e-05
6.91095e-06
-1.31765e-05
6.02894e-06
-1.36457e-05
5.06874e-06
-1.41638e-05
4.01289e-06
-1.47327e-05
2.83947e-06
-1.53756e-05
1.53039e-06
-1.60605e-05
-1.70406e-05
1.84814e-05
-7.53563e-06
1.81403e-05
-7.64742e-06
1.77881e-05
-7.76819e-06
1.74255e-05
-7.89904e-06
1.70525e-05
-8.03677e-06
1.66683e-05
-8.17936e-06
1.62725e-05
-8.32713e-06
1.58644e-05
-8.48092e-06
1.54436e-05
-8.64118e-06
1.50093e-05
-8.80829e-06
1.45606e-05
-8.98268e-06
1.40968e-05
-9.16498e-06
1.36168e-05
-9.3559e-06
1.31197e-05
-9.55623e-06
1.26041e-05
-9.76691e-06
1.20685e-05
-9.98901e-06
1.15111e-05
-1.02237e-05
1.09298e-05
-1.04725e-05
1.03218e-05
-1.07369e-05
9.68401e-06
-1.10189e-05
9.01228e-06
-1.13204e-05
8.30171e-06
-1.16439e-05
7.54617e-06
-1.19921e-05
6.73798e-06
-1.23683e-05
5.86748e-06
-1.27752e-05
4.92258e-06
-1.32189e-05
3.88755e-06
-1.36977e-05
2.74334e-06
-1.42314e-05
1.46685e-06
-1.4784e-05
-1.55737e-05
1.82834e-05
-7.19545e-06
1.79345e-05
-7.29849e-06
1.75758e-05
-7.40943e-06
1.72073e-05
-7.53058e-06
1.6829e-05
-7.65842e-06
1.64401e-05
-7.7905e-06
1.60401e-05
-7.92713e-06
1.56284e-05
-8.06921e-06
1.52044e-05
-8.21719e-06
1.47675e-05
-8.37136e-06
1.43169e-05
-8.53209e-06
1.38518e-05
-8.69991e-06
1.33713e-05
-8.87542e-06
1.28744e-05
-9.05925e-06
1.23596e-05
-9.25214e-06
1.18255e-05
-9.45492e-06
1.12703e-05
-9.66852e-06
1.06918e-05
-9.894e-06
1.00874e-05
-1.01325e-05
9.4539e-06
-1.03854e-05
8.78758e-06
-1.0654e-05
8.08369e-06
-1.094e-05
7.33652e-06
-1.12449e-05
6.53898e-06
-1.15708e-05
5.68228e-06
-1.19185e-05
4.75553e-06
-1.22921e-05
3.74474e-06
-1.26869e-05
2.63338e-06
-1.31201e-05
1.39791e-06
-1.35485e-05
-1.41758e-05
1.80489e-05
-6.84741e-06
1.76928e-05
-6.94246e-06
1.73278e-05
-7.0444e-06
1.69536e-05
-7.15643e-06
1.65701e-05
-7.27484e-06
1.61765e-05
-7.39695e-06
1.57724e-05
-7.52304e-06
1.53573e-05
-7.65406e-06
1.49305e-05
-7.79043e-06
1.44915e-05
-7.93235e-06
1.40395e-05
-8.0801e-06
1.35737e-05
-8.2341e-06
1.30931e-05
-8.39483e-06
1.25966e-05
-8.56278e-06
1.2083e-05
-8.73852e-06
1.15507e-05
-8.92264e-06
1.0998e-05
-9.11582e-06
1.04228e-05
-9.31877e-06
9.82254e-06
-9.53228e-06
9.19429e-06
-9.75714e-06
8.53441e-06
-9.99416e-06
7.83856e-06
-1.02442e-05
7.10146e-06
-1.05078e-05
6.31666e-06
-1.0786e-05
5.4763e-06
-1.10781e-05
4.57072e-06
-1.13866e-05
3.58769e-06
-1.17039e-05
2.51305e-06
-1.20454e-05
1.32521e-06
-1.23607e-05
-1.28506e-05
1.77774e-05
-6.49228e-06
1.7415e-05
-6.58001e-06
1.70443e-05
-6.67368e-06
1.6665e-05
-6.77714e-06
1.62767e-05
-6.88662e-06
1.58791e-05
-6.99932e-06
1.54715e-05
-7.11547e-06
1.50535e-05
-7.23603e-06
1.46245e-05
-7.36139e-06
1.41838e-05
-7.49165e-06
1.37307e-05
-7.62701e-06
1.32644e-05
-7.7678e-06
1.2784e-05
-7.91439e-06
1.22883e-05
-8.06714e-06
1.17762e-05
-8.22641e-06
1.12462e-05
-8.39262e-06
1.06966e-05
-8.56619e-06
1.01253e-05
-8.74753e-06
9.53008e-06
-8.93705e-06
8.90805e-06
-9.13511e-06
8.25589e-06
-9.342e-06
7.5696e-06
-9.55788e-06
6.84441e-06
-9.78263e-06
6.07454e-06
-1.00161e-05
5.2531e-06
-1.02567e-05
4.37163e-06
-1.05051e-05
3.41972e-06
-1.0752e-05
2.38546e-06
-1.10112e-05
1.25031e-06
-1.12255e-05
-1.16003e-05
1.74699e-05
-6.13077e-06
1.71017e-05
-6.2118e-06
1.67259e-05
-6.29787e-06
1.6342e-05
-6.39329e-06
1.59497e-05
-6.49433e-06
1.55486e-05
-6.59815e-06
1.5138e-05
-6.70493e-06
1.47176e-05
-6.81561e-06
1.42867e-05
-6.93053e-06
1.38448e-05
-7.04974e-06
1.33912e-05
-7.17334e-06
1.29249e-05
-7.30158e-06
1.24452e-05
-7.4347e-06
1.1951e-05
-7.57294e-06
1.14411e-05
-7.7165e-06
1.09141e-05
-7.86561e-06
1.03684e-05
-8.02046e-06
9.80206e-06
-8.1812e-06
9.21294e-06
-8.34792e-06
8.59842e-06
-8.52059e-06
7.95546e-06
-8.69904e-06
7.28046e-06
-8.88289e-06
6.56918e-06
-9.07134e-06
5.81654e-06
-9.26348e-06
5.01657e-06
-9.45669e-06
4.16203e-06
-9.65054e-06
3.2443e-06
-9.83427e-06
2.25353e-06
-1.00204e-05
1.17473e-06
-1.01467e-05
-1.04256e-05
1.71278e-05
-5.76363e-06
1.67545e-05
-5.83854e-06
1.63743e-05
-5.91767e-06
1.59866e-05
-6.00555e-06
1.55909e-05
-6.09864e-06
1.51869e-05
-6.19409e-06
1.4774e-05
-6.29206e-06
1.43518e-05
-6.39344e-06
1.39198e-05
-6.49853e-06
1.34774e-05
-6.60729e-06
1.30238e-05
-6.71976e-06
1.25583e-05
-6.8361e-06
1.20801e-05
-6.95646e-06
1.15881e-05
-7.08094e-06
1.10812e-05
-7.2096e-06
1.05581e-05
-7.34251e-06
1.00173e-05
-7.47965e-06
9.457e-06
-7.62093e-06
8.87525e-06
-7.76617e-06
8.26968e-06
-7.91502e-06