/*--------------------------------*- C++ -*----------------------------------*\
  =========                 |
  \\      /  F ield         | OpenFOAM: The Open Source CFD Toolbox
   \\    /   O peration     | Website:  https://openfoam.org
    \\  /    A nd           | Version:  11
     \\/     M anipulation  |
\*---------------------------------------------------------------------------*/
FoamFile
{
    format      ascii;
    class       volVectorField;
    location    "5";
    object      U;
}
// * * * * * * * * * * * * * * * * * * * * * * * * * * * * * * * * * * * * * //

dimensions      [0 1 -1 0 0 0 0];

internalField   nonuniform List<vector> 
12600
(
(0.412292 4.77268e-05 0)
(0.41224 8.89353e-05 0)
(0.412181 7.49633e-05 0)
(0.412146 5.80396e-05 0)
(0.412172 3.67516e-05 0)
(0.412271 1.27722e-05 0)
(0.412442 -1.09089e-05 0)
(0.412685 -3.48104e-05 0)
(0.413004 -6.01318e-05 0)
(0.413405 -8.97714e-05 0)
(0.413898 -0.00012525 0)
(0.414494 -0.000167575 0)
(0.415208 -0.000217171 0)
(0.416055 -0.000274494 0)
(0.417059 -0.000340687 0)
(0.418245 -0.000417675 0)
(0.419645 -0.000507968 0)
(0.421297 -0.000614346 0)
(0.423247 -0.000739651 0)
(0.425547 -0.00088689 0)
(0.428258 -0.00105931 0)
(0.431448 -0.00126035 0)
(0.435197 -0.00149331 0)
(0.439585 -0.0017616 0)
(0.444712 -0.00207054 0)
(0.450674 -0.00241679 0)
(0.457579 -0.00281304 0)
(0.465497 -0.00317556 0)
(0.474559 -0.00383696 0)
(0.485971 -0.00317746 0)
(0.412482 7.59732e-05 0)
(0.412607 5.98684e-05 0)
(0.412788 5.33397e-06 0)
(0.413014 -6.74024e-05 0)
(0.413299 -0.000143351 0)
(0.413657 -0.000221204 0)
(0.414091 -0.000302437 0)
(0.414607 -0.000388557 0)
(0.415207 -0.000480658 0)
(0.415894 -0.000579484 0)
(0.416669 -0.000686687 0)
(0.417533 -0.00080559 0)
(0.418497 -0.00094086 0)
(0.419575 -0.00109774 0)
(0.42079 -0.00128159 0)
(0.422165 -0.00149797 0)
(0.423732 -0.00175297 0)
(0.425525 -0.00205351 0)
(0.427585 -0.00240748 0)
(0.429959 -0.00282358 0)
(0.432701 -0.00331105 0)
(0.435876 -0.00387946 0)
(0.439556 -0.00453794 0)
(0.443824 -0.00529538 0)
(0.448772 -0.00616025 0)
(0.454496 -0.00713523 0)
(0.461112 -0.0082381 0)
(0.468708 -0.00937423 0)
(0.477472 -0.0109382 0)
(0.487304 -0.0108323 0)
(0.412481 -1.26487e-05 0)
(0.412567 -7.94913e-05 0)
(0.412727 -0.000184528 0)
(0.412947 -0.000305091 0)
(0.413226 -0.000430429 0)
(0.413573 -0.000561608 0)
(0.413993 -0.000701158 0)
(0.414488 -0.000849488 0)
(0.415061 -0.00100542 0)
(0.415713 -0.00116837 0)
(0.416452 -0.0013407 0)
(0.417286 -0.00152881 0)
(0.418226 -0.00174187 0)
(0.419284 -0.00198944 0)
(0.420477 -0.00228038 0)
(0.421827 -0.00262349 0)
(0.423361 -0.00302838 0)
(0.425112 -0.00350606 0)
(0.427119 -0.00406904 0)
(0.429429 -0.0047311 0)
(0.432096 -0.00550745 0)
(0.435186 -0.00641484 0)
(0.438772 -0.00747063 0)
(0.44294 -0.00869173 0)
(0.447784 -0.0100943 0)
(0.453415 -0.0116883 0)
(0.45993 -0.0134965 0)
(0.467513 -0.0154261 0)
(0.476072 -0.0178543 0)
(0.48656 -0.0188054 0)
(0.412476 -4.62348e-05 0)
(0.412544 -0.000155773 0)
(0.412687 -0.000297765 0)
(0.412896 -0.000460257 0)
(0.413165 -0.000633892 0)
(0.4135 -0.000816073 0)
(0.413906 -0.00100663 0)
(0.414385 -0.00120567 0)
(0.414937 -0.00141434 0)
(0.415565 -0.0016357 0)
(0.416276 -0.00187495 0)
(0.417078 -0.00213943 0)
(0.417982 -0.00243829 0)
(0.419 -0.002782 0)
(0.420148 -0.00318207 0)
(0.421447 -0.00365115 0)
(0.422923 -0.00420334 0)
(0.424606 -0.00485462 0)
(0.426535 -0.00562316 0)
(0.428755 -0.00652928 0)
(0.43132 -0.0075953 0)
(0.434294 -0.00884516 0)
(0.437749 -0.0103039 0)
(0.441772 -0.0119969 0)
(0.446457 -0.013949 0)
(0.451922 -0.0161765 0)
(0.458266 -0.0187104 0)
(0.465706 -0.021455 0)
(0.47412 -0.0248021 0)
(0.484666 -0.0268047 0)
(0.412473 -7.44826e-05 0)
(0.412529 -0.000236899 0)
(0.412657 -0.000426753 0)
(0.412852 -0.000638114 0)
(0.413108 -0.000863444 0)
(0.413426 -0.001099 0)
(0.413811 -0.00134427 0)
(0.414266 -0.00159987 0)
(0.414791 -0.00186723 0)
(0.41539 -0.00214968 0)
(0.416068 -0.00245335 0)
(0.416832 -0.00278739 0)
(0.417691 -0.00316345 0)
(0.418657 -0.0035949 0)
(0.419747 -0.0040964 0)
(0.420978 -0.00468412 0)
(0.422377 -0.00537608 0)
(0.423973 -0.00619267 0)
(0.425801 -0.00715689 0)
(0.427906 -0.00829451 0)
(0.430339 -0.00963416 0)
(0.433161 -0.0112072 0)
(0.436443 -0.0130474 0)
(0.440272 -0.0151894 0)
(0.444741 -0.0176682 0)
(0.449975 -0.0205119 0)
(0.456075 -0.023762 0)
(0.463291 -0.0273421 0)
(0.471473 -0.0316209 0)
(0.481981 -0.0348046 0)
(0.412471 -9.86511e-05 0)
(0.41252 -0.000308162 0)
(0.412636 -0.000542002 0)
(0.412816 -0.000797156 0)
(0.413055 -0.0010681 0)
(0.413354 -0.00135076 0)
(0.413716 -0.0016438 0)
(0.414143 -0.00194775 0)
(0.414637 -0.00226496 0)
(0.415199 -0.00260036 0)
(0.415835 -0.00296192 0)
(0.41655 -0.00336049 0)
(0.417354 -0.00380934 0)
(0.418258 -0.0043238 0)
(0.419276 -0.00492101 0)
(0.420427 -0.00562019 0)
(0.421733 -0.00644301 0)
(0.423221 -0.00741412 0)
(0.424926 -0.00856161 0)
(0.426888 -0.00991724 0)
(0.429155 -0.0115165 0)
(0.431787 -0.0133986 0)
(0.434852 -0.0156058 0)
(0.438433 -0.0181832 0)
(0.442626 -0.0211778 0)
(0.447558 -0.0246319 0)
(0.453333 -0.0286 0)
(0.460235 -0.0330323 0)
(0.468085 -0.0382736 0)
(0.478468 -0.042715 0)
(0.41247 -0.000119571 0)
(0.412514 -0.00037152 0)
(0.412618 -0.00064756 0)
(0.412782 -0.000945349 0)
(0.413003 -0.00126041 0)
(0.413279 -0.00158873 0)
(0.413613 -0.00192861 0)
(0.414007 -0.00228068 0)
(0.414463 -0.00264784 0)
(0.414982 -0.00303576 0)
(0.415569 -0.00345343 0)
(0.416229 -0.00391305 0)
(0.416969 -0.00442971 0)
(0.417801 -0.00502093 0)
(0.418736 -0.0057065 0)
(0.419792 -0.00650864 0)
(0.420988 -0.00745246 0)
(0.422351 -0.00856656 0)
(0.423911 -0.00988359 0)
(0.425705 -0.0114406 0)
(0.427778 -0.0132796 0)
(0.430184 -0.0154471 0)
(0.432988 -0.017995 0)
(0.436271 -0.0209794 0)
(0.440126 -0.0244611 0)
(0.44468 -0.0284994 0)
(0.450041 -0.0331672 0)
(0.456521 -0.0384513 0)
(0.463914 -0.0446755 0)
(0.474038 -0.0504647 0)
(0.412469 -0.000138062 0)
(0.412508 -0.000428187 0)
(0.412601 -0.00074333 0)
(0.412749 -0.00108075 0)
(0.412948 -0.00143638 0)
(0.413199 -0.00180631 0)
(0.413502 -0.00218854 0)
(0.41386 -0.00258361 0)
(0.414273 -0.00299481 0)
(0.414745 -0.0034287 0)
(0.415276 -0.00389546 0)
(0.415873 -0.00440878 0)
(0.416542 -0.00498544 0)
(0.417291 -0.00564494 0)
(0.418133 -0.00640933 0)
(0.419082 -0.00730338 0)
(0.420156 -0.00835515 0)
(0.421377 -0.00959675 0)
(0.422772 -0.0110651 0)
(0.424374 -0.0128026 0)
(0.426224 -0.0148573 0)
(0.42837 -0.0172835 0)
(0.430872 -0.0201423 0)
(0.433805 -0.0235014 0)
(0.437257 -0.0274366 0)
(0.441354 -0.0320271 0)
(0.446201 -0.0373682 0)
(0.452135 -0.0434921 0)
(0.458925 -0.0507067 0)
(0.468598 -0.0579266 0)
(0.412468 -0.000154382 0)
(0.412502 -0.000478368 0)
(0.412584 -0.000828693 0)
(0.412715 -0.00120202 0)
(0.412892 -0.0015943 0)
(0.413114 -0.00200165 0)
(0.413384 -0.00242196 0)
(0.413702 -0.00285578 0)
(0.414069 -0.00330681 0)
(0.414486 -0.00378231 0)
(0.414957 -0.0042934 0)
(0.415485 -0.00485491 0)
(0.416074 -0.00548504 0)
(0.416734 -0.00620502 0)
(0.417473 -0.00703891 0)
(0.418304 -0.00801376 0)
(0.419242 -0.00916024 0)
(0.420306 -0.0105136 0)
(0.42152 -0.0121144 0)
(0.42291 -0.0140096 0)
(0.424511 -0.016253 0)
(0.426367 -0.0189058 0)
(0.428528 -0.022038 0)
(0.431062 -0.0257293 0)
(0.434048 -0.0300707 0)
(0.437607 -0.0351638 0)
(0.441836 -0.0411296 0)
(0.447083 -0.0480544 0)
(0.453098 -0.0562372 0)
(0.462067 -0.0649408 0)
(0.412467 -0.000168572 0)
(0.412496 -0.000522047 0)
(0.412567 -0.000903256 0)
(0.41268 -0.00130828 0)
(0.412833 -0.00173288 0)
(0.413025 -0.00217312 0)
(0.413259 -0.00262679 0)
(0.413533 -0.00309444 0)
(0.41385 -0.00358002 0)
(0.41421 -0.00409131 0)
(0.414615 -0.00464019 0)
(0.415068 -0.0052425 0)
(0.415572 -0.00591772 0)
(0.416135 -0.00668857 0)
(0.416764 -0.00758081 0)
(0.417468 -0.00862333 0)
(0.41826 -0.0098489 0)
(0.419155 -0.0112952 0)
(0.420172 -0.0130061 0)
(0.421332 -0.0150325 0)
(0.422663 -0.0174328 0)
(0.4242 -0.0202748 0)
(0.425986 -0.0236365 0)
(0.428075 -0.0276087 0)
(0.430537 -0.0322978 0)
(0.433478 -0.0378276 0)
(0.436983 -0.0443481 0)
(0.441393 -0.0520046 0)
(0.446445 -0.0610948 0)
(0.454391 -0.0712791 0)
(0.412466 -0.000180611 0)
(0.41249 -0.000559117 0)
(0.412549 -0.000966644 0)
(0.412644 -0.00139876 0)
(0.412771 -0.00185095 0)
(0.412933 -0.00231913 0)
(0.413127 -0.002801 0)
(0.413356 -0.00329711 0)
(0.41362 -0.0038116 0)
(0.413919 -0.00435266 0)
(0.414254 -0.00493279 0)
(0.414627 -0.00556863 0)
(0.415042 -0.00628067 0)
(0.415502 -0.0070928 0)
(0.416013 -0.00803207 0)
(0.416584 -0.0091288 0)
(0.417222 -0.0104173 0)
(0.417938 -0.0119373 0)
(0.418746 -0.013735 0)
(0.419662 -0.0158641 0)
(0.420705 -0.0183873 0)
(0.421902 -0.0213769 0)
(0.423283 -0.0249179 0)
(0.424889 -0.0291107 0)
(0.426774 -0.0340755 0)
(0.429024 -0.0399573 0)
(0.431703 -0.0469349 0)
(0.435123 -0.0552144 0)
(0.439016 -0.065098 0)
(0.445573 -0.0766752 0)
(0.412464 -0.000190459 0)
(0.412484 -0.000589437 0)
(0.412531 -0.00101851 0)
(0.412606 -0.00147281 0)
(0.412708 -0.00194752 0)
(0.412836 -0.00243839 0)
(0.412991 -0.00294302 0)
(0.413172 -0.00346195 0)
(0.41338 -0.00399943 0)
(0.413615 -0.00456394 0)
(0.413877 -0.00516841 0)
(0.414168 -0.00583007 0)
(0.414488 -0.0065701 0)
(0.414842 -0.00741325 0)
(0.415232 -0.00838749 0)
(0.415663 -0.00952408 0)
(0.41614 -0.0108584 0)
(0.416671 -0.0124313 0)
(0.417262 -0.0142905 0)
(0.417924 -0.0164918 0)
(0.418667 -0.0191003 0)
(0.419507 -0.0221919 0)
(0.420461 -0.0258563 0)
(0.421556 -0.030201 0)
(0.422821 -0.0353574 0)
(0.424318 -0.0414879 0)
(0.426083 -0.0487973 0)
(0.428369 -0.0575478 0)
(0.43092 -0.06805 0)
(0.435692 -0.0808208 0)
(0.412463 -0.000198075 0)
(0.412478 -0.000612875 0)
(0.412513 -0.00105856 0)
(0.412568 -0.00152992 0)
(0.412644 -0.00202185 0)
(0.412738 -0.00252993 0)
(0.412851 -0.00305165 0)
(0.412983 -0.00358752 0)
(0.413134 -0.00414184 0)
(0.413303 -0.00472327 0)
(0.41349 -0.00534497 0)
(0.413695 -0.0060245 0)
(0.413919 -0.00678351 0)
(0.414163 -0.00764723 0)
(0.414429 -0.00864415 0)
(0.414717 -0.00980599 0)
(0.41503 -0.0111686 0)
(0.415371 -0.0127732 0)
(0.415741 -0.0146681 0)
(0.416142 -0.01691 0)
(0.416579 -0.019565 0)
(0.417053 -0.0227103 0)
(0.417569 -0.0264381 0)
(0.418132 -0.0308596 0)
(0.418752 -0.0361129 0)
(0.419452 -0.0423724 0)
(0.420238 -0.0498615 0)
(0.421273 -0.0588876 0)
(0.422325 -0.0697686 0)
(0.424939 -0.083404 0)
(0.412462 -0.000203433 0)
(0.412472 -0.00062934 0)
(0.412494 -0.00108662 0)
(0.41253 -0.00156975 0)
(0.412578 -0.00207344 0)
(0.412638 -0.00259308 0)
(0.412709 -0.00312606 0)
(0.412791 -0.00367283 0)
(0.412883 -0.00423771 0)
(0.412985 -0.00482938 0)
(0.413095 -0.00546109 0)
(0.413214 -0.00615051 0)
(0.413341 -0.00691943 0)
(0.413474 -0.00779324 0)
(0.413613 -0.0088005 0)
(0.413758 -0.00997286 0)
(0.413906 -0.011346 0)
(0.414056 -0.0129609 0)
(0.414204 -0.0148655 0)
(0.414345 -0.0171159 0)
(0.414473 -0.0197776 0)
(0.414581 -0.0229271 0)
(0.414655 -0.0266558 0)
(0.414684 -0.0310747 0)
(0.414647 -0.0363232 0)
(0.414532 -0.0425795 0)
(0.414304 -0.0500751 0)
(0.414016 -0.059144 0)
(0.413466 -0.0701041 0)
(0.413625 -0.0841448 0)
(0.412461 -0.000206518 0)
(0.412465 -0.000638789 0)
(0.412476 -0.00110258 0)
(0.412492 -0.00159216 0)
(0.412513 -0.00210204 0)
(0.412538 -0.0026275 0)
(0.412566 -0.00316582 0)
(0.412598 -0.00371739 0)
(0.412631 -0.00428647 0)
(0.412665 -0.00488168 0)
(0.412699 -0.00551616 0)
(0.412731 -0.00620751 0)
(0.412759 -0.00697736 0)
(0.412782 -0.00785089 0)
(0.412796 -0.00885629 0)
(0.412798 -0.0100247 0)
(0.412783 -0.011391 0)
(0.412743 -0.0129951 0)
(0.412672 -0.0148837 0)
(0.412557 -0.0171111 0)
(0.412383 -0.0197403 0)
(0.412131 -0.0228448 0)
(0.411773 -0.026512 0)
(0.411276 -0.0308485 0)
(0.410596 -0.0359879 0)
(0.409675 -0.0421029 0)
(0.40844 -0.0494196 0)
(0.406817 -0.0582743 0)
(0.404635 -0.0689704 0)
(0.402185 -0.0828505 0)
(0.41246 -0.000207354 0)
(0.412459 -0.000641262 0)
(0.412457 -0.0011065 0)
(0.412454 -0.00159716 0)
(0.412447 -0.00210764 0)
(0.412438 -0.00263314 0)
(0.412424 -0.00317087 0)
(0.412405 -0.00372117 0)
(0.41238 -0.00428814 0)
(0.412347 -0.00488022 0)
(0.412305 -0.00551034 0)
(0.412251 -0.00619579 0)
(0.412182 -0.00695781 0)
(0.412096 -0.00782101 0)
(0.411987 -0.00881276 0)
(0.411849 -0.00996318 0)
(0.411673 -0.0113058 0)
(0.411451 -0.0128791 0)
(0.411167 -0.0147272 0)
(0.410804 -0.0169014 0)
(0.41034 -0.0194606 0)
(0.409743 -0.022473 0)
(0.408973 -0.0260191 0)
(0.407978 -0.030196 0)
(0.406686 -0.0351252 0)
(0.405001 -0.0409636 0)
(0.402808 -0.0479165 0)
(0.399911 -0.0562951 0)
(0.39616 -0.0663683 0)
(0.391145 -0.0794669 0)
(0.412459 -0.000205976 0)
(0.412453 -0.000636867 0)
(0.412439 -0.00109852 0)
(0.412416 -0.00158495 0)
(0.412384 -0.0020905 0)
(0.41234 -0.0026103 0)
(0.412285 -0.00314159 0)
(0.412217 -0.00368457 0)
(0.412134 -0.0042432 0)
(0.412035 -0.00482566 0)
(0.411918 -0.00544449 0)
(0.411779 -0.00611649 0)
(0.411616 -0.00686223 0)
(0.411424 -0.00770542 0)
(0.411195 -0.00867229 0)
(0.410921 -0.00979153 0)
(0.410592 -0.0110949 0)
(0.410193 -0.0126184 0)
(0.409707 -0.0144032 0)
(0.409111 -0.0164964 0)
(0.408373 -0.0189512 0)
(0.407455 -0.0218287 0)
(0.406304 -0.0251991 0)
(0.404849 -0.0291462 0)
(0.403 -0.0337731 0)
(0.400624 -0.0392115 0)
(0.39757 -0.0456307 0)
(0.393534 -0.0532899 0)
(0.388377 -0.062402 0)
(0.381066 -0.0741165 0)
(0.412458 -0.000202433 0)
(0.412447 -0.000625785 0)
(0.412422 -0.00107898 0)
(0.41238 -0.00155598 0)
(0.412322 -0.00205113 0)
(0.412245 -0.00255962 0)
(0.41215 -0.00307868 0)
(0.412033 -0.00360846 0)
(0.411894 -0.00415272 0)
(0.411731 -0.00471926 0)
(0.411541 -0.00532015 0)
(0.411322 -0.00597149 0)
(0.411067 -0.00669294 0)
(0.410773 -0.00750705 0)
(0.410429 -0.00843858 0)
(0.410026 -0.00951446 0)
(0.409551 -0.0107642 0)
(0.408987 -0.0122209 0)
(0.408312 -0.013922 0)
(0.407499 -0.0159093 0)
(0.40651 -0.0182296 0)
(0.4053 -0.0209346 0)
(0.403807 -0.0240825 0)
(0.401946 -0.0277404 0)
(0.399612 -0.0319878 0)
(0.396644 -0.0369232 0)
(0.392864 -0.0426685 0)
(0.387893 -0.0494077 0)
(0.381585 -0.0572793 0)
(0.372461 -0.0671074 0)
(0.412457 -0.000196829 0)
(0.412442 -0.000608303 0)
(0.412405 -0.00104832 0)
(0.412346 -0.00151084 0)
(0.412263 -0.00199028 0)
(0.412154 -0.00248198 0)
(0.41202 -0.00298324 0)
(0.411857 -0.00349414 0)
(0.411664 -0.0040182 0)
(0.41144 -0.00456282 0)
(0.41118 -0.00513946 0)
(0.410883 -0.00576337 0)
(0.410542 -0.0064531 0)
(0.41015 -0.00722975 0)
(0.409698 -0.00811641 0)
(0.409174 -0.00913789 0)
(0.408562 -0.0103212 0)
(0.407845 -0.0116961 0)
(0.406996 -0.0132957 0)
(0.405986 -0.0151561 0)
(0.404773 -0.0173166 0)
(0.403306 -0.0198188 0)
(0.401516 -0.0227071 0)
(0.399313 -0.0260299 0)
(0.396578 -0.0298398 0)
(0.393139 -0.0341973 0)
(0.388798 -0.0391696 0)
(0.383143 -0.044851 0)
(0.376014 -0.0512949 0)
(0.36571 -0.0589054 0)
(0.412456 -0.000189286 0)
(0.412436 -0.000584794 0)
(0.41239 -0.00100716 0)
(0.412314 -0.00145035 0)
(0.412207 -0.00190897 0)
(0.412069 -0.00237861 0)
(0.411897 -0.00285671 0)
(0.41169 -0.00334329 0)
(0.411447 -0.00384164 0)
(0.411164 -0.00435868 0)
(0.410839 -0.00490517 0)
(0.410467 -0.00549537 0)
(0.410044 -0.00614653 0)
(0.409561 -0.00687817 0)
(0.409008 -0.00771141 0)
(0.408372 -0.00866882 0)
(0.407635 -0.00977458 0)
(0.406778 -0.011055 0)
(0.405773 -0.0125384 0)
(0.404588 -0.0142551 0)
(0.40318 -0.0162362 0)
(0.401493 -0.0185128 0)
(0.399457 -0.0211152 0)
(0.396978 -0.0240721 0)
(0.393936 -0.0274088 0)
(0.390156 -0.0311459 0)
(0.385437 -0.0352946 0)
(0.379371 -0.0398551 0)
(0.371789 -0.0447958 0)
(0.361007 -0.050072 0)
(0.412455 -0.000179965 0)
(0.412432 -0.000555744 0)
(0.412376 -0.00095626 0)
(0.412284 -0.00137553 0)
(0.412156 -0.00180844 0)
(0.41199 -0.00225099 0)
(0.411784 -0.00270086 0)
(0.411536 -0.00315801 0)
(0.411244 -0.00362544 0)
(0.410906 -0.00410959 0)
(0.41052 -0.00462046 0)
(0.41008 -0.00517122 0)
(0.409581 -0.00577769 0)
(0.409013 -0.00645761 0)
(0.408367 -0.00723002 0)
(0.407628 -0.00811507 0)
(0.406779 -0.00913407 0)
(0.405796 -0.0103096 0)
(0.404654 -0.0116655 0)
(0.403318 -0.0132258 0)
(0.401743 -0.0150137 0)
(0.399875 -0.0170501 0)
(0.397644 -0.0193516 0)
(0.394959 -0.0219279 0)
(0.391703 -0.0247783 0)
(0.387712 -0.0278862 0)
(0.382795 -0.0312102 0)
(0.376589 -0.0346636 0)
(0.368917 -0.0381399 0)
(0.358329 -0.0411831 0)
(0.412454 -0.000169074 0)
(0.412428 -0.000521778 0)
(0.412364 -0.000896603 0)
(0.412258 -0.0012876 0)
(0.412111 -0.00169013 0)
(0.411919 -0.00210085 0)
(0.411681 -0.00251772 0)
(0.411394 -0.0029407 0)
(0.411058 -0.00337245 0)
(0.41067 -0.00381889 0)
(0.410227 -0.00428915 0)
(0.409724 -0.00479525 0)
(0.409155 -0.00535146 0)
(0.408511 -0.00597368 0)
(0.407781 -0.00667885 0)
(0.40695 -0.00748463 0)
(0.405999 -0.00840939 0)
(0.404907 -0.00947209 0)
(0.403646 -0.0106919 0)
(0.402181 -0.012087 0)
(0.40047 -0.0136735 0)
(0.398459 -0.0154628 0)
(0.396083 -0.0174589 0)
(0.393257 -0.0196552 0)
(0.389875 -0.0220279 0)
(0.385794 -0.0245288 0)
(0.380845 -0.0270728 0)
(0.374737 -0.0295022 0)
(0.367299 -0.0316536 0)
(0.357455 -0.0327482 0)
(0.412453 -0.000156885 0)
(0.412424 -0.000483698 0)
(0.412354 -0.000829369 0)
(0.412237 -0.00118799 0)
(0.412072 -0.00155576 0)
(0.411857 -0.00193017 0)
(0.411589 -0.00230957 0)
(0.411269 -0.00269387 0)
(0.410892 -0.00308552 0)
(0.410459 -0.00348992 0)
(0.409964 -0.0039153 0)
(0.409404 -0.00437239 0)
(0.408773 -0.00487383 0)
(0.40806 -0.00543362 0)
(0.407254 -0.00606652 0)
(0.406342 -0.00678774 0)
(0.405303 -0.00761275 0)
(0.404117 -0.00855701 0)
(0.402755 -0.0096354 0)
(0.401184 -0.010861 0)
(0.399364 -0.0122431 0)
(0.397246 -0.0137852 0)
(0.39477 -0.0154811 0)
(0.391861 -0.0173107 0)
(0.38843 -0.0192326 0)
(0.384362 -0.0211744 0)
(0.379518 -0.0230199 0)
(0.373698 -0.0245621 0)
(0.366746 -0.025603 0)
(0.358037 -0.0251584 0)
(0.412453 -0.000143777 0)
(0.412422 -0.000442574 0)
(0.412347 -0.000755947 0)
(0.412221 -0.00107826 0)
(0.412041 -0.00140718 0)
(0.411805 -0.00174136 0)
(0.411512 -0.00207937 0)
(0.411161 -0.00242091 0)
(0.410749 -0.00276817 0)
(0.410274 -0.00312608 0)
(0.409734 -0.00350205 0)
(0.409123 -0.00390552 0)
(0.408436 -0.00434753 0)
(0.407663 -0.0048402 0)
(0.406791 -0.00539614 0)
(0.405808 -0.00602814 0)
(0.404694 -0.00674889 0)
(0.403427 -0.00757063 0)
(0.401982 -0.00850441 0)
(0.400327 -0.00955873 0)
(0.398425 -0.0107377 0)
(0.39623 -0.0120382 0)
(0.393692 -0.0134466 0)
(0.39075 -0.0149331 0)
(0.387332 -0.0164448 0)
(0.383354 -0.0178944 0)
(0.378718 -0.0191481 0)
(0.373316 -0.0199746 0)
(0.367015 -0.0201625 0)
(0.359646 -0.0186506 0)
(0.412453 -0.000130332 0)
(0.412422 -0.000399987 0)
(0.412344 -0.000678084 0)
(0.412212 -0.000959931 0)
(0.41202 -0.00124585 0)
(0.411766 -0.00153611 0)
(0.411451 -0.00182954 0)
(0.411073 -0.00212566 0)
(0.41063 -0.00242624 0)
(0.410121 -0.00273555 0)
(0.409541 -0.00305995 0)
(0.408886 -0.00340753 0)
(0.408151 -0.0037877 0)
(0.407325 -0.00421067 0)
(0.406398 -0.00468697 0)
(0.405354 -0.00522711 0)
(0.404177 -0.00584125 0)
(0.402844 -0.00653876 0)
(0.401333 -0.00732738 0)
(0.399612 -0.0082119 0)
(0.397648 -0.00919232 0)
(0.395404 -0.0102612 0)
(0.392836 -0.0113999 0)
(0.389897 -0.0125737 0)
(0.386536 -0.0137241 0)
(0.382702 -0.0147586 0)
(0.378333 -0.0155395 0)
(0.373415 -0.0158355 0)
(0.367843 -0.0154422 0)
(0.361847 -0.0133382 0)
(0.412453 -0.000117453 0)
(0.412425 -0.000358155 0)
(0.412349 -0.000598362 0)
(0.412213 -0.000835749 0)
(0.412011 -0.00107435 0)
(0.411743 -0.00131578 0)
(0.411408 -0.00155901 0)
(0.411008 -0.00180381 0)
(0.410538 -0.00205211 0)
(0.409998 -0.00230763 0)
(0.409385 -0.00257566 0)
(0.408693 -0.00286291 0)
(0.407917 -0.00317717 0)
(0.407048 -0.00352682 0)
(0.406074 -0.00392037 0)
(0.404981 -0.00436608 0)
(0.403752 -0.00487174 0)
(0.402367 -0.00544414 0)
(0.400803 -0.00608822 0)
(0.399034 -0.00680587 0)
(0.397028 -0.00759434 0)
(0.394755 -0.00844371 0)
(0.39218 -0.00933345 0)
(0.38927 -0.0102277 0)
(0.385992 -0.0110689 0)
(0.382327 -0.0117678 0)
(0.378249 -0.0121949 0)
(0.37382 -0.0121387 0)
(0.36897 -0.0114181 0)
(0.364231 -0.0091396 0)
(0.412455 -0.000106969 0)
(0.412432 -0.000318876 0)
(0.412364 -0.000518059 0)
(0.412229 -0.000709756 0)
(0.412021 -0.00090229 0)
(0.411741 -0.00109708 0)
(0.411392 -0.00129212 0)
(0.410973 -0.00148701 0)
(0.410483 -0.0016837 0)
(0.409918 -0.00188552 0)
(0.409277 -0.00209681 0)
(0.408555 -0.00232294 0)
(0.407747 -0.00257008 0)
(0.406842 -0.00284479 0)
(0.40583 -0.00315371 0)
(0.404698 -0.00350319 0)
(0.403428 -0.0038991 0)
(0.402003 -0.00434631 0)
(0.400401 -0.0048475 0)
(0.398598 -0.00540238 0)
(0.396567 -0.0060067 0)
(0.394282 -0.00664985 0)
(0.391717 -0.00731199 0)
(0.38885 -0.00796 0)
(0.385668 -0.00854214 0)
(0.382175 -0.00898022 0)
(0.378379 -0.0091635 0)
(0.374396 -0.00891633 0)
(0.370197 -0.00809792 0)
(0.366494 -0.00600745 0)
(0.412461 -0.000105819 0)
(0.412451 -0.000283404 0)
(0.412395 -0.000425763 0)
(0.412261 -0.000557171 0)
(0.412045 -0.000691723 0)
(0.411756 -0.00082992 0)
(0.411398 -0.000969163 0)
(0.410967 -0.00110875 0)
(0.410462 -0.0012498 0)
(0.40988 -0.00139455 0)
(0.40922 -0.00154618 0)
(0.408477 -0.00170875 0)
(0.407645 -0.00188701 0)
(0.406716 -0.00208593 0)
(0.405679 -0.00231028 0)
(0.404521 -0.00256433 0)
(0.403225 -0.00285195 0)
(0.401776 -0.00317636 0)
(0.400152 -0.00353819 0)
(0.398331 -0.00393549 0)
(0.396289 -0.00436381 0)
(0.394006 -0.0048135 0)
(0.391463 -0.0052677 0)
(0.388648 -0.00569901 0)
(0.385561 -0.00606586 0)
(0.382226 -0.00630515 0)
(0.378677 -0.00633129 0)
(0.375055 -0.00600337 0)
(0.371379 -0.00524166 0)
(0.368404 -0.00354643 0)
(0.41248 -0.0001354 0)
(0.412506 -0.000303278 0)
(0.41245 -0.000400697 0)
(0.412308 -0.00048038 0)
(0.412082 -0.000560942 0)
(0.411782 -0.000642791 0)
(0.411408 -0.000724711 0)
(0.410958 -0.000806864 0)
(0.41043 -0.000889943 0)
(0.409825 -0.000975293 0)
(0.409142 -0.00106519 0)
(0.40838 -0.00116258 0)
(0.407532 -0.0012706 0)
(0.406587 -0.00139221 0)
(0.405535 -0.00153014 0)
(0.404359 -0.00168687 0)
(0.403043 -0.00186448 0)
(0.401567 -0.00206414 0)
(0.399901 -0.00228564 0)
(0.398033 -0.00252708 0)
(0.395943 -0.0027844 0)
(0.393615 -0.00305016 0)
(0.391037 -0.00331188 0)
(0.388209 -0.00354978 0)
(0.385147 -0.00373503 0)
(0.381891 -0.00382548 0)
(0.378517 -0.00376399 0)
(0.375146 -0.00345894 0)
(0.371996 -0.0028482 0)
(0.369023 -0.00152832 0)
(0.412263 -8.11177e-05 0)
(0.412079 -0.000169615 0)
(0.411739 -0.00021365 0)
(0.411271 -0.000247186 0)
(0.410724 -0.000278804 0)
(0.410113 -0.000307975 0)
(0.409435 -0.000335088 0)
(0.408684 -0.000361784 0)
(0.40786 -0.000389753 0)
(0.40696 -0.000420292 0)
(0.40598 -0.000454118 0)
(0.404914 -0.000491457 0)
(0.403752 -0.000532459 0)
(0.402484 -0.000577544 0)
(0.401097 -0.000627408 0)
(0.399576 -0.000682765 0)
(0.397904 -0.000744062 0)
(0.396063 -0.000811317 0)
(0.394034 -0.000885019 0)
(0.3918 -0.000965234 0)
(0.389344 -0.00105037 0)
(0.386656 -0.00113746 0)
(0.383734 -0.00122172 0)
(0.380593 -0.00129591 0)
(0.377269 -0.00134881 0)
(0.373831 -0.00136362 0)
(0.370396 -0.00132017 0)
(0.367148 -0.00117212 0)
(0.364344 -0.000987819 0)
(0.361846 -3.82086e-06 0)
(0.49029 -0.00677401 -1.00804e-19)
(0.494773 -0.0102601 -1.00188e-19)
(0.498635 -0.0144447 -1.42678e-18)
(0.501673 -0.0189841 -4.09584e-19)
(0.504322 -0.0237814 4.15431e-19)
(0.506771 -0.0288075 0)
(0.509055 -0.0340813 0)
(0.511228 -0.039643 4.225e-19)
(0.513366 -0.045531 -4.29454e-19)
(0.515528 -0.051778 -8.58874e-19)
(0.51774 -0.0584173 8.73608e-19)
(0.520009 -0.0654914 0)
(0.522338 -0.0730535 -8.78823e-19)
(0.524737 -0.0811757 8.94798e-19)
(0.527213 -0.0899463 0)
(0.529779 -0.0994735 1.79116e-18)
(0.532451 -0.109888 8.97186e-19)
(0.535244 -0.121351 8.86118e-19)
(0.538172 -0.134063 8.97086e-19)
(0.541243 -0.148274 8.77131e-19)
(0.544459 -0.164304 -8.84024e-19)
(0.547821 -0.182557 2.65365e-18)
(0.551291 -0.203565 0)
(0.55486 -0.228001 -1.65324e-18)
(0.558307 -0.256835 7.69403e-19)
(0.561677 -0.291219 -1.53044e-18)
(0.564231 -0.332561 -1.99795e-18)
(0.56475 -0.386738 0)
(0.567802 -0.436848 0)
(0.546001 -0.563274 -2.33309e-20)
(0.494379 -0.0153471 -1.65121e-18)
(0.497212 -0.0191062 0)
(0.499514 -0.0235278 0)
(0.501374 -0.0282121 -1.69091e-18)
(0.503118 -0.0330856 1.707e-18)
(0.504882 -0.0381857 1.7233e-18)
(0.50667 -0.0435635 -4.31858e-19)
(0.508486 -0.049253 4.3911e-19)
(0.510345 -0.0552761 1.33529e-18)
(0.51225 -0.0616576 2.24125e-18)
(0.514185 -0.0684345 -8.97032e-19)
(0.516136 -0.0756579 1.83795e-18)
(0.518098 -0.083392 9.22254e-19)
(0.520073 -0.0917157 9.44529e-19)
(0.522068 -0.100721 9.39394e-19)
(0.524086 -0.110517 1.89933e-18)
(0.526126 -0.121235 0)
(0.528183 -0.133037 -9.45205e-19)
(0.530244 -0.146121 -9.70585e-19)
(0.532286 -0.160735 0)
(0.53427 -0.177189 9.4289e-19)
(0.536144 -0.195875 9.69403e-19)
(0.537802 -0.2173 -1.91621e-18)
(0.539143 -0.242092 0)
(0.539813 -0.271151 8.58967e-19)
(0.539767 -0.305447 8.81294e-19)
(0.537763 -0.346613 -1.6507e-18)
(0.533442 -0.39784 6.21375e-19)
(0.528857 -0.450103 -6.43092e-19)
(0.500128 -0.563949 1.28422e-19)
(0.492848 -0.0235853 1.68095e-18)
(0.494745 -0.0272504 0)
(0.496399 -0.0315894 -2.13628e-19)
(0.498013 -0.0362529 3.68257e-18)
(0.499675 -0.0411605 -1.30832e-18)
(0.50138 -0.0463272 -2.64543e-18)
(0.503085 -0.0517782 2.24358e-18)
(0.504768 -0.057532 -4.50027e-19)
(0.506425 -0.0636129 -1.35974e-18)
(0.508052 -0.0700593 -4.39011e-19)
(0.509645 -0.0769219 4.68562e-19)
(0.511203 -0.0842595 -2.81829e-18)
(0.51273 -0.0921383 1.90982e-18)
(0.514229 -0.100634 -2.88784e-18)
(0.515693 -0.109836 0)
(0.517112 -0.119851 -1.95612e-18)
(0.518466 -0.13081 0)
(0.519729 -0.142871 0)
(0.520863 -0.15623 2.00122e-18)
(0.521816 -0.171126 0)
(0.522514 -0.18786 0)
(0.522852 -0.2068 -2.00999e-18)
(0.522665 -0.228424 1.99684e-18)
(0.521765 -0.253309 0)
(0.519696 -0.282277 0)
(0.516301 -0.316162 -1.85587e-18)
(0.510011 -0.356578 6.87764e-19)
(0.501105 -0.405173 -5.06619e-19)
(0.48856 -0.458546 -4.07709e-19)
(0.454307 -0.559892 0)
(0.490865 -0.0321003 -5.37059e-20)
(0.49241 -0.0358635 -5.40535e-20)
(0.49376 -0.0402609 1.66047e-18)
(0.495193 -0.0449688 -3.56457e-18)
(0.496666 -0.0499128 2.25923e-19)
(0.498097 -0.0551087 4.54756e-19)
(0.49946 -0.0605895 -4.42432e-19)
(0.500765 -0.0663862 0)
(0.502023 -0.0725337 2.37773e-18)
(0.503233 -0.0790744 -4.31778e-18)
(0.504395 -0.0860565 1.95781e-18)
(0.505501 -0.0935335 9.80741e-19)
(0.506543 -0.101567 -3.01333e-18)
(0.507505 -0.11023 0)
(0.508366 -0.119611 0)
(0.5091 -0.129818 2.09831e-18)
(0.509671 -0.140977 2.12721e-18)
(0.510035 -0.153245 1.05693e-18)
(0.510132 -0.166808 -1.42646e-20)
(0.509881 -0.181894 -1.09495e-18)
(0.50917 -0.198783 0)
(0.50785 -0.217818 0)
(0.505698 -0.239432 -1.17997e-18)
(0.502454 -0.264143 -3.41542e-18)
(0.497575 -0.292677 0)
(0.490815 -0.325721 -1.21682e-18)
(0.480347 -0.364762 1.97201e-18)
(0.467026 -0.410554 -3.75634e-18)
(0.446739 -0.462816 5.11495e-19)
(0.408795 -0.55151 0)
(0.488018 -0.0405799 0)
(0.489206 -0.0443813 1.80024e-18)
(0.490179 -0.0487784 -1.58102e-18)
(0.4913 -0.0534889 1.5998e-18)
(0.492468 -0.0584563 2.32261e-19)
(0.493562 -0.0636982 -2.36431e-19)
(0.49457 -0.0692454 -1.90204e-18)
(0.495514 -0.0751259 0)
(0.4964 -0.0813702 2.90106e-20)
(0.497215 -0.0880161 1.98298e-18)
(0.497942 -0.0951087 -2.51722e-18)
(0.498567 -0.102701 2.59442e-18)
(0.499069 -0.110856 2.59309e-18)
(0.499426 -0.119647 -5.32487e-19)
(0.499606 -0.129162 3.25815e-18)
(0.499574 -0.139505 -2.13932e-18)
(0.499279 -0.150799 -2.23286e-18)
(0.49866 -0.163189 -1.13675e-18)
(0.497634 -0.17685 0)
(0.496094 -0.191993 0)
(0.493893 -0.208875 0)
(0.490843 -0.227803 1.19316e-18)
(0.486672 -0.249162 3.65719e-18)
(0.481061 -0.2734 1.18629e-18)
(0.473402 -0.30114 2.49041e-18)
(0.463373 -0.332923 -1.46735e-18)
(0.448984 -0.370082 2.63352e-18)
(0.431486 -0.412719 -2.87644e-19)
(0.404182 -0.462429 2.05384e-18)
(0.364037 -0.538909 3.113e-18)
(0.484292 -0.0489944 -1.83242e-18)
(0.485134 -0.0528535 -1.83893e-18)
(0.485733 -0.0572888 -1.88885e-18)
(0.486534 -0.0620436 0)
(0.487392 -0.0670657 0)
(0.488146 -0.0723686 -1.97445e-18)
(0.488782 -0.077979 0)
(0.48933 -0.083924 1.53457e-18)
(0.489788 -0.090235 -3.59631e-18)
(0.490135 -0.0969507 2.10888e-18)
(0.49035 -0.104118 1.61647e-18)
(0.490411 -0.111789 -4.32411e-18)
(0.490295 -0.120025 2.51639e-21)
(0.48997 -0.128899 -1.708e-18)
(0.489397 -0.138491 5.74787e-20)
(0.488524 -0.1489 -2.29899e-18)
(0.487289 -0.160239 -6.92152e-20)
(0.485611 -0.172643 2.4637e-18)
(0.483387 -0.186271 -1.28684e-18)
(0.480485 -0.201315 -1.26768e-18)
(0.476731 -0.218001 2.63722e-18)
(0.471902 -0.236598 0)
(0.46569 -0.257434 -2.6317e-18)
(0.457724 -0.280884 0)
(0.44736 -0.30746 -2.91788e-18)
(0.434207 -0.337567 2.78022e-18)
(0.416198 -0.372345 2.62254e-19)
(0.394849 -0.411401 2.85159e-18)
(0.361491 -0.457362 -3.58522e-18)
(0.320412 -0.522182 1.33467e-18)
(0.479572 -0.0572802 1.81372e-18)
(0.48005 -0.0611998 -5.9658e-20)
(0.480251 -0.0656712 2.29754e-18)
(0.480696 -0.0704589 7.49135e-19)
(0.4812 -0.0755152 0)
(0.481567 -0.0808536 2.02534e-18)
(0.481781 -0.0865009 1.5666e-18)
(0.481877 -0.092485 -2.62415e-18)
(0.481854 -0.0988374 1.04479e-18)
(0.481682 -0.105596 -1.06267e-18)
(0.481334 -0.112804 -2.21228e-18)
(0.480783 -0.120513 2.25528e-18)
(0.479997 -0.128778 -5.98356e-19)
(0.478937 -0.137667 1.75278e-18)
(0.477551 -0.147257 -5.58333e-19)
(0.475779 -0.157635 -6.22448e-19)
(0.473542 -0.168907 3.80092e-18)
(0.470747 -0.181193 -3.89355e-18)
(0.467273 -0.194636 2.62803e-18)
(0.462966 -0.2094 7.1808e-19)
(0.457632 -0.225681 -2.05747e-18)
(0.45102 -0.243703 1.49073e-18)
(0.442794 -0.263735 0)
(0.43255 -0.286077 -7.70289e-19)
(0.419623 -0.311126 3.90765e-18)
(0.403573 -0.339159 0)
(0.382334 -0.371099 -5.97179e-18)
(0.357583 -0.40619 9.10257e-19)
(0.3193 -0.44753 0)
(0.27835 -0.501456 -3.63456e-18)
(0.473735 -0.0653011 -9.84623e-19)
(0.473824 -0.0692755 -1.24219e-19)
(0.4736 -0.0737709 -7.68925e-19)
(0.473656 -0.0785747 -1.15092e-18)
(0.473772 -0.0836452 2.61822e-19)
(0.473718 -0.0889963 -2.67178e-19)
(0.473472 -0.094654 -1.07785e-18)
(0.473078 -0.100645 -1.12258e-18)
(0.47253 -0.106999 1.12051e-18)
(0.471795 -0.113751 -5.65895e-19)
(0.470837 -0.120943 -5.91281e-19)
(0.469624 -0.128621 0)
(0.468117 -0.136837 1.83883e-18)
(0.466269 -0.145653 -6.34099e-19)
(0.464021 -0.155138 -1.28066e-18)
(0.4613 -0.16537 -6.66611e-19)
(0.458021 -0.176443 -6.62576e-19)