/*--------------------------------*- C++ -*----------------------------------*\
  =========                 |
  \\      /  F ield         | OpenFOAM: The Open Source CFD Toolbox
   \\    /   O peration     | Website:  https://openfoam.org
    \\  /    A nd           | Version:  11
     \\/     M anipulation  |
\*---------------------------------------------------------------------------*/
FoamFile
{
    format      ascii;
    class       volVectorField;
    location    "5";
    object      U;
}
// * * * * * * * * * * * * * * * * * * * * * * * * * * * * * * * * * * * * * //

dimensions      [0 1 -1 0 0 0 0];

internalField   nonuniform List<vector> 
12600
(
(0.412113 0.00010672 0)
(0.411843 0.000181282 0)
(0.411431 0.000191747 0)
(0.41096 0.000194959 0)
(0.410492 0.000199263 0)
(0.410032 0.000202204 0)
(0.409575 0.000203704 0)
(0.409119 0.00020449 0)
(0.408667 0.000204774 0)
(0.408219 0.000204493 0)
(0.407779 0.00020359 0)
(0.407348 0.000202001 0)
(0.406928 0.000199662 0)
(0.406522 0.000196479 0)
(0.406132 0.000192299 0)
(0.405763 0.000186946 0)
(0.40542 0.000179972 0)
(0.405107 0.000171203 0)
(0.404832 0.00016035 0)
(0.404604 0.000147039 0)
(0.404435 0.000130697 0)
(0.404338 0.000111815 0)
(0.40433 8.595e-05 0)
(0.404432 5.36523e-05 0)
(0.404669 9.89918e-06 0)
(0.405077 -4.22485e-05 0)
(0.4057 -0.000108831 0)
(0.406599 -0.000193428 0)
(0.407954 -0.000331529 0)
(0.408683 -0.00087108 0)
(0.412492 0.000153771 0)
(0.412639 0.000280728 0)
(0.412776 0.000262427 0)
(0.412827 0.000255001 0)
(0.412871 0.00025847 0)
(0.412922 0.000259287 0)
(0.412976 0.000257266 0)
(0.413031 0.000253922 0)
(0.413089 0.000249425 0)
(0.413152 0.000243706 0)
(0.413222 0.000236716 0)
(0.413301 0.000228297 0)
(0.41339 0.000218208 0)
(0.413492 0.000206127 0)
(0.413609 0.000191592 0)
(0.413746 0.000173642 0)
(0.413906 0.000151399 0)
(0.414095 0.000125548 0)
(0.414318 9.31196e-05 0)
(0.414585 5.2759e-05 0)
(0.414905 3.75246e-06 0)
(0.41529 -5.64005e-05 0)
(0.415754 -0.00013046 0)
(0.416316 -0.000221816 0)
(0.416999 -0.000334304 0)
(0.417821 -0.000475288 0)
(0.418849 -0.000649918 0)
(0.419976 -0.000900265 0)
(0.421644 -0.00116947 0)
(0.42207 -0.00212071 0)
(0.41248 8.35116e-05 0)
(0.412555 0.000149984 0)
(0.412648 0.000155272 0)
(0.412715 0.000157947 0)
(0.412767 0.000164678 0)
(0.412819 0.000167861 0)
(0.412873 0.000166706 0)
(0.412928 0.00016334 0)
(0.412986 0.000157918 0)
(0.413048 0.000150289 0)
(0.413118 0.000140487 0)
(0.413196 0.000128296 0)
(0.413284 0.000113375 0)
(0.413386 9.52418e-05 0)
(0.413502 7.3438e-05 0)
(0.413634 4.68466e-05 0)
(0.413788 1.43057e-05 0)
(0.413968 -2.74128e-05 0)
(0.414179 -7.9614e-05 0)
(0.41443 -0.000142997 0)
(0.41473 -0.000220644 0)
(0.415091 -0.00031602 0)
(0.415527 -0.000433421 0)
(0.416056 -0.000577868 0)
(0.416697 -0.000755211 0)
(0.417475 -0.000975644 0)
(0.418424 -0.00124535 0)
(0.419551 -0.00160187 0)
(0.420895 -0.00204046 0)
(0.422437 -0.00242883 0)
(0.412473 5.43039e-05 0)
(0.412523 0.00012902 0)
(0.412598 0.00015631 0)
(0.412662 0.000166445 0)
(0.412712 0.000174662 0)
(0.412761 0.0001817 0)
(0.412813 0.000180614 0)
(0.412867 0.000176667 0)
(0.412923 0.00016977 0)
(0.412984 0.000159588 0)
(0.413052 0.000145908 0)
(0.413128 0.000128615 0)
(0.413214 0.000107452 0)
(0.413313 8.17694e-05 0)
(0.413426 5.11284e-05 0)
(0.413555 1.45248e-05 0)
(0.413704 -2.96497e-05 0)
(0.413878 -8.51554e-05 0)
(0.414083 -0.000153687 0)
(0.414326 -0.000238848 0)
(0.414616 -0.000343952 0)
(0.414966 -0.000473242 0)
(0.415387 -0.000632169 0)
(0.415897 -0.000827697 0)
(0.416515 -0.00106827 0)
(0.417265 -0.0013655 0)
(0.418173 -0.00173098 0)
(0.419271 -0.00218255 0)
(0.420576 -0.00273125 0)
(0.422214 -0.00316805 0)
(0.412468 3.82191e-05 0)
(0.412503 9.77788e-05 0)
(0.412561 0.000122979 0)
(0.412618 0.000129222 0)
(0.412667 0.000132523 0)
(0.412714 0.000134358 0)
(0.412764 0.000132367 0)
(0.412816 0.000125809 0)
(0.412871 0.000115043 0)
(0.412931 0.000100477 0)
(0.412997 8.23968e-05 0)
(0.413071 5.97925e-05 0)
(0.413155 3.28674e-05 0)
(0.41325 9.77368e-07 0)
(0.413359 -3.78828e-05 0)
(0.413484 -8.45109e-05 0)
(0.413627 -0.00014152 0)
(0.413795 -0.000211105 0)
(0.413992 -0.000297383 0)
(0.414225 -0.000404119 0)
(0.414504 -0.000535765 0)
(0.414838 -0.00069786 0)
(0.41524 -0.000897164 0)
(0.415726 -0.00114203 0)
(0.416315 -0.00144268 0)
(0.41703 -0.00181202 0)
(0.417894 -0.00226489 0)
(0.41895 -0.0028131 0)
(0.420202 -0.00348891 0)
(0.42185 -0.00412071 0)
(0.412466 2.72453e-05 0)
(0.412491 7.31667e-05 0)
(0.412537 9.76999e-05 0)
(0.412589 0.000106982 0)
(0.412636 0.000112171 0)
(0.412681 0.000115914 0)
(0.412729 0.000115398 0)
(0.41278 0.000109529 0)
(0.412834 9.86362e-05 0)
(0.412891 8.28602e-05 0)
(0.412955 6.2037e-05 0)
(0.413027 3.60092e-05 0)
(0.413108 4.62203e-06 0)
(0.413199 -3.23723e-05 0)
(0.413303 -7.71595e-05 0)
(0.413423 -0.000131519 0)
(0.41356 -0.000198074 0)
(0.413719 -0.00028 0)
(0.413906 -0.000381771 0)
(0.414127 -0.000508206 0)
(0.41439 -0.000664646 0)
(0.414705 -0.000857391 0)
(0.415084 -0.00109422 0)
(0.415542 -0.00138493 0)
(0.416096 -0.00174177 0)
(0.416768 -0.00217951 0)
(0.417581 -0.00271642 0)
(0.418581 -0.00336519 0)
(0.419768 -0.00417155 0)
(0.421369 -0.00498589 0)
(0.412464 1.95681e-05 0)
(0.412483 5.43578e-05 0)
(0.412521 7.59817e-05 0)
(0.412567 8.53976e-05 0)
(0.412611 8.94834e-05 0)
(0.412655 9.09991e-05 0)
(0.4127 8.82739e-05 0)
(0.412749 7.99931e-05 0)
(0.412801 6.60275e-05 0)
(0.412856 4.64432e-05 0)
(0.412918 2.12165e-05 0)
(0.412986 -9.90765e-06 0)
(0.413064 -4.73595e-05 0)
(0.413151 -9.16714e-05 0)
(0.41325 -0.000143947 0)
(0.413362 -0.000207127 0)
(0.413492 -0.00028445 0)
(0.413642 -0.000379635 0)
(0.413817 -0.0004974 0)
(0.414023 -0.000643063 0)
(0.414269 -0.000822789 0)
(0.414562 -0.00104402 0)
(0.414915 -0.00131586 0)
(0.415339 -0.00164956 0)
(0.415852 -0.0020591 0)
(0.416474 -0.00256132 0)
(0.417227 -0.00317748 0)
(0.418159 -0.00392495 0)
(0.419267 -0.00485324 0)
(0.420781 -0.00585687 0)
(0.412463 1.38298e-05 0)
(0.412479 3.92907e-05 0)
(0.41251 5.66375e-05 0)
(0.41255 6.48713e-05 0)
(0.412592 6.79255e-05 0)
(0.412633 6.81685e-05 0)
(0.412677 6.45696e-05 0)
(0.412723 5.55108e-05 0)
(0.412773 4.0318e-05 0)
(0.412827 1.88815e-05 0)
(0.412886 -8.84912e-06 0)
(0.412951 -4.29603e-05 0)
(0.413025 -8.38792e-05 0)
(0.413107 -0.00013261 0)
(0.4132 -0.000190565 0)
(0.413305 -0.000260569 0)
(0.413426 -0.000346173 0)
(0.413565 -0.000451709 0)
(0.413727 -0.000582484 0)
(0.413917 -0.00074459 0)
(0.414143 -0.000945006 0)
(0.414411 -0.00119197 0)
(0.414733 -0.00149551 0)
(0.41512 -0.00186806 0)
(0.415587 -0.00232527 0)
(0.416153 -0.0028862 0)
(0.416838 -0.0035753 0)
(0.417688 -0.00441562 0)
(0.4187 -0.00545947 0)
(0.4201 -0.0066418 0)
(0.412463 9.29057e-06 0)
(0.412475 2.68649e-05 0)
(0.412502 3.95996e-05 0)
(0.412538 4.59694e-05 0)
(0.412576 4.78866e-05 0)
(0.412616 4.68641e-05 0)
(0.412657 4.20017e-05 0)
(0.412702 3.15532e-05 0)
(0.412749 1.44989e-05 0)
(0.412801 -9.452e-06 0)
(0.412856 -4.03815e-05 0)
(0.412918 -7.83903e-05 0)
(0.412987 -0.000123828 0)
(0.413064 -0.00017772 0)
(0.41315 -0.000241766 0)
(0.413247 -0.000318903 0)
(0.413358 -0.00041308 0)
(0.413486 -0.000529131 0)
(0.413633 -0.00067278 0)
(0.413805 -0.000850594 0)
(0.414009 -0.00107016 0)
(0.41425 -0.00134047 0)
(0.414538 -0.00167253 0)
(0.414884 -0.00208001 0)
(0.415299 -0.00258016 0)
(0.415802 -0.00319426 0)
(0.416411 -0.00394968 0)
(0.417167 -0.00487555 0)
(0.418068 -0.00602504 0)
(0.419329 -0.00737653 0)
(0.412462 5.58354e-06 0)
(0.412473 1.63699e-05 0)
(0.412496 2.45388e-05 0)
(0.412528 2.85671e-05 0)
(0.412564 2.90479e-05 0)
(0.412601 2.6647e-05 0)
(0.412641 2.04102e-05 0)
(0.412683 8.56979e-06 0)
(0.412728 -1.01082e-05 0)
(0.412777 -3.61024e-05 0)
(0.41283 -6.95049e-05 0)
(0.412888 -0.000110443 0)
(0.412952 -0.000159294 0)
(0.413023 -0.00021711 0)
(0.413102 -0.000285825 0)
(0.41319 -0.000368553 0)
(0.413291 -0.000469529 0)
(0.413405 -0.000593959 0)
(0.413537 -0.000747993 0)
(0.41369 -0.000938712 0)
(0.41387 -0.00117428 0)
(0.414081 -0.00146436 0)
(0.414333 -0.00182074 0)
(0.414634 -0.00225809 0)
(0.414993 -0.00279504 0)
(0.415428 -0.0034549 0)
(0.415952 -0.00426776 0)
(0.416604 -0.00526853 0)
(0.417379 -0.00651132 0)
(0.418476 -0.00801462 0)
(0.412462 2.4102e-06 0)
(0.412471 7.33067e-06 0)
(0.412492 1.1113e-05 0)
(0.412521 1.25152e-05 0)
(0.412554 1.13452e-05 0)
(0.412589 7.53374e-06 0)
(0.412626 -5.16081e-08 0)
(0.412667 -1.32173e-05 0)
(0.412709 -3.33749e-05 0)
(0.412755 -6.11823e-05 0)
(0.412805 -9.68144e-05 0)
(0.412859 -0.000140398 0)
(0.412918 -0.000192343 0)
(0.412982 -0.000253756 0)
(0.413054 -0.000326722 0)
(0.413133 -0.000414509 0)
(0.413222 -0.000521585 0)
(0.413323 -0.00065348 0)
(0.413438 -0.000816693 0)
(0.41357 -0.00101869 0)
(0.413725 -0.00126806 0)
(0.413905 -0.00157499 0)
(0.414118 -0.00195192 0)
(0.41437 -0.00241439 0)
(0.414671 -0.0029822 0)
(0.415032 -0.00368041 0)
(0.415465 -0.00454148 0)
(0.416003 -0.0056055 0)
(0.416639 -0.00692696 0)
(0.417549 -0.0085629 0)
(0.412462 -4.38899e-07 0)
(0.41247 -6.58503e-07 0)
(0.412488 -9.24321e-07 0)
(0.412515 -2.28106e-06 0)
(0.412545 -5.2811e-06 0)
(0.412579 -1.05321e-05 0)
(0.412614 -1.94248e-05 0)
(0.412652 -3.38478e-05 0)
(0.412693 -5.53506e-05 0)
(0.412736 -8.47273e-05 0)
(0.412782 -0.000122226 0)
(0.412831 -0.000167978 0)
(0.412885 -0.000222419 0)
(0.412943 -0.000286696 0)
(0.413007 -0.000362999 0)
(0.413076 -0.000454745 0)
(0.413154 -0.000566588 0)
(0.41324 -0.000704297 0)
(0.413337 -0.000874639 0)
(0.413448 -0.00108538 0)
(0.413576 -0.00134548 0)
(0.413723 -0.00166551 0)
(0.413896 -0.0020584 0)
(0.414098 -0.00254034 0)
(0.414336 -0.00313202 0)
(0.414619 -0.00385988 0)
(0.414956 -0.0047582 0)
(0.415371 -0.00587136 0)
(0.415857 -0.00725405 0)
(0.416559 -0.00899727 0)
(0.412462 -2.89928e-06 0)
(0.412469 -7.81829e-06 0)
(0.412486 -1.19464e-05 0)
(0.41251 -1.60287e-05 0)
(0.412539 -2.08971e-05 0)
(0.41257 -2.75947e-05 0)
(0.412604 -3.77471e-05 0)
(0.41264 -5.33306e-05 0)
(0.412678 -7.59918e-05 0)
(0.412718 -0.000106645 0)
(0.412761 -0.000145611 0)
(0.412806 -0.000193043 0)
(0.412854 -0.000249392 0)
(0.412905 -0.000315851 0)
(0.41296 -0.00039469 0)
(0.41302 -0.000489436 0)
(0.413085 -0.000604883 0)
(0.413156 -0.00074697 0)
(0.413236 -0.000922659 0)
(0.413324 -0.00113993 0)
(0.413424 -0.00140796 0)
(0.413538 -0.00173759 0)
(0.413668 -0.00214205 0)
(0.413818 -0.00263794 0)
(0.413991 -0.00324654 0)
(0.414194 -0.00399519 0)
(0.41443 -0.00491939 0)
(0.414716 -0.00606664 0)
(0.415043 -0.0074913 0)
(0.415521 -0.00931275 0)
(0.412462 -5.14462e-06 0)
(0.412468 -1.43379e-05 0)
(0.412484 -2.20944e-05 0)
(0.412506 -2.88858e-05 0)
(0.412533 -3.56459e-05 0)
(0.412563 -4.37512e-05 0)
(0.412595 -5.50736e-05 0)
(0.412629 -7.16815e-05 0)
(0.412665 -9.52866e-05 0)
(0.412702 -0.000126898 0)
(0.412741 -0.000166916 0)
(0.412781 -0.000215526 0)
(0.412824 -0.000273194 0)
(0.412868 -0.000341135 0)
(0.412915 -0.000421666 0)
(0.412964 -0.000518385 0)
(0.413017 -0.000636173 0)
(0.413073 -0.000781069 0)
(0.413134 -0.000960147 0)
(0.413199 -0.0011815 0)
(0.413271 -0.00145441 0)
(0.41335 -0.00178985 0)
(0.413437 -0.00220117 0)
(0.413534 -0.00270513 0)
(0.413642 -0.00332324 0)
(0.413762 -0.00408322 0)
(0.413895 -0.00502105 0)
(0.414048 -0.00618597 0)
(0.414212 -0.0076314 0)
(0.414452 -0.0094975 0)
(0.412461 -7.22756e-06 0)
(0.412468 -2.04103e-05 0)
(0.412482 -3.15874e-05 0)
(0.412503 -4.09892e-05 0)
(0.412529 -4.96127e-05 0)
(0.412557 -5.90786e-05 0)
(0.412588 -7.14612e-05 0)
(0.41262 -8.89215e-05 0)
(0.412653 -0.000113233 0)
(0.412687 -0.000145483 0)
(0.412723 -0.000186138 0)
(0.412759 -0.000235413 0)
(0.412795 -0.000293781 0)
(0.412833 -0.00036247 0)
(0.412871 -0.000443823 0)
(0.41291 -0.000541471 0)
(0.41295 -0.000660326 0)
(0.412991 -0.000806459 0)
(0.413032 -0.000986974 0)
(0.413075 -0.00120998 0)
(0.413118 -0.00148477 0)
(0.413162 -0.00182227 0)
(0.413206 -0.00223579 0)
(0.413249 -0.00274198 0)
(0.413291 -0.00336219 0)
(0.413328 -0.00412398 0)
(0.413358 -0.00506304 0)
(0.413377 -0.00622881 0)
(0.413375 -0.00767288 0)
(0.413372 -0.00954739 0)
(0.412461 -9.19504e-06 0)
(0.412467 -2.61591e-05 0)
(0.412481 -4.06072e-05 0)
(0.412502 -5.25251e-05 0)
(0.412526 -6.29331e-05 0)
(0.412553 -7.36562e-05 0)
(0.412582 -8.69565e-05 0)
(0.412612 -0.000105083 0)
(0.412643 -0.000129853 0)
(0.412675 -0.000162411 0)
(0.412706 -0.000203274 0)
(0.412738 -0.000252686 0)
(0.412769 -0.000311126 0)
(0.412799 -0.000379827 0)
(0.412829 -0.00046113 0)
(0.412858 -0.000558658 0)
(0.412885 -0.000677301 0)
(0.41291 -0.000823095 0)
(0.412933 -0.00100309 0)
(0.412952 -0.00122532 0)
(0.412967 -0.00149897 0)
(0.412976 -0.00183478 0)
(0.412977 -0.00224582 0)
(0.412968 -0.00274839 0)
(0.412943 -0.0033633 0)
(0.412899 -0.00411741 0)
(0.412826 -0.00504528 0)
(0.412713 -0.00619498 0)
(0.412547 -0.00761526 0)
(0.412303 -0.00946048 0)
(0.412461 -1.10993e-05 0)
(0.412467 -3.17273e-05 0)
(0.412481 -4.93289e-05 0)
(0.412501 -6.36336e-05 0)
(0.412524 -7.56959e-05 0)
(0.41255 -8.75528e-05 0)
(0.412578 -0.000101637 0)
(0.412606 -0.000120249 0)
(0.412635 -0.00014522 0)
(0.412664 -0.000177733 0)
(0.412692 -0.000218358 0)
(0.412719 -0.000267367 0)
(0.412745 -0.000325246 0)
(0.412768 -0.000393216 0)
(0.412789 -0.000473596 0)
(0.412807 -0.000569961 0)
(0.412822 -0.000687124 0)
(0.412832 -0.000831021 0)
(0.412836 -0.00100857 0)
(0.412833 -0.00122763 0)
(0.41282 -0.00149716 0)
(0.412794 -0.00182761 0)
(0.412753 -0.0022316 0)
(0.412692 -0.00272484 0)
(0.412603 -0.00332729 0)
(0.412479 -0.00406452 0)
(0.412307 -0.00496924 0)
(0.412067 -0.00608657 0)
(0.411743 -0.00746142 0)
(0.411268 -0.00924037 0)
(0.412461 -1.29959e-05 0)
(0.412467 -3.72634e-05 0)
(0.412481 -5.79434e-05 0)
(0.412501 -7.44942e-05 0)
(0.412524 -8.80463e-05 0)
(0.412549 -0.000100885 0)
(0.412575 -0.000115592 0)
(0.412602 -0.000134481 0)
(0.412629 -0.00015937 0)
(0.412655 -0.000191478 0)
(0.41268 -0.00023142 0)
(0.412703 -0.000279494 0)
(0.412723 -0.000336185 0)
(0.412739 -0.000402697 0)
(0.412752 -0.000481298 0)
(0.41276 -0.000575476 0)
(0.412762 -0.000689917 0)
(0.412757 -0.000830391 0)
(0.412743 -0.0010036 0)
(0.412718 -0.00121716 0)
(0.412677 -0.00147967 0)
(0.412619 -0.00180117 0)
(0.412537 -0.0021937 0)
(0.412425 -0.00267213 0)
(0.412274 -0.00325526 0)
(0.412073 -0.00396693 0)
(0.411807 -0.00483727 0)
(0.411447 -0.00590712 0)
(0.410975 -0.00721656 0)
(0.410288 -0.00889512 0)
(0.412461 -1.495e-05 0)
(0.412468 -4.29419e-05 0)
(0.412482 -6.66653e-05 0)
(0.412502 -8.52871e-05 0)
(0.412525 -0.000100111 0)
(0.41255 -0.000113748 0)
(0.412575 -0.00012891 0)
(0.4126 -0.000147858 0)
(0.412626 -0.000172378 0)
(0.412649 -0.000203717 0)
(0.412671 -0.000242533 0)
(0.412689 -0.000289142 0)
(0.412704 -0.000344027 0)
(0.412714 -0.00040836 0)
(0.412718 -0.000484342 0)
(0.412717 -0.000575337 0)
(0.412707 -0.000685856 0)
(0.412687 -0.000821436 0)
(0.412656 -0.000988505 0)
(0.412609 -0.00119432 0)
(0.412542 -0.00144708 0)
(0.412452 -0.00175626 0)
(0.41233 -0.00213317 0)
(0.41217 -0.0025917 0)
(0.411961 -0.00314917 0)
(0.411688 -0.00382735 0)
(0.411333 -0.00465324 0)
(0.410863 -0.00566231 0)
(0.410257 -0.00688905 0)
(0.409382 -0.00843827 0)
(0.412462 -1.70444e-05 0)
(0.412468 -4.8977e-05 0)
(0.412483 -7.57374e-05 0)
(0.412504 -9.62013e-05 0)
(0.412528 -0.000112029 0)
(0.412552 -0.000126266 0)
(0.412577 -0.000141697 0)
(0.412601 -0.000160464 0)
(0.412624 -0.000184307 0)
(0.412646 -0.000214515 0)
(0.412664 -0.00025178 0)
(0.412678 -0.000296422 0)
(0.412688 -0.00034891 0)
(0.412692 -0.000410374 0)
(0.412689 -0.000482921 0)
(0.412677 -0.000569756 0)
(0.412656 -0.000675165 0)
(0.412623 -0.000804398 0)
(0.412574 -0.000963531 0)
(0.412507 -0.0011594 0)
(0.412415 -0.00139971 0)
(0.412294 -0.00169328 0)
(0.412136 -0.00205059 0)
(0.411931 -0.00248436 0)
(0.411667 -0.00301029 0)
(0.411327 -0.00364778 0)
(0.410891 -0.00442034 0)
(0.410322 -0.00535744 0)
(0.409597 -0.00648755 0)
(0.408567 -0.00788542 0)
(0.412462 -1.93912e-05 0)
(0.412469 -5.56486e-05 0)
(0.412486 -8.54498e-05 0)
(0.412509 -0.000107435 0)
(0.412533 -0.000123936 0)
(0.412557 -0.000138562 0)
(0.412581 -0.000154067 0)
(0.412604 -0.000172394 0)
(0.412626 -0.00019524 0)
(0.412645 -0.000223943 0)
(0.412661 -0.000259222 0)
(0.412671 -0.000301399 0)
(0.412676 -0.000350936 0)
(0.412674 -0.000408916 0)
(0.412663 -0.00047733 0)
(0.412643 -0.00055919 0)
(0.412611 -0.000658506 0)
(0.412565 -0.000780185 0)
(0.412501 -0.000929896 0)
(0.412414 -0.00111399 0)
(0.412299 -0.00133956 0)
(0.412149 -0.00161474 0)
(0.411957 -0.00194905 0)
(0.41171 -0.00235394 0)
(0.411395 -0.00284334 0)
(0.410995 -0.00343413 0)
(0.410486 -0.00414619 0)
(0.40983 -0.00500273 0)
(0.409003 -0.00602631 0)
(0.407852 -0.00725923 0)
(0.412462 -2.21519e-05 0)
(0.412471 -6.33406e-05 0)
(0.412491 -9.61489e-05 0)
(0.412515 -0.000119179 0)
(0.412541 -0.000135953 0)
(0.412565 -0.000150752 0)
(0.412588 -0.000166138 0)
(0.412611 -0.000183779 0)
(0.412631 -0.000205343 0)
(0.412649 -0.000232198 0)
(0.412661 -0.000265049 0)
(0.412668 -0.0003042 0)
(0.412668 -0.000350102 0)
(0.41266 -0.000403787 0)
(0.412643 -0.00046712 0)
(0.412615 -0.000542897 0)
(0.412573 -0.00063482 0)
(0.412514 -0.000747405 0)
(0.412435 -0.000885856 0)
(0.412331 -0.00105598 0)
(0.412194 -0.00126425 0)
(0.412018 -0.001518 0)
(0.411794 -0.00182577 0)
(0.411509 -0.00219766 0)
(0.411148 -0.00264579 0)
(0.410694 -0.00318448 0)
(0.410121 -0.00383006 0)
(0.409392 -0.00459975 0)
(0.408481 -0.00551085 0)
(0.407242 -0.00657401 0)
(0.412463 -2.55745e-05 0)
(0.412474 -7.25877e-05 0)
(0.412497 -0.000108241 0)
(0.412525 -0.00013164 0)
(0.412552 -0.000148228 0)
(0.412576 -0.00016293 0)
(0.412599 -0.000177897 0)
(0.412621 -0.000194544 0)
(0.412641 -0.000214598 0)
(0.412656 -0.000239462 0)
(0.412666 -0.00026979 0)
(0.41267 -0.000305844 0)
(0.412666 -0.000348051 0)
(0.412653 -0.00039737 0)
(0.41263 -0.000455498 0)
(0.412594 -0.00052496 0)
(0.412543 -0.000609102 0)
(0.412473 -0.00071201 0)
(0.41238 -0.000838373 0)
(0.41226 -0.000993388 0)
(0.412103 -0.00118283 0)
(0.411904 -0.00141324 0)
(0.411651 -0.00169206 0)
(0.411331 -0.00202805 0)
(0.41093 -0.00243149 0)
(0.410428 -0.00291417 0)
(0.4098 -0.00348912 0)
(0.40901 -0.00416816 0)
(0.408031 -0.00496474 0)
(0.406738 -0.00586153 0)
(0.412463 -3.00708e-05 0)
(0.412478 -8.41319e-05 0)
(0.412507 -0.000122102 0)
(0.412539 -0.000145011 0)
(0.412567 -0.000161134 0)
(0.412591 -0.000175565 0)
(0.412614 -0.000189638 0)
(0.412636 -0.000204563 0)
(0.412655 -0.000222212 0)
(0.412669 -0.000244034 0)
(0.412677 -0.000270637 0)
(0.412677 -0.000302268 0)
(0.41267 -0.000339356 0)
(0.412652 -0.000382805 0)
(0.412623 -0.000434159 0)
(0.41258 -0.000495673 0)
(0.412521 -0.000570319 0)
(0.412441 -0.000661709 0)
(0.412337 -0.00077397 0)
(0.412201 -0.000911632 0)
(0.412027 -0.00107975 0)
(0.411807 -0.00128403 0)
(0.411528 -0.00153087 0)
(0.411178 -0.00182762 0)
(0.410742 -0.00218282 0)
(0.410199 -0.00260588 0)
(0.409525 -0.00310698 0)
(0.408684 -0.00369331 0)
(0.407654 -0.00437662 0)
(0.406329 -0.00511821 0)
(0.412465 -3.63926e-05 0)
(0.412485 -9.91189e-05 0)
(0.412522 -0.000137868 0)
(0.412559 -0.000158797 0)
(0.412588 -0.000174402 0)
(0.412613 -0.000189245 0)
(0.412636 -0.000203358 0)
(0.412658 -0.000217746 0)
(0.412676 -0.00023434 0)
(0.412689 -0.00025448 0)
(0.412695 -0.000278646 0)
(0.412693 -0.000307076 0)
(0.412682 -0.00034018 0)
(0.412661 -0.000378767 0)
(0.412626 -0.000424171 0)
(0.412577 -0.000478339 0)
(0.412511 -0.00054383 0)
(0.412422 -0.000623766 0)
(0.412307 -0.000721704 0)
(0.412159 -0.000841511 0)
(0.41197 -0.000987496 0)
(0.411731 -0.00116451 0)
(0.41143 -0.00137791 0)
(0.411055 -0.00163367 0)
(0.410589 -0.00193856 0)
(0.410011 -0.00229957 0)
(0.409299 -0.00272449 0)
(0.408419 -0.00321675 0)
(0.407347 -0.00378948 0)
(0.406007 -0.00439103 0)
(0.412467 -4.58845e-05 0)
(0.412497 -0.000119657 0)
(0.412545 -0.000156841 0)
(0.412587 -0.00017284 0)
(0.412617 -0.000184748 0)
(0.412641 -0.000196332 0)
(0.412665 -0.000206921 0)
(0.412687 -0.000217591 0)
(0.412704 -0.000230221 0)
(0.412716 -0.000245956 0)
(0.41272 -0.000265118 0)
(0.412716 -0.00028792 0)
(0.412703 -0.000314757 0)
(0.412678 -0.000346367 0)
(0.412639 -0.000383912 0)
(0.412585 -0.000428995 0)
(0.412512 -0.000483703 0)
(0.412417 -0.000550603 0)
(0.412293 -0.000632559 0)
(0.412134 -0.000732653 0)
(0.411932 -0.000854525 0)
(0.411677 -0.00100218 0)
(0.411358 -0.00117977 0)
(0.410961 -0.00139217 0)
(0.410471 -0.00164487 0)
(0.409865 -0.00194255 0)
(0.409123 -0.00229074 0)
(0.408211 -0.00268833 0)
(0.407108 -0.003156 0)
(0.405752 -0.00363144 0)
(0.412471 -6.03528e-05 0)
(0.412517 -0.000146541 0)
(0.412581 -0.000183286 0)
(0.412629 -0.000200887 0)
(0.41266 -0.000216109 0)
(0.412685 -0.000229251 0)
(0.412709 -0.000239861 0)
(0.412731 -0.000250003 0)
(0.412748 -0.000261555 0)
(0.412758 -0.000275246 0)
(0.412762 -0.000291357 0)
(0.412756 -0.000310161 0)
(0.41274 -0.000332068 0)
(0.412712 -0.000357697 0)
(0.41267 -0.000387994 0)
(0.412611 -0.000424242 0)
(0.412533 -0.000468059 0)
(0.412431 -0.000521573 0)
(0.4123 -0.000587194 0)
(0.412133 -0.000667077 0)
(0.41192 -0.000764004 0)
(0.411653 -0.000881485 0)
(0.41132 -0.00102248 0)
(0.410906 -0.00119017 0)
(0.410396 -0.00138841 0)
(0.40977 -0.00162014 0)
(0.409006 -0.00188934 0)
(0.408069 -0.00218877 0)
(0.406944 -0.00254954 0)
(0.40555 -0.00291409 0)
(0.412479 -8.7887e-05 0)
(0.412549 -0.000162776 0)
(0.41263 -0.000175959 0)
(0.412682 -0.000183871 0)
(0.412713 -0.00019473 0)
(0.41274 -0.000204272 0)
(0.412766 -0.000211836 0)
(0.412788 -0.000219179 0)
(0.412805 -0.00022728 0)
(0.412815 -0.000237224 0)
(0.412817 -0.000248915 0)
(0.41281 -0.000262638 0)
(0.412793 -0.000278748 0)
(0.412762 -0.000297802 0)
(0.412718 -0.000320547 0)
(0.412656 -0.000347934 0)
(0.412575 -0.000381122 0)
(0.412468 -0.000421334 0)
(0.412331 -0.000470046 0)
(0.412157 -0.000529337 0)
(0.411936 -0.000601166 0)
(0.411659 -0.000687338 0)
(0.411315 -0.000790547 0)
(0.410889 -0.000913694 0)
(0.410365 -0.00105922 0)
(0.409723 -0.00122778 0)
(0.408946 -0.00142066 0)
(0.407988 -0.00162149 0)
(0.406854 -0.00186598 0)
(0.405325 -0.00202144 0)
(0.41249 -0.000156626 0)
(0.412638 -0.00029041 0)
(0.412753 -0.000274617 0)
(0.412786 -0.000270594 0)
(0.41281 -0.000276183 0)
(0.412836 -0.000281345 0)
(0.412859 -0.000284897 0)
(0.412875 -0.000288551 0)
(0.412884 -0.000293028 0)
(0.412886 -0.000298347 0)
(0.41288 -0.000304632 0)
(0.412864 -0.000312141 0)
(0.412837 -0.000321201 0)
(0.412796 -0.000332267 0)
(0.41274 -0.000345949 0)
(0.412665 -0.000362502 0)
(0.412566 -0.000382502 0)
(0.412439 -0.000407502 0)
(0.412278 -0.000438712 0)
(0.412076 -0.000474872 0)
(0.411824 -0.000518553 0)
(0.411512 -0.000572956 0)
(0.411128 -0.000637287 0)
(0.410657 -0.000712804 0)
(0.410085 -0.000801231 0)
(0.409393 -0.00090349 0)
(0.408563 -0.00102013 0)
(0.407558 -0.0011272 0)
(0.406353 -0.00126867 0)
(0.404085 -0.000891286 0)
(0.412111 -0.000108165 0)
(0.411834 -0.000183373 0)
(0.411408 -0.000195438 0)
(0.41092 -0.000200031 0)
(0.41043 -0.000205789 0)
(0.409944 -0.000210048 0)
(0.409454 -0.000213144 0)
(0.408958 -0.000216031 0)
(0.408455 -0.000219009 0)
(0.407944 -0.000222183 0)
(0.407426 -0.000225643 0)
(0.406897 -0.000229493 0)
(0.406356 -0.000233802 0)
(0.405802 -0.000238653 0)
(0.405231 -0.000244157 0)
(0.404639 -0.000250561 0)
(0.404023 -0.000258169 0)
(0.403377 -0.000267035 0)
(0.402695 -0.000277363 0)
(0.401968 -0.000290226 0)
(0.401188 -0.000305897 0)
(0.400343 -0.000324323 0)
(0.39942 -0.000346521 0)
(0.398405 -0.000373698 0)
(0.39728 -0.00040631 0)
(0.396028 -0.000442385 0)
(0.394631 -0.000486449 0)
(0.393091 -0.000503844 0)
(0.391462 -0.0006091 0)
(0.388272 -4.81782e-06 0)
(0.414449 -0.00185581 -1.3128e-18)
(0.419712 -0.00248183 -1.00826e-20)
(0.423471 -0.00291395 1.34956e-18)
(0.425394 -0.0034915 2.70572e-18)
(0.426462 -0.00425607 1.37799e-18)
(0.427208 -0.00518246 -1.36709e-18)
(0.427808 -0.00624842 1.38945e-18)
(0.428337 -0.00744986 0)
(0.428844 -0.00878555 1.40401e-18)
(0.429353 -0.0102538 -8.2987e-21)
(0.429867 -0.0118592 9.85428e-20)
(0.43038 -0.0136157 0)
(0.430889 -0.0155458 -1.64715e-18)
(0.431398 -0.0176787 0)
(0.431912 -0.0200518 0)
(0.432437 -0.0227127 -1.79893e-18)
(0.432982 -0.0257242 -1.71695e-18)
(0.433555 -0.0291694 -8.29465e-22)
(0.434166 -0.0331597 1.69258e-18)
(0.434828 -0.0378479 2.50207e-19)
(0.435556 -0.0434442 -2.30049e-18)
(0.436368 -0.0502613 2.63863e-19)
(0.437292 -0.0586904 -1.36165e-19)
(0.43834 -0.0696257 2.03769e-18)
(0.439625 -0.0832693 2.76941e-19)
(0.44097 -0.104214 -1.40343e-19)
(0.443201 -0.1267 0)
(0.444641 -0.180476 -1.65811e-18)
(0.450669 -0.215907 -1.69647e-18)
(0.452562 -0.403423 0)
(0.423715 -0.00246363 1.3167e-18)
(0.425362 -0.00276973 -3.10232e-20)
(0.426277 -0.00337823 2.66575e-20)
(0.426358 -0.0042088 -1.36991e-18)
(0.426474 -0.0051815 -4.37471e-20)
(0.42676 -0.00625993 1.47474e-18)
(0.427161 -0.00744015 1.37586e-18)
(0.427608 -0.00872703 1.87093e-19)
(0.428072 -0.0101242 -9.59363e-20)
(0.42854 -0.011639 1.564e-18)
(0.428998 -0.0132865 1.71377e-18)
(0.429441 -0.0150884 1.55233e-18)
(0.42987 -0.0170705 1.80591e-18)
(0.43029 -0.0192634 1.63869e-18)
(0.430705 -0.0217055 1.79785e-18)
(0.431118 -0.0244467 3.79753e-18)
(0.43153 -0.0275522 1.78831e-18)
(0.431945 -0.0311083 -2.08805e-18)
(0.432363 -0.0352305 2.15475e-18)
(0.432784 -0.0400754 -1.29285e-19)
(0.433207 -0.04586 1.34331e-19)
(0.433629 -0.0528965 2.22879e-18)
(0.434025 -0.0616109 0)
(0.434386 -0.0727984 -1.43881e-19)
(0.43463 -0.0869962 2.56258e-18)
(0.434615 -0.107857 0)
(0.434488 -0.131846 2.45285e-18)
(0.432523 -0.18371 -2.07903e-18)
(0.431995 -0.222161 -3.83392e-20)
(0.423971 -0.401792 -1.34856e-20)
(0.423396 -0.00272087 -1.02718e-20)
(0.424064 -0.00325817 -1.03859e-20)
(0.424599 -0.00420532 -1.34325e-18)
(0.424993 -0.0052727 -4.35512e-20)
(0.425411 -0.00635344 4.4658e-20)
(0.425918 -0.00746426 -4.54761e-20)
(0.426427 -0.00864417 -1.44101e-18)
(0.426888 -0.00991839 0)
(0.427306 -0.0113029 0)
(0.427695 -0.0128129 0)
(0.428063 -0.0144661 -1.63881e-18)
(0.428413 -0.0162823 -9.17094e-20)
(0.428747 -0.0182853 -1.51179e-18)
(0.429065 -0.0205052 -1.77835e-18)
(0.429367 -0.0229813 -1.94522e-18)
(0.429649 -0.0257652 -1.88535e-18)
(0.429909 -0.0289236 1.45958e-19)
(0.430142 -0.0325446 1.87932e-18)
(0.430341 -0.0367452 -1.94088e-18)
(0.430494 -0.0416841 -1.35099e-19)
(0.430579 -0.0475811 0)
(0.430568 -0.054746 -4.7584e-18)
(0.430402 -0.0636265 1.49526e-19)
(0.430001 -0.0749309 -2.49628e-18)
(0.429209 -0.0894964 9.08163e-20)
(0.427677 -0.110003 0)
(0.425346 -0.135425 -5.2905e-18)
(0.419747 -0.184385 4.7929e-18)
(0.413055 -0.227214 -2.57673e-18)
(0.394241 -0.396407 -1.23348e-20)
(0.423337 -0.00396408 0)
(0.423861 -0.00470124 -1.38548e-18)
(0.424331 -0.00562829 7.29135e-23)
(0.424715 -0.00658846 2.22299e-20)
(0.425076 -0.007566 0)
(0.425442 -0.00861784 0)
(0.425792 -0.0097811 -1.52531e-18)
(0.426116 -0.0110636 0)
(0.426423 -0.0124677 9.96752e-20)
(0.42672 -0.0140017 -2.04915e-19)
(0.427003 -0.0156803 3.27281e-22)
(0.427267 -0.017523 -1.61552e-18)
(0.427507 -0.0195548 1.11189e-19)
(0.427718 -0.0218079 1.7307e-18)
(0.427897 -0.0243239 1.18127e-19)
(0.428037 -0.0271554 1.84442e-18)
(0.428131 -0.0303706 -2.00655e-18)
(0.428167 -0.0340586 -2.10551e-18)
(0.428127 -0.0383379 0)
(0.427987 -0.0433684 2.12479e-18)
(0.427707 -0.0493711 1.45739e-19)
(0.42723 -0.0566557 2.54094e-18)
(0.426457 -0.0656718 -1.57239e-19)
(0.425254 -0.0770953 2.56616e-18)
(0.423335 -0.0918727 -2.65076e-18)
(0.420288 -0.112157 0)
(0.415507 -0.138402 2.85962e-18)
(0.406502 -0.184791 -2.67826e-18)
(0.393224 -0.230638 2.63695e-18)
(0.36455 -0.38808 5.72748e-20)
(0.422967 -0.00504589 0)
(0.423338 -0.00575248 1.38088e-18)
(0.423653 -0.0066077 0)
(0.423957 -0.00754454 0)
(0.424262 -0.00855385 0)
(0.424568 -0.00965637 0)
(0.424863 -0.010863 1.54691e-18)
(0.425138 -0.0121745 4.96653e-20)
(0.425391 -0.0135964 -5.11138e-20)
(0.425621 -0.0151433 0)
(0.425822 -0.0168346 0)
(0.425991 -0.018693 1.10904e-19)
(0.426123 -0.020745 -2.56355e-22)
(0.426213 -0.0230236 -1.99657e-18)
(0.426254 -0.0255708 0)
(0.426237 -0.0284395 -2.00449e-18)
(0.426148 -0.0316985 0)
(0.425966 -0.0354375 2.28473e-18)
(0.425665 -0.0397753 -2.81125e-19)
(0.425205 -0.044872 -2.1704e-18)
(0.424527 -0.0509474 1.23144e-18)
(0.423547 -0.0583087 0)
(0.422124 -0.0674009 0)
(0.420066 -0.0788748 0)
(0.416971 -0.0937167 1.47675e-18)
(0.412342 -0.113728 -1.5462e-18)
(0.40504 -0.140327 0)
(0.392703 -0.184135 -1.63391e-18)
(0.372745 -0.232139 -1.71676e-18)
(0.334505 -0.37686 1.07965e-18)
(0.422438 -0.00602736 6.79089e-19)
(0.422719 -0.00676602 7.16255e-19)
(0.422948 -0.00763874 7.44227e-19)
(0.423203 -0.00859577 6.92787e-19)
(0.423464 -0.0096242 8.27339e-19)
(0.423708 -0.010734 7.27257e-19)
(0.423926 -0.0119378 7.95736e-19)
(0.424117 -0.0132451 -8.17111e-19)
(0.424281 -0.0146677 5.2199e-20)
(0.424416 -0.0162211 7.56581e-19)
(0.424516 -0.017924 8.90026e-19)
(0.424578 -0.0197974 8.60709e-19)
(0.424593 -0.0218674 1.17789e-19)
(0.424553 -0.024167 -9.79171e-19)
(0.424448 -0.0267382 1.25756e-19)
(0.424261 -0.0296346 -2.6071e-19)
(0.423973 -0.0329252 -9.5556e-19)
(0.423555 -0.0366995 -1.13454e-18)
(0.422971 -0.041076 0)
(0.422167 -0.0462133 -1.52731e-19)
(0.421064 -0.0523282 2.93752e-20)
(0.419548 -0.0597225 1.669e-19)
(0.417438 -0.068831 1.24887e-18)
(0.414482 -0.0802814 2.76568e-19)
(0.41017 -0.0950505 -3.39367e-20)
(0.403911 -0.11471 1.70421e-18)
(0.394054 -0.141213 -1.07755e-19)
(0.37847 -0.182446 1.70982e-18)
(0.351828 -0.231532 1.90865e-18)
(0.30493 -0.362758 -1.25796e-18)
(0.421783 -0.00697843 -6.98062e-19)
(0.42199 -0.00772892 -7.02735e-19)
(0.422139 -0.00859994 -7.42356e-19)
(0.422328 -0.00955371 2.85465e-20)
(0.422525 -0.0105828 -1.51526e-18)
(0.422695 -0.0116962 -7.86432e-19)
(0.422833 -0.0129057 -1.72224e-18)
(0.422943 -0.0142213 9.66565e-20)
(0.423023 -0.0156535 -5.35722e-20)
(0.423068 -0.0172167 -1.76435e-18)
(0.42307 -0.0189285 9.8823e-21)
(0.423022 -0.0208108 -8.74505e-19)
(0.422914 -0.0228902 9.15349e-19)
(0.422736 -0.0252006 -1.33817e-20)
(0.422471 -0.0277842 1.30007e-19)
(0.4221 -0.0306944 -1.3492e-19)
(0.421597 -0.0339998 1.11346e-18)
(0.420927 -0.0377888 1.15918e-18)
(0.420041 -0.0421782 1.52812e-19)
(0.418869 -0.0473236 9.726e-19)
(0.417315 -0.0534369 -1.07323e-18)