/*--------------------------------*- C++ -*----------------------------------*\
  =========                 |
  \\      /  F ield         | OpenFOAM: The Open Source CFD Toolbox
   \\    /   O peration     | Website:  https://openfoam.org
    \\  /    A nd           | Version:  11
     \\/     M anipulation  |
\*---------------------------------------------------------------------------*/
FoamFile
{
    format      ascii;
    class       volVectorField;
    location    "5";
    object      U;
}
// * * * * * * * * * * * * * * * * * * * * * * * * * * * * * * * * * * * * * //

dimensions      [0 1 -1 0 0 0 0];

internalField   nonuniform List<vector> 
12600
(
(0.399659 0.000102699 0)
(0.399413 0.000172677 0)
(0.399048 0.000174935 0)
(0.398647 0.000171591 0)
(0.398277 0.000169798 0)
(0.397945 0.000165869 0)
(0.397647 0.000158961 0)
(0.397386 0.000149572 0)
(0.39717 0.00013741 0)
(0.39701 0.000122183 0)
(0.39692 0.00010559 0)
(0.396914 8.14405e-05 0)
(0.397013 5.01192e-05 0)
(0.397241 9.34965e-06 0)
(0.397631 -4.10741e-05 0)
(0.398221 -9.92748e-05 0)
(0.399056 -0.00017043 0)
(0.400196 -0.000261274 0)
(0.401708 -0.000371824 0)
(0.403666 -0.000503047 0)
(0.406171 -0.000665811 0)
(0.409358 -0.000867596 0)
(0.413383 -0.00111512 0)
(0.41843 -0.00141797 0)
(0.424725 -0.00178743 0)
(0.432523 -0.00223253 0)
(0.442144 -0.00278474 0)
(0.453947 -0.00336478 0)
(0.468294 -0.00443309 0)
(0.488295 -0.00383539 0)
(0.400037 0.000146566 0)
(0.400184 0.000246865 0)
(0.400371 0.000216684 0)
(0.4005 0.000190688 0)
(0.40064 0.000169928 0)
(0.400815 0.000146709 0)
(0.401022 0.000119628 0)
(0.401264 8.78825e-05 0)
(0.401546 4.94975e-05 0)
(0.40188 2.83346e-06 0)
(0.402275 -5.52185e-05 0)
(0.402746 -0.000126351 0)
(0.403309 -0.000213462 0)
(0.403983 -0.00032038 0)
(0.404795 -0.000451731 0)
(0.405774 -0.00061425 0)
(0.40695 -0.000815267 0)
(0.408394 -0.00106266 0)
(0.41009 -0.00136773 0)
(0.412275 -0.00174443 0)
(0.414953 -0.0022058 0)
(0.418223 -0.00276898 0)
(0.422226 -0.00345718 0)
(0.427125 -0.00429785 0)
(0.433119 -0.00532064 0)
(0.440455 -0.00655951 0)
(0.449421 -0.00806522 0)
(0.460383 -0.00980078 0)
(0.473707 -0.0122434 0)
(0.490078 -0.013037 0)
(0.400024 7.07918e-05 0)
(0.400114 0.000112493 0)
(0.400241 8.32104e-05 0)
(0.400366 5.04208e-05 0)
(0.400501 2.65414e-05 0)
(0.400663 -5.60846e-06 0)
(0.400858 -4.98591e-05 0)
(0.401089 -0.000103234 0)
(0.401362 -0.00016513 0)
(0.401683 -0.000239213 0)
(0.402063 -0.000329595 0)
(0.402516 -0.000440596 0)
(0.403057 -0.000577247 0)
(0.403707 -0.000745852 0)
(0.404493 -0.000953953 0)
(0.405447 -0.00120969 0)
(0.406609 -0.0015253 0)
(0.408033 -0.00191059 0)
(0.409776 -0.00239089 0)
(0.411903 -0.00299266 0)
(0.414498 -0.00372652 0)
(0.417677 -0.00461884 0)
(0.421571 -0.00570947 0)
(0.426343 -0.0070426 0)
(0.432184 -0.00866875 0)
(0.439348 -0.0106462 0)
(0.448086 -0.0130544 0)
(0.458896 -0.0158898 0)
(0.471732 -0.0196269 0)
(0.488844 -0.0222741 0)
(0.400016 3.73589e-05 0)
(0.400081 7.42204e-05 0)
(0.400192 6.1123e-05 0)
(0.400312 2.80294e-05 0)
(0.400441 -9.72217e-06 0)
(0.400595 -5.65865e-05 0)
(0.400782 -0.000115018 0)
(0.401006 -0.000185066 0)
(0.40127 -0.000269382 0)
(0.401581 -0.000371072 0)
(0.401949 -0.000494629 0)
(0.402387 -0.000646098 0)
(0.40291 -0.000832665 0)
(0.403539 -0.00106308 0)
(0.404299 -0.0013477 0)
(0.405222 -0.0016988 0)
(0.406346 -0.00213231 0)
(0.40772 -0.00266638 0)
(0.4094 -0.00332819 0)
(0.411453 -0.00414634 0)
(0.413961 -0.00514649 0)
(0.417031 -0.00636775 0)
(0.420792 -0.0078618 0)
(0.425401 -0.00968879 0)
(0.431046 -0.0119203 0)
(0.437975 -0.0146378 0)
(0.446428 -0.0179558 0)
(0.45693 -0.0218927 0)
(0.469365 -0.0269835 0)
(0.486208 -0.031349 0)
(0.400011 1.65201e-05 0)
(0.40006 2.97907e-05 0)
(0.400151 4.3267e-06 0)
(0.400262 -4.63396e-05 0)
(0.400386 -0.000103806 0)
(0.400535 -0.000167307 0)
(0.400714 -0.00024261 0)
(0.400928 -0.000332689 0)
(0.401181 -0.000440305 0)
(0.401479 -0.000569215 0)
(0.401831 -0.00072524 0)
(0.40225 -0.000916023 0)
(0.402751 -0.00115077 0)
(0.403353 -0.0014406 0)
(0.404079 -0.00179878 0)
(0.40496 -0.00224111 0)
(0.406034 -0.00278718 0)
(0.407345 -0.00346029 0)
(0.408947 -0.00429043 0)
(0.410904 -0.00531263 0)
(0.413297 -0.00656517 0)
(0.416225 -0.00809743 0)
(0.419811 -0.00997278 0)
(0.424208 -0.0122677 0)
(0.429593 -0.0150741 0)
(0.436211 -0.0184982 0)
(0.444288 -0.0226825 0)
(0.454366 -0.0276921 0)
(0.466262 -0.0340591 0)
(0.482655 -0.0402064 0)
(0.400009 1.50973e-06 0)
(0.400047 -7.22962e-06 0)
(0.400125 -4.2449e-05 0)
(0.400227 -9.82945e-05 0)
(0.400346 -0.000164519 0)
(0.400486 -0.000239797 0)
(0.400656 -0.000328823 0)
(0.400859 -0.000435322 0)
(0.401098 -0.000562625 0)
(0.401379 -0.000715404 0)
(0.401713 -0.000900527 0)
(0.402109 -0.00112708 0)
(0.402582 -0.00140617 0)
(0.40315 -0.00175118 0)
(0.403835 -0.00217807 0)
(0.404666 -0.00270586 0)
(0.405677 -0.00335767 0)
(0.406911 -0.00416132 0)
(0.408417 -0.00515128 0)
(0.410258 -0.00636901 0)
(0.412508 -0.00786269 0)
(0.415262 -0.00969204 0)
(0.418634 -0.0119323 0)
(0.422768 -0.0146754 0)
(0.427833 -0.0180326 0)
(0.434066 -0.0221349 0)
(0.441674 -0.0271547 0)
(0.451209 -0.0332074 0)
(0.462431 -0.0408174 0)
(0.478193 -0.0487229 0)
(0.400007 -1.0113e-05 0)
(0.400038 -3.74725e-05 0)
(0.400105 -8.41405e-05 0)
(0.400198 -0.000149968 0)
(0.400309 -0.000229062 0)
(0.400441 -0.000319537 0)
(0.400599 -0.000424815 0)
(0.400788 -0.000549276 0)
(0.401011 -0.000697257 0)
(0.401274 -0.000874399 0)
(0.401585 -0.00108863 0)
(0.401955 -0.00135039 0)
(0.402395 -0.00167254 0)
(0.402923 -0.00207056 0)
(0.40356 -0.0025629 0)
(0.404332 -0.00317151 0)
(0.40527 -0.00392283 0)
(0.406414 -0.00484878 0)
(0.407809 -0.00598837 0)
(0.409514 -0.0073889 0)
(0.411598 -0.0091069 0)
(0.414147 -0.0112119 0)
(0.417267 -0.0137906 0)
(0.421093 -0.0169495 0)
(0.425781 -0.0208192 0)
(0.431555 -0.0255554 0)
(0.438606 -0.0313589 0)
(0.447483 -0.0383984 0)
(0.4579 -0.0471874 0)
(0.472834 -0.0568084 0)
(0.400006 -1.93217e-05 0)
(0.400032 -6.30465e-05 0)
(0.40009 -0.000122233 0)
(0.400173 -0.000198334 0)
(0.400276 -0.000288365 0)
(0.400397 -0.000391159 0)
(0.400544 -0.000509818 0)
(0.400718 -0.000649217 0)
(0.400924 -0.000814641 0)
(0.401166 -0.00101266 0)
(0.401451 -0.00125217 0)
(0.40179 -0.00154482 0)
(0.402194 -0.0019051 0)
(0.402677 -0.00235042 0)
(0.403259 -0.0029015 0)
(0.403963 -0.00358296 0)
(0.404819 -0.00442429 0)
(0.40586 -0.00546114 0)
(0.40713 -0.00673689 0)
(0.408681 -0.00830436 0)
(0.410575 -0.0102276 0)
(0.412891 -0.012585 0)
(0.415725 -0.0154744 0)
(0.419199 -0.019016 0)
(0.423456 -0.0233581 0)
(0.428703 -0.02868 0)
(0.43511 -0.0352108 0)
(0.443216 -0.0431734 0)
(0.452694 -0.0530729 0)
(0.466587 -0.0643548 0)
(0.400005 -2.68827e-05 0)
(0.400027 -8.51979e-05 0)
(0.400078 -0.000156191 0)
(0.400152 -0.000242222 0)
(0.400244 -0.00034243 0)
(0.400356 -0.000456671 0)
(0.400488 -0.00058805 0)
(0.400646 -0.000741739 0)
(0.400832 -0.000923757 0)
(0.401051 -0.00114148 0)
(0.401309 -0.00140467 0)
(0.401614 -0.00172609 0)
(0.401976 -0.00212165 0)
(0.40241 -0.00261046 0)
(0.402931 -0.00321525 0)
(0.40356 -0.00396298 0)
(0.404324 -0.00488594 0)
(0.405253 -0.00602307 0)
(0.406384 -0.00742173 0)
(0.407763 -0.00913969 0)
(0.409448 -0.0112474 0)
(0.411505 -0.0138314 0)
(0.414022 -0.016999 0)
(0.417105 -0.0208833 0)
(0.42088 -0.0256489 0)
(0.425537 -0.0314972 0)
(0.431221 -0.038685 0)
(0.438443 -0.0474878 0)
(0.446854 -0.0584058 0)
(0.459477 -0.0712588 0)
(0.400004 -3.33286e-05 0)
(0.400023 -0.000104181 0)
(0.400067 -0.000186082 0)
(0.400132 -0.000281569 0)
(0.400215 -0.00039116 0)
(0.400314 -0.000515694 0)
(0.400433 -0.000658452 0)
(0.400573 -0.000824791 0)
(0.400738 -0.00102129 0)
(0.400932 -0.00125606 0)
(0.401159 -0.00153971 0)
(0.401427 -0.00188596 0)
(0.401745 -0.00231195 0)
(0.402124 -0.00283831 0)
(0.402579 -0.00348955 0)
(0.403128 -0.00429471 0)
(0.403792 -0.00528849 0)
(0.404598 -0.00651272 0)
(0.405579 -0.00801826 0)
(0.406773 -0.00986717 0)
(0.408229 -0.0121355 0)
(0.410006 -0.0149167 0)
(0.412177 -0.0183269 0)
(0.414833 -0.02251 0)
(0.418083 -0.0276455 0)
(0.422091 -0.0339546 0)
(0.426979 -0.0417196 0)
(0.433213 -0.0512662 0)
(0.440435 -0.0630928 0)
(0.451551 -0.077392 0)
(0.400004 -3.87986e-05 0)
(0.40002 -0.000120458 0)
(0.400057 -0.000212147 0)
(0.400114 -0.000316315 0)
(0.400186 -0.000434334 0)
(0.400273 -0.000567842 0)
(0.400377 -0.000720415 0)
(0.400498 -0.00089764 0)
(0.400641 -0.00110657 0)
(0.400808 -0.00135596 0)
(0.401003 -0.0016571 0)
(0.401232 -0.0020246 0)
(0.401502 -0.00247662 0)
(0.401823 -0.0030351 0)
(0.402208 -0.00372601 0)
(0.40267 -0.00458014 0)
(0.403227 -0.00563421 0)
(0.403903 -0.00693244 0)
(0.404723 -0.00852861 0)
(0.405719 -0.0104884 0)
(0.406932 -0.0128924 0)
(0.408409 -0.01584 0)
(0.41021 -0.0194543 0)
(0.412409 -0.0238884 0)
(0.415096 -0.0293344 0)
(0.418404 -0.0360305 0)
(0.422431 -0.0442816 0)
(0.427583 -0.0544588 0)
(0.433502 -0.0670603 0)
(0.442878 -0.0826361 0)
(0.400003 -4.34303e-05 0)
(0.400017 -0.000134314 0)
(0.400049 -0.000234544 0)
(0.400097 -0.000346374 0)
(0.400158 -0.000471686 0)
(0.400233 -0.000612761 0)
(0.40032 -0.000773522 0)
(0.400423 -0.000959784 0)
(0.400542 -0.00117896 0)
(0.40068 -0.0014403 0)
(0.400841 -0.00175571 0)
(0.401029 -0.00214047 0)
(0.401249 -0.00261361 0)
(0.401509 -0.00319807 0)
(0.401819 -0.00392103 0)
(0.40219 -0.00481465 0)
(0.402636 -0.00591725 0)
(0.403174 -0.00727499 0)
(0.403825 -0.00894397 0)
(0.404613 -0.0109927 0)
(0.40557 -0.0135055 0)
(0.406731 -0.0165859 0)
(0.408142 -0.0203629 0)
(0.409861 -0.0249968 0)
(0.411953 -0.0306893 0)
(0.414521 -0.0376924 0)
(0.417633 -0.0463293 0)
(0.421619 -0.0570092 0)
(0.426141 -0.0702304 0)
(0.433558 -0.086868 0)
(0.400003 -4.73107e-05 0)
(0.400014 -0.000145941 0)
(0.40004 -0.000253401 0)
(0.40008 -0.00037172 0)
(0.400131 -0.00050308 0)
(0.400193 -0.000650246 0)
(0.400264 -0.000817477 0)
(0.400346 -0.00101079 0)
(0.400441 -0.00123787 0)
(0.40055 -0.00150837 0)
(0.400675 -0.00183464 0)
(0.40082 -0.00223252 0)
(0.400988 -0.00272166 0)
(0.401185 -0.00332578 0)
(0.401418 -0.00407295 0)
(0.401694 -0.00499635 0)
(0.402024 -0.00613549 0)
(0.402419 -0.00753793 0)
(0.402895 -0.00926144 0)
(0.403467 -0.0113766 0)
(0.404158 -0.0139701 0)
(0.404992 -0.0171489 0)
(0.405999 -0.0210456 0)
(0.407218 -0.0258255 0)
(0.408691 -0.031697 0)
(0.410487 -0.0389217 0)
(0.412643 -0.0478357 0)
(0.4154 -0.0588772 0)
(0.418447 -0.0725416 0)
(0.42372 -0.0899813 0)
(0.400002 -5.04999e-05 0)
(0.400011 -0.000155485 0)
(0.400033 -0.000268848 0)
(0.400065 -0.000392386 0)
(0.400105 -0.000528441 0)
(0.400153 -0.000680145 0)
(0.400208 -0.000852042 0)
(0.40027 -0.00105034 0)
(0.40034 -0.0012829 0)
(0.400419 -0.00155965 0)
(0.400507 -0.00189328 0)
(0.400608 -0.00229998 0)
(0.400723 -0.00279985 0)
(0.400855 -0.0034171 0)
(0.401008 -0.00418037 0)
(0.401187 -0.0051235 0)
(0.401398 -0.00628674 0)
(0.401647 -0.0077185 0)
(0.401942 -0.00947758 0)
(0.402294 -0.0116358 0)
(0.402712 -0.0142811 0)
(0.40321 -0.0175224 0)
(0.403803 -0.0214942 0)
(0.40451 -0.0263644 0)
(0.405349 -0.0323448 0)
(0.406353 -0.0397018 0)
(0.407527 -0.048778 0)
(0.409013 -0.0600299 0)
(0.410534 -0.073944 0)
(0.413521 -0.0918873 0)
(0.400002 -5.30468e-05 0)
(0.400009 -0.000163074 0)
(0.400025 -0.000281022 0)
(0.40005 -0.000408443 0)
(0.40008 -0.000547761 0)
(0.400114 -0.00070238 0)
(0.400152 -0.00087709 0)
(0.400194 -0.00107823 0)
(0.400238 -0.00131378 0)
(0.400287 -0.00159381 0)
(0.400339 -0.0019312 0)
(0.400394 -0.00234235 0)
(0.400455 -0.00284756 0)
(0.400521 -0.00347126 0)
(0.400594 -0.00424237 0)
(0.400674 -0.00519498 0)
(0.400764 -0.00636966 0)
(0.400865 -0.00781513 0)
(0.400978 -0.00959051 0)
(0.401105 -0.011768 0)
(0.401247 -0.0144359 0)
(0.401406 -0.0177033 0)
(0.401581 -0.0217051 0)
(0.40177 -0.0266091 0)
(0.40197 -0.032627 0)
(0.402174 -0.0400251 0)
(0.402355 -0.0491454 0)
(0.402551 -0.0604499 0)
(0.402523 -0.0744087 0)
(0.403146 -0.0925276 0)
(0.400001 -5.4998e-05 0)
(0.400006 -0.000168839 0)
(0.400018 -0.000290075 0)
(0.400036 -0.000420007 0)
(0.400056 -0.000561094 0)
(0.400077 -0.000716962 0)
(0.400098 -0.000892595 0)
(0.400119 -0.00109441 0)
(0.400138 -0.0013304 0)
(0.400156 -0.0016107 0)
(0.400171 -0.00194822 0)
(0.400182 -0.00235938 0)
(0.400188 -0.00286448 0)
(0.400188 -0.00348792 0)
(0.40018 -0.00425853 0)
(0.400161 -0.00521032 0)
(0.40013 -0.0063837 0)
(0.400082 -0.00782716 0)
(0.400012 -0.00959949 0)
(0.399915 -0.0117723 0)
(0.399781 -0.0144334 0)
(0.3996 -0.0176906 0)
(0.399357 -0.0216771 0)
(0.399031 -0.0265585 0)
(0.398592 -0.0325425 0)
(0.398 -0.0398905 0)
(0.397195 -0.0489361 0)
(0.39611 -0.0601342 0)
(0.394543 -0.0739279 0)
(0.392795 -0.0918799 0)
(0.400001 -5.64037e-05 0)
(0.400004 -0.00017292 0)
(0.400012 -0.000296191 0)
(0.400022 -0.000427243 0)
(0.400033 -0.000568563 0)
(0.400041 -0.000723983 0)
(0.400046 -0.000898629 0)
(0.400046 -0.00109892 0)
(0.400041 -0.00133281 0)
(0.400028 -0.00161035 0)
(0.400006 -0.00194436 0)
(0.399972 -0.00235112 0)
(0.399924 -0.00285068 0)
(0.399858 -0.00346713 0)
(0.39977 -0.00422894 0)
(0.399654 -0.00516965 0)
(0.399502 -0.00632904 0)
(0.399307 -0.00775487 0)
(0.399056 -0.00950492 0)
(0.398736 -0.0116495 0)
(0.398329 -0.0142746 0)
(0.397813 -0.0174856 0)
(0.397158 -0.0214124 0)
(0.396324 -0.0262156 0)
(0.395259 -0.0320958 0)
(0.393887 -0.0393046 0)
(0.392117 -0.0481598 0)
(0.389787 -0.059096 0)
(0.386723 -0.072519 0)
(0.382677 -0.0899642 0)
(0.4 -5.73234e-05 0)
(0.400003 -0.000175488 0)
(0.400006 -0.000299589 0)
(0.40001 -0.000430363 0)
(0.400011 -0.000570355 0)
(0.400007 -0.000723613 0)
(0.399996 -0.000895368 0)
(0.399976 -0.00109197 0)
(0.399947 -0.00132121 0)
(0.399904 -0.00159298 0)
(0.399846 -0.00191989 0)
(0.399768 -0.00231787 0)
(0.399667 -0.00280652 0)
(0.399537 -0.00340937 0)
(0.39937 -0.00415419 0)
(0.399157 -0.00507369 0)
(0.398887 -0.00620663 0)
(0.398547 -0.00759947 0)
(0.398119 -0.00930835 0)
(0.397582 -0.0114015 0)
(0.396908 -0.0139622 0)
(0.396064 -0.017092 0)
(0.395007 -0.0209158 0)
(0.393679 -0.0255872 0)
(0.392008 -0.0312966 0)
(0.389885 -0.0382812 0)
(0.387189 -0.0468363 0)
(0.383674 -0.0573645 0)
(0.379189 -0.0702242 0)
(0.372994 -0.086844 0)
(0.4 -5.78313e-05 0)
(0.400001 -0.00017675 0)
(0.400002 -0.000300546 0)
(0.4 -0.00042964 0)
(0.399992 -0.000566719 0)
(0.399976 -0.000716106 0)
(0.39995 -0.000883089 0)
(0.399911 -0.00107384 0)
(0.399857 -0.00129593 0)
(0.399786 -0.001559 0)
(0.399692 -0.00187529 0)
(0.399572 -0.00226021 0)
(0.399419 -0.00273271 0)
(0.399226 -0.00331549 0)
(0.398983 -0.00403535 0)
(0.398676 -0.00492378 0)
(0.398292 -0.00601812 0)
(0.397812 -0.00736303 0)
(0.397212 -0.00901244 0)
(0.396464 -0.0110317 0)
(0.395532 -0.0135005 0)
(0.394373 -0.0165155 0)
(0.392929 -0.0201951 0)
(0.391128 -0.0246838 0)
(0.388877 -0.0301593 0)
(0.386042 -0.0368407 0)
(0.382473 -0.0449954 0)
(0.377856 -0.0549835 0)
(0.372055 -0.0671088 0)
(0.363928 -0.082624 0)
(0.4 -5.80297e-05 0)
(0.4 -0.00017698 0)
(0.399998 -0.000299389 0)
(0.399991 -0.000425384 0)
(0.399976 -0.000557957 0)
(0.399948 -0.000701795 0)
(0.399907 -0.000862168 0)
(0.39985 -0.00104497 0)
(0.399773 -0.00125747 0)
(0.399674 -0.00150898 0)
(0.399547 -0.00181124 0)
(0.399386 -0.002179 0)
(0.399184 -0.0026303 0)
(0.398931 -0.00318679 0)
(0.398614 -0.00387398 0)
(0.398218 -0.00472186 0)
(0.397724 -0.00576591 0)
(0.397109 -0.00704856 0)
(0.396345 -0.00862092 0)
(0.395395 -0.0105449 0)
(0.394218 -0.0128955 0)
(0.392757 -0.0157639 0)
(0.390947 -0.0192604 0)
(0.388698 -0.0235192 0)
(0.385901 -0.0287028 0)
(0.382401 -0.0350093 0)
(0.378024 -0.0426747 0)
(0.372406 -0.0520091 0)
(0.36542 -0.0632575 0)
(0.355631 -0.0774442 0)
(0.4 -5.80388e-05 0)
(0.399999 -0.000176518 0)
(0.399996 -0.000296547 0)
(0.399985 -0.000417979 0)
(0.399962 -0.000544436 0)
(0.399924 -0.000681094 0)
(0.399869 -0.000833082 0)
(0.399795 -0.00100589 0)
(0.399697 -0.00120645 0)
(0.399571 -0.00144364 0)
(0.399412 -0.00172862 0)
(0.399213 -0.00207526 0)
(0.398964 -0.00250056 0)
(0.398653 -0.00302485 0)
(0.398267 -0.00367211 0)
(0.397786 -0.00447047 0)
(0.397189 -0.00545319 0)
(0.396447 -0.00666001 0)
(0.395527 -0.00813876 0)
(0.394388 -0.00994721 0)
(0.392978 -0.0121552 0)
(0.391235 -0.0148471 0)
(0.38908 -0.0181246 0)
(0.386414 -0.02211 0)
(0.383112 -0.0269494 0)
(0.379001 -0.0328181 0)
(0.37389 -0.0399184 0)
(0.367385 -0.0485067 0)
(0.359361 -0.0587691 0)
(0.348212 -0.0714692 0)
(0.4 -5.80553e-05 0)
(0.399999 -0.000175824 0)
(0.399995 -0.000292512 0)
(0.399982 -0.000407835 0)
(0.399953 -0.000526538 0)
(0.399905 -0.000654457 0)
(0.399837 -0.000796382 0)
(0.399747 -0.000957284 0)
(0.399629 -0.00114369 0)
(0.399479 -0.001364 0)
(0.39929 -0.0016286 0)
(0.399054 -0.00195036 0)
(0.398761 -0.00234502 0)
(0.398398 -0.00283142 0)
(0.397946 -0.00343172 0)
(0.397386 -0.00417195 0)
(0.396692 -0.00508283 0)
(0.395832 -0.00620102 0)
(0.394768 -0.00757058 0)
(0.393452 -0.00924464 0)
(0.391827 -0.0112872 0)
(0.389822 -0.0137753 0)
(0.387349 -0.0168012 0)
(0.384299 -0.0204744 0)
(0.380536 -0.0249238 0)
(0.375874 -0.0303009 0)
(0.370109 -0.0367746 0)
(0.362836 -0.0445469 0)
(0.353931 -0.0537498 0)
(0.341734 -0.0648759 0)
(0.4 -5.83742e-05 0)
(0.400001 -0.000175568 0)
(0.399998 -0.000287835 0)
(0.399983 -0.000395381 0)
(0.399948 -0.000504759 0)
(0.399892 -0.00062241 0)
(0.399813 -0.000752564 0)
(0.399707 -0.000899667 0)
(0.399571 -0.0010699 0)
(0.399398 -0.00127108 0)
(0.399182 -0.00151271 0)
(0.398913 -0.00180647 0)
(0.39858 -0.00216666 0)
(0.398167 -0.00261037 0)
(0.397657 -0.00315775 0)
(0.397024 -0.00383237 0)
(0.396241 -0.00466209 0)
(0.395273 -0.00568012 0)
(0.394076 -0.00692635 0)
(0.392598 -0.00844878 0)
(0.390776 -0.0103051 0)
(0.388532 -0.0125645 0)
(0.385771 -0.0153092 0)
(0.382375 -0.0186356 0)
(0.378198 -0.0226551 0)
(0.373048 -0.0274955 0)
(0.366711 -0.0332941 0)
(0.358789 -0.0402016 0)
(0.349158 -0.048306 0)
(0.336208 -0.05784 0)
(0.400001 -5.9504e-05 0)
(0.400004 -0.000176554 0)
(0.400004 -0.00028309 0)
(0.399989 -0.000381053 0)
(0.39995 -0.000479822 0)
(0.399886 -0.000585946 0)
(0.399796 -0.000702656 0)
(0.399677 -0.00083389 0)
(0.399525 -0.00098552 0)
(0.399332 -0.00116472 0)
(0.399091 -0.00138002 0)
(0.398792 -0.00164186 0)
(0.398422 -0.001963 0)
(0.397966 -0.00235866 0)
(0.397401 -0.00284673 0)
(0.396703 -0.00344816 0)
(0.395841 -0.00418767 0)
(0.394775 -0.0050947 0)
(0.393459 -0.00620457 0)
(0.391836 -0.00755979 0)
(0.389838 -0.00921141 0)
(0.38738 -0.0112203 0)
(0.384362 -0.0136586 0)
(0.380658 -0.0166094 0)
(0.376118 -0.0201665 0)
(0.370542 -0.0244351 0)
(0.363716 -0.0295239 0)
(0.355257 -0.0355384 0)
(0.345046 -0.0425359 0)
(0.331602 -0.0505215 0)
(0.400002 -6.21504e-05 0)
(0.40001 -0.000180177 0)
(0.400016 -0.000278746 0)
(0.400002 -0.000364672 0)
(0.399959 -0.000451655 0)
(0.399888 -0.000545715 0)
(0.399789 -0.000648613 0)
(0.39966 -0.000763737 0)
(0.399493 -0.000896545 0)
(0.399282 -0.00105336 0)
(0.399019 -0.00124155 0)
(0.398694 -0.00147012 0)
(0.398292 -0.00175007 0)
(0.397797 -0.00209455 0)
(0.397186 -0.00251901 0)
(0.39643 -0.00304152 0)
(0.395498 -0.00368347 0)
(0.394346 -0.00447029 0)
(0.392926 -0.00543246 0)
(0.391176 -0.00660658 0)
(0.389023 -0.00803661 0)
(0.386378 -0.00977501 0)
(0.383135 -0.0118837 0)
(0.379165 -0.0144327 0)
(0.374311 -0.0174984 0)
(0.368374 -0.0211649 0)
(0.361138 -0.0255169 0)
(0.352244 -0.0306222 0)
(0.341579 -0.0365268 0)
(0.327852 -0.0430559 0)
(0.400004 -6.76132e-05 0)
(0.40002 -0.000188662 0)
(0.400036 -0.000276513 0)
(0.400025 -0.000346964 0)
(0.399978 -0.000418523 0)
(0.399901 -0.000496313 0)
(0.399795 -0.000581073 0)
(0.399655 -0.000675921 0)
(0.399476 -0.00078578 0)
(0.399249 -0.000915982 0)
(0.398968 -0.0010729 0)
(0.39862 -0.00126407 0)
(0.398191 -0.00149855 0)
(0.397663 -0.00178726 0)
(0.397012 -0.00214305 0)
(0.396208 -0.00258093 0)
(0.395216 -0.00311859 0)
(0.393992 -0.00377713 0)
(0.392483 -0.00458192 0)
(0.390625 -0.00556351 0)
(0.388341 -0.00675865 0)
(0.385538 -0.00821123 0)
(0.382105 -0.00997382 0)
(0.377911 -0.0121028 0)
(0.372797 -0.0146576 0)
(0.366564 -0.0177026 0)
(0.358997 -0.0213036 0)
(0.34977 -0.0254968 0)
(0.338772 -0.0303433 0)
(0.324935 -0.0355441 0)
(0.400008 -7.76796e-05 0)
(0.400039 -0.000202642 0)
(0.40007 -0.000280178 0)
(0.400063 -0.000340319 0)
(0.400013 -0.000401726 0)
(0.399931 -0.000466775 0)
(0.399819 -0.000536177 0)
(0.399672 -0.000613266 0)
(0.399482 -0.000702251 0)
(0.399243 -0.000807061 0)
(0.398946 -0.0009329 0)
(0.39858 -0.00108592 0)
(0.398129 -0.00127333 0)
(0.397574 -0.00150371 0)
(0.396891 -0.00178714 0)
(0.396047 -0.00213551 0)
(0.395008 -0.0025629 0)
(0.393726 -0.00308601 0)
(0.392146 -0.00372478 0)
(0.390203 -0.00450316 0)
(0.387815 -0.00545019 0)
(0.384887 -0.00660087 0)
(0.381305 -0.00800041 0)
(0.376939 -0.0096922 0)
(0.371633 -0.011718 0)
(0.365188 -0.0141249 0)
(0.357402 -0.0169655 0)
(0.347962 -0.0202439 0)
(0.336781 -0.0240679 0)
(0.32295 -0.0280396 0)
(0.400015 -0.000100464 0)
(0.40007 -0.000205122 0)
(0.400118 -0.00024998 0)
(0.400113 -0.00028945 0)
(0.400061 -0.000334158 0)
(0.399977 -0.000380582 0)
(0.399861 -0.000429614 0)
(0.399708 -0.00048495 0)
(0.399511 -0.000549838 0)
(0.399263 -0.000627399 0)
(0.398955 -0.000720862 0)
(0.398575 -0.000834452 0)
(0.398108 -0.000973503 0)
(0.397533 -0.00114422 0)
(0.396825 -0.00135381 0)
(0.395954 -0.00161074 0)
(0.394879 -0.00192499 0)
(0.393555 -0.0023086 0)
(0.391926 -0.0027762 0)
(0.389925 -0.00334547 0)
(0.387471 -0.00403788 0)
(0.384466 -0.00487877 0)
(0.380802 -0.00590851 0)
(0.376348 -0.00715927 0)
(0.370944 -0.00865473 0)
(0.364389 -0.0104274 0)
(0.35649 -0.0125176 0)
(0.346906 -0.0148985 0)
(0.335661 -0.0177279 0)
(0.321489 -0.0204006 0)
(0.400024 -0.000165055 0)
(0.400177 -0.000325712 0)
(0.400221 -0.000322517 0)
(0.400184 -0.000337461 0)
(0.400113 -0.00036306 0)
(0.400015 -0.000391764 0)
(0.399884 -0.000421574 0)
(0.399713 -0.000455022 0)
(0.399496 -0.000494205 0)
(0.399224 -0.000538904 0)
(0.398888 -0.000596525 0)
(0.398475 -0.000667496 0)
(0.397966 -0.000754706 0)
(0.397341 -0.000861947 0)
(0.396574 -0.000993655 0)
(0.395634 -0.00115528 0)
(0.394483 -0.00135346 0)
(0.393076 -0.00159597 0)
(0.391358 -0.00189206 0)
(0.389263 -0.00225288 0)
(0.386711 -0.00269219 0)
(0.383603 -0.00322676 0)
(0.379845 -0.0038766 0)
(0.375138 -0.00466155 0)
(0.369409 -0.0056008 0)
(0.362447 -0.00671502 0)
(0.354071 -0.00802485 0)
(0.343857 -0.00950513 0)
(0.332156 -0.0113371 0)
(0.315918 -0.0122958 0)
(0.399645 -0.00011372 0)
(0.399342 -0.000190233 0)
(0.39887 -0.000206981 0)
(0.398313 -0.000218554 0)
(0.397725 -0.000231726 0)
(0.397113 -0.000243838 0)
(0.396465 -0.000255727 0)
(0.395774 -0.000268938 0)
(0.395033 -0.000284333 0)
(0.394235 -0.000302801 0)
(0.393367 -0.000324466 0)
(0.392415 -0.000350023 0)
(0.391358 -0.000380929 0)
(0.390172 -0.000418878 0)
(0.388827 -0.00046572 0)
(0.387287 -0.000523463 0)
(0.385507 -0.000594414 0)
(0.383431 -0.000681516 0)
(0.380994 -0.000788566 0)
(0.378115 -0.000920201 0)
(0.374694 -0.00108173 0)
(0.370615 -0.00127988 0)
(0.365744 -0.00151506 0)
(0.35993 -0.00179323 0)
(0.352982 -0.00212664 0)
(0.34467 -0.00252196 0)
(0.334747 -0.00299043 0)
(0.322931 -0.00349254 0)
(0.309157 -0.00429271 0)
(0.28833 -0.0037077 0)
(0.495637 -0.00888085 1.13687e-20)
(0.502989 -0.013755 -1.92222e-17)
(0.509687 -0.0192776 1.93106e-17)
(0.515201 -0.0253138 9.70617e-18)
(0.520066 -0.0317793 7.32922e-18)
(0.524604 -0.0386593 1.47782e-17)
(0.528913 -0.0460001 7.42947e-18)
(0.533064 -0.0538718 1.99976e-17)
(0.537137 -0.0623314 1.00901e-17)
(0.541189 -0.0714174 5.07203e-18)
(0.545237 -0.0811631 -5.12818e-18)
(0.549275 -0.0916086 1.03131e-17)
(0.553294 -0.102807 5.23327e-18)
(0.557294 -0.114825 5.26365e-18)
(0.561284 -0.127748 1.06143e-17)
(0.565279 -0.14168 5.37706e-18)
(0.569302 -0.15675 1.61912e-17)
(0.57338 -0.173113 0)
(0.57754 -0.19096 0)
(0.581815 -0.210526 5.48557e-18)
(0.586243 -0.232105 -3.41039e-20)
(0.590867 -0.256065 5.58764e-18)
(0.595737 -0.28286 0)
(0.600876 -0.313117 1.11191e-17)
(0.606487 -0.347435 5.52645e-18)
(0.611926 -0.387467 -5.59394e-18)
(0.620135 -0.431581 5.47909e-18)
(0.620337 -0.494184 5.44682e-18)
(0.645569 -0.531355 1.57463e-17)
(0.605545 -0.680094 -5.03053e-18)
(0.50214 -0.0191827 -9.66444e-18)
(0.506974 -0.0240565 1.09371e-17)
(0.511053 -0.0298938 -1.10187e-17)
(0.514504 -0.0362027 0)
(0.517799 -0.0428753 -9.97314e-18)
(0.521149 -0.0499636 -1.00412e-17)
(0.524557 -0.0575463 -2.53171e-18)
(0.527996 -0.065671 -1.78952e-17)
(0.531459 -0.074359 -1.03056e-17)
(0.534922 -0.0836302 -1.04271e-17)
(0.538351 -0.0935189 5.24709e-18)
(0.541718 -0.104076 -5.31043e-18)
(0.54501 -0.115364 -1.06873e-17)
(0.548228 -0.127461 -1.07882e-17)
(0.55138 -0.140455 -1.08905e-17)
(0.554472 -0.154454 -1.09935e-17)
(0.557513 -0.169586 -2.225e-17)
(0.560506 -0.186006 5.60106e-18)
(0.563455 -0.203902 -5.67958e-18)
(0.566362 -0.223507 -1.71647e-17)
(0.569226 -0.245107 3.96454e-20)
(0.572042 -0.269053 -5.24659e-20)
(0.574789 -0.295788 -5.62072e-20)
(0.577439 -0.325886 -1.76739e-17)
(0.579989 -0.359953 -1.18162e-17)
(0.581988 -0.399378 -5.80617e-18)
(0.585124 -0.443271 1.39764e-19)
(0.581308 -0.502136 -1.22015e-19)
(0.598111 -0.543479 -1.70422e-17)
(0.552365 -0.68019 0)
(0.499466 -0.0288974 0)
(0.502912 -0.0337632 0)
(0.506024 -0.0396343 0)
(0.509068 -0.0460268 -1.26028e-18)
(0.51218 -0.0528102 1.14499e-17)
(0.515345 -0.0600112 -2.56678e-18)
(0.51849 -0.0676752 2.59593e-18)
(0.521564 -0.0758289 1.0461e-17)
(0.524551 -0.0844995 -2.64093e-18)
(0.527437 -0.0937291 1.33393e-17)
(0.530215 -0.103573 5.38843e-18)
(0.532882 -0.114091 -5.45761e-18)
(0.535438 -0.125349 5.50117e-18)
(0.537886 -0.137421 -5.57532e-18)
(0.54022 -0.150395 -1.12832e-17)
(0.542433 -0.164374 1.14083e-17)
(0.54451 -0.179486 1.1474e-17)
(0.546437 -0.195882 0)
(0.548193 -0.213747 0)
(0.549752 -0.233306 1.1836e-17)
(0.551073 -0.254833 0)
(0.552108 -0.278663 1.81907e-17)
(0.552771 -0.305218 6.13032e-18)
(0.552974 -0.335023 1.22406e-17)
(0.552565 -0.368686 1.84506e-17)
(0.551153 -0.407339 6.26312e-18)
(0.54959 -0.450668 0)
(0.541838 -0.50619 2.47591e-17)
(0.549412 -0.550879 0)
(0.50025 -0.674876 1.2007e-17)
(0.496444 -0.038916 0)
(0.499315 -0.0439836 0)
(0.501916 -0.04995 0)
(0.504591 -0.0563817 -1.0316e-17)
(0.507296 -0.0631791 0)
(0.509924 -0.070378 0)
(0.512438 -0.0780301 0)
(0.514842 -0.0861723 1.07487e-17)
(0.517142 -0.09484 0)
(0.519337 -0.104076 0)
(0.521417 -0.113927 0)
(0.523371 -0.124447 -1.12426e-17)
(0.525186 -0.135695 -1.1376e-17)
(0.526844 -0.147744 -5.73557e-18)
(0.528327 -0.160681 -4.17163e-20)
(0.52961 -0.17461 -1.17198e-17)
(0.530667 -0.189656 1.92463e-20)
(0.531466 -0.205965 1.81407e-17)
(0.531964 -0.223715 6.09258e-18)
(0.532107 -0.243119 -6.19469e-18)
(0.531821 -0.264436 -6.23957e-18)
(0.531015 -0.287978 -6.25918e-18)
(0.529549 -0.314134 -6.38061e-18)
(0.527278 -0.343378 1.95299e-17)
(0.52392 -0.376292 0)
(0.519153 -0.413769 -1.9849e-17)
(0.51311 -0.455898 -6.69537e-18)
(0.501534 -0.508056 2.84599e-19)
(0.500298 -0.553773 -2.01188e-17)
(0.449003 -0.664986 6.27193e-19)
(0.492356 -0.048542 0)
(0.494638 -0.0536729 1.03246e-17)
(0.496629 -0.0596255 -1.30209e-18)
(0.498776 -0.0660399 2.23894e-17)
(0.500958 -0.0728442 0)
(0.503025 -0.0800669 0)
(0.504956 -0.0877455 1.09045e-17)
(0.506776 -0.0959073 -1.09962e-17)
(0.508484 -0.104581 0)
(0.510059 -0.113805 0)
(0.511481 -0.123625 0)
(0.512731 -0.134096 1.15372e-17)
(0.513788 -0.14528 1.16841e-17)
(0.51463 -0.157252 -5.92525e-18)
(0.515229 -0.170097 1.80106e-17)
(0.515554 -0.183915 0)
(0.515565 -0.198826 1.2396e-17)
(0.515211 -0.214968 -1.88099e-17)
(0.514429 -0.232507 -6.36538e-18)
(0.513138 -0.251641 0)
(0.511234 -0.272609 0)
(0.508589 -0.295697 0)
(0.505013 -0.321257 0)
(0.500314 -0.349706 -6.78131e-18)
(0.49411 -0.381582 -6.9571e-18)
(0.48612 -0.417574 6.96343e-18)
(0.475898 -0.458051 7.16222e-18)
(0.460699 -0.506693 -1.42496e-17)
(0.451221 -0.552088 1.44198e-17)
(0.398736 -0.650892 -1.42152e-17)
(0.487284 -0.0577811 -1.04304e-17)
(0.489019 -0.0629864 -9.86628e-18)
(0.490443 -0.0689687 -1.99796e-18)
(0.492088 -0.0754052 -8.07218e-18)
(0.493776 -0.0822289 -1.76988e-21)
(0.495311 -0.089458 -4.13797e-18)
(0.496676 -0.0971235 4.1333e-20)
(0.497902 -0.105253 -1.13305e-17)
(0.498986 -0.113878 -8.61484e-18)
(0.499901 -0.123041 1.16339e-17)
(0.500624 -0.132788 0)
(0.501133 -0.143173 1.4936e-17)
(0.501403 -0.154256 -1.51539e-17)
(0.501405 -0.166108 -1.23049e-17)
(0.501102 -0.178808 1.87094e-17)
(0.500449 -0.192452 -1.90082e-17)
(0.499392 -0.207149 -6.38618e-18)
(0.497865 -0.223029 -6.61974e-18)
(0.495784 -0.240246 -6.61637e-18)
(0.493048 -0.25898 2.02763e-17)
(0.489523 -0.279445 0)
(0.48505 -0.301896 6.95367e-18)
(0.479402 -0.326646 -1.41838e-17)
(0.472341 -0.354051 1.45756e-17)
(0.463411 -0.384589 7.37992e-18)
(0.452362 -0.41878 1.51056e-17)
(0.438283 -0.457149 0)
(0.419718 -0.502041 1.57317e-17)
(0.402751 -0.5459 0)
(0.350094 -0.632717 -1.62629e-17)
(0.481225 -0.0665486 1.06326e-17)
(0.482425 -0.0718103 5.39478e-18)
(0.483289 -0.077799 -5.46333e-18)
(0.48442 -0.0842219 4.15185e-18)
(0.485594 -0.0910206 1.53646e-21)
(0.486579 -0.0982131 1.51646e-21)
(0.48736 -0.105829 -1.0023e-17)
(0.487978 -0.113898 2.87641e-18)
(0.488429 -0.12245 1.76716e-17)
(0.488681 -0.131525 -1.49327e-17)
(0.488704 -0.141166 3.03311e-18)
(0.488471 -0.151425 -1.53753e-17)
(0.487951 -0.162358 1.24802e-17)
(0.487107 -0.17403 1.26755e-17)
(0.485892 -0.186518 -6.40063e-18)
(0.484251 -0.199908 1.30918e-17)
(0.482118 -0.214302 0)
(0.479413 -0.229819 6.75609e-18)
(0.476036 -0.246595 6.92852e-18)
(0.471866 -0.264791 -1.40444e-17)
(0.466748 -0.284596 0)
(0.460494 -0.306231 -7.32012e-18)
(0.452845 -0.329961 2.94564e-20)
(0.443534 -0.356086 -1.51729e-17)
(0.432046 -0.385011 1.56442e-17)
(0.418152 -0.417113 -2.39388e-17)
(0.400594 -0.452974 0)
(0.378991 -0.493911 -1.65635e-17)
(0.35542 -0.535282 1.42911e-19)
(0.303489 -0.610643 1.75567e-17)
(0.474177 -0.0747329 5.45189e-18)
(0.47485 -0.0800296 -4.81771e-18)
(0.475164 -0.0860011 4.88201e-18)
(0.47578 -0.0923857 -1.13292e-17)
(0.476438 -0.0991342 -5.7515e-18)
(0.476875 -0.106264 -1.45445e-18)
(0.477075 -0.113803 5.91737e-18)
(0.477087 -0.121777 1.34794e-17)
(0.476906 -0.130216 6.09439e-18)
(0.476492 -0.139158 -3.08536e-18)
(0.475811 -0.148643 3.13714e-18)
(0.47483 -0.158719 -3.20605e-18)
(0.473513 -0.16944 -1.2979e-17)