/*--------------------------------*- C++ -*----------------------------------*\
  =========                 |
  \\      /  F ield         | OpenFOAM: The Open Source CFD Toolbox
   \\    /   O peration     | Website:  https://openfoam.org
    \\  /    A nd           | Version:  11
     \\/     M anipulation  |
\*---------------------------------------------------------------------------*/
FoamFile
{
    format      ascii;
    class       volScalarField;
    location    "5.6";
    object      p;
}
// * * * * * * * * * * * * * * * * * * * * * * * * * * * * * * * * * * * * * //

dimensions      [0 2 -2 0 0 0 0];

internalField   nonuniform List<scalar> 
12600
(
1.01645
1.01631
1.01624
1.0162
1.01616
1.0161
1.01603
1.01594
1.01584
1.01572
1.01557
1.01539
1.01518
1.01491
1.01459
1.01421
1.01373
1.01315
1.01243
1.01156
1.01048
1.00916
1.00753
1.00553
1.00306
0.999994
0.996195
0.991467
0.985598
0.978216
1.01638
1.01631
1.01624
1.0162
1.01616
1.0161
1.01603
1.01594
1.01584
1.01572
1.01558
1.0154
1.01519
1.01493
1.01461
1.01423
1.01376
1.01319
1.01248
1.01162
1.01055
1.00924
1.00764
1.00567
1.00322
1.00019
0.996435
0.991759
0.985926
0.978644
1.01635
1.01631
1.01626
1.01621
1.01616
1.01611
1.01604
1.01596
1.01586
1.01574
1.0156
1.01542
1.01522
1.01496
1.01465
1.01428
1.01382
1.01326
1.01257
1.01172
1.01068
1.00941
1.00784
1.00591
1.00352
1.00056
0.996879
0.992299
0.98655
0.979411
1.01633
1.0163
1.01626
1.01621
1.01617
1.01612
1.01605
1.01597
1.01587
1.01576
1.01562
1.01545
1.01525
1.01501
1.01471
1.01434
1.0139
1.01336
1.01269
1.01188
1.01088
1.00965
1.00813
1.00627
1.00396
1.0011
0.997534
0.993095
0.987497
0.980543
1.01632
1.0163
1.01626
1.01622
1.01618
1.01613
1.01606
1.01599
1.0159
1.01579
1.01565
1.01549
1.0153
1.01507
1.01478
1.01443
1.01401
1.01349
1.01286
1.01208
1.01113
1.00996
1.00851
1.00673
1.00453
1.0018
0.998391
0.99414
0.988753
0.982056
1.01631
1.0163
1.01627
1.01623
1.01619
1.01614
1.01608
1.01601
1.01592
1.01582
1.01569
1.01554
1.01536
1.01514
1.01487
1.01454
1.01414
1.01366
1.01306
1.01233
1.01143
1.01033
1.00898
1.0073
1.00523
1.00266
0.999444
0.995426
0.990312
0.983938
1.01631
1.0163
1.01628
1.01624
1.0162
1.01616
1.0161
1.01604
1.01595
1.01586
1.01574
1.0156
1.01543
1.01522
1.01497
1.01467
1.0143
1.01385
1.0133
1.01262
1.01179
1.01077
1.00952
1.00797
1.00605
1.00367
1.00068
0.996943
0.99216
0.98618
1.01632
1.01631
1.01629
1.01626
1.01622
1.01618
1.01613
1.01606
1.01599
1.0159
1.01579
1.01566
1.01551
1.01532
1.01509
1.01481
1.01448
1.01407
1.01356
1.01295
1.01219
1.01127
1.01013
1.00872
1.00698
1.00481
1.00209
0.998676
0.994283
0.988769
1.01633
1.01632
1.0163
1.01627
1.01624
1.0162
1.01615
1.0161
1.01603
1.01595
1.01585
1.01574
1.0156
1.01543
1.01522
1.01498
1.01467
1.01431
1.01386
1.01331
1.01264
1.01182
1.01081
1.00956
1.00801
1.00608
1.00366
1.00061
0.996663
0.991686
1.01634
1.01633
1.01631
1.01629
1.01626
1.01622
1.01618
1.01613
1.01607
1.016
1.01591
1.01581
1.01569
1.01554
1.01536
1.01515
1.01489
1.01457
1.01418
1.01371
1.01313
1.01242
1.01154
1.01046
1.00912
1.00746
1.00536
1.00272
0.999274
0.994907
1.01635
1.01634
1.01633
1.01631
1.01628
1.01625
1.01621
1.01617
1.01612
1.01606
1.01598
1.0159
1.01579
1.01567
1.01552
1.01533
1.01512
1.01485
1.01452
1.01413
1.01364
1.01305
1.01232
1.01143
1.01032
1.00893
1.00718
1.00498
1.00209
0.998397
1.01636
1.01636
1.01635
1.01633
1.01631
1.01628
1.01625
1.01621
1.01617
1.01612
1.01605
1.01598
1.0159
1.0158
1.01568
1.01553
1.01535
1.01514
1.01488
1.01457
1.01419
1.01372
1.01315
1.01244
1.01157
1.01048
1.0091
1.00736
1.00506
1.00211
1.01638
1.01637
1.01636
1.01635
1.01633
1.01631
1.01628
1.01625
1.01622
1.01618
1.01613
1.01607
1.01601
1.01593
1.01584
1.01573
1.0156
1.01545
1.01526
1.01503
1.01475
1.01441
1.014
1.01349
1.01286
1.01208
1.01109
1.00983
1.00817
1.006
1.01639
1.01639
1.01638
1.01637
1.01636
1.01634
1.01632
1.01629
1.01627
1.01624
1.01621
1.01617
1.01612
1.01607
1.01601
1.01594
1.01586
1.01576
1.01564
1.0155
1.01533
1.01512
1.01487
1.01456
1.01418
1.01371
1.01312
1.01236
1.01134
1.00999
1.01641
1.01641
1.0164
1.01639
1.01638
1.01637
1.01635
1.01634
1.01632
1.0163
1.01628
1.01626
1.01624
1.01621
1.01619
1.01615
1.01612
1.01608
1.01603
1.01598
1.01591
1.01584
1.01575
1.01565
1.01552
1.01536
1.01517
1.01491
1.01454
1.01403
1.01643
1.01643
1.01642
1.01642
1.01641
1.0164
1.01639
1.01638
1.01638
1.01637
1.01636
1.01636
1.01636
1.01636
1.01636
1.01637
1.01638
1.0164
1.01642
1.01646
1.0165
1.01656
1.01663
1.01673
1.01685
1.01701
1.0172
1.01744
1.01772
1.01803
1.01645
1.01645
1.01645
1.01644
1.01644
1.01643
1.01643
1.01643
1.01643
1.01643
1.01644
1.01645
1.01647
1.0165
1.01653
1.01658
1.01664
1.01671
1.01681
1.01693
1.01708
1.01727
1.0175
1.0178
1.01816
1.01862
1.01919
1.01991
1.02081
1.02192
1.01647
1.01647
1.01647
1.01646
1.01646
1.01646
1.01646
1.01647
1.01648
1.0165
1.01652
1.01655
1.01659
1.01664
1.0167
1.01679
1.01689
1.01702
1.01719
1.01739
1.01765
1.01796
1.01835
1.01884
1.01944
1.02018
1.02112
1.02228
1.02377
1.02562
1.01649
1.01649
1.01649
1.01649
1.01649
1.01649
1.0165
1.01651
1.01653
1.01656
1.01659
1.01664
1.0167
1.01677
1.01687
1.01699
1.01714
1.01732
1.01756
1.01784
1.0182
1.01863
1.01917
1.01984
1.02066
1.02168
1.02295
1.02454
1.02656
1.02908
1.01651
1.01651
1.01651
1.01651
1.01651
1.01652
1.01654
1.01655
1.01658
1.01662
1.01666
1.01673
1.0168
1.0169
1.01703
1.01718
1.01737
1.01761
1.01791
1.01827
1.01872
1.01927
1.01995
1.02079
1.02182
1.02309
1.02467
1.02664
1.02913
1.03224
1.01653
1.01653
1.01653
1.01653
1.01654
1.01655
1.01657
1.01659
1.01663
1.01667
1.01673
1.01681
1.0169
1.01703
1.01718
1.01736
1.0176
1.01789
1.01824
1.01868
1.01922
1.01988
1.02069
1.02168
1.02291
1.02441
1.02627
1.02856
1.03146
1.03505
1.01655
1.01655
1.01655
1.01655
1.01656
1.01658
1.0166
1.01663
1.01667
1.01673
1.0168
1.01689
1.017
1.01714
1.01732
1.01754
1.01781
1.01814
1.01855
1.01906
1.01968
1.02044
1.02137
1.02251
1.02391
1.02562
1.02772
1.0303
1.03353
1.03751
1.01658
1.01657
1.01657
1.01657
1.01658
1.0166
1.01663
1.01666
1.01671
1.01677
1.01685
1.01696
1.01709
1.01725
1.01745
1.01769
1.018
1.01837
1.01884
1.0194
1.0201
1.02095
1.02199
1.02326
1.02481
1.02671
1.02902
1.03184
1.03533
1.03959
1.0166
1.01659
1.01659
1.01659
1.0166
1.01662
1.01665
1.01669
1.01675
1.01682
1.01691
1.01702
1.01716
1.01734
1.01756
1.01783
1.01817
1.01858
1.01909
1.01972
1.02048
1.02141
1.02255
1.02393
1.02562
1.02767
1.03016
1.03318
1.03687
1.04133
1.01662
1.01662
1.01661
1.01661
1.01662
1.01664
1.01668
1.01672
1.01678
1.01686
1.01695
1.01708
1.01723
1.01742
1.01766
1.01796
1.01832
1.01877
1.01932
1.01999
1.02081
1.02181
1.02303
1.02452
1.02632
1.0285
1.03114
1.03432
1.03816
1.04274
1.01664
1.01664
1.01662
1.01662
1.01664
1.01666
1.0167
1.01674
1.01681
1.01689
1.01699
1.01713
1.01729
1.0175
1.01775
1.01807
1.01845
1.01893
1.01951
1.02022
1.02109
1.02215
1.02345
1.02501
1.02691
1.02921
1.03196
1.03527
1.03921
1.04386
1.01667
1.01666
1.01664
1.01663
1.01665
1.01667
1.01671
1.01676
1.01683
1.01692
1.01703
1.01717
1.01734
1.01756
1.01782
1.01815
1.01856
1.01906
1.01967
1.02041
1.02132
1.02243
1.02378
1.02541
1.02739
1.02977
1.03262
1.03602
1.04004
1.04473
1.0167
1.01668
1.01665
1.01664
1.01666
1.01669
1.01673
1.01678
1.01685
1.01694
1.01705
1.0172
1.01738
1.0176
1.01788
1.01822
1.01864
1.01915
1.01979
1.02056
1.0215
1.02264
1.02404
1.02572
1.02776
1.0302
1.03312
1.03658
1.04067
1.04541
1.01674
1.01668
1.01664
1.01665
1.01667
1.01669
1.01673
1.01679
1.01686
1.01695
1.01707
1.01722
1.0174
1.01763
1.01792
1.01826
1.01869
1.01922
1.01987
1.02066
1.02162
1.02279
1.02421
1.02593
1.028
1.03049
1.03346
1.03696
1.04109
1.04588
1.01682
1.01669
1.01664
1.01665
1.01667
1.0167
1.01674
1.01679
1.01686
1.01696
1.01708
1.01723
1.01742
1.01765
1.01794
1.01829
1.01873
1.01926
1.01991
1.02071
1.02169
1.02287
1.02431
1.02604
1.02814
1.03065
1.03364
1.03716
1.04128
1.04605
0.971809
0.969228
0.967115
0.965302
0.963398
0.96132
0.959135
0.956895
0.954607
0.952264
0.949859
0.947384
0.944823
0.942152
0.93934
0.936351
0.933134
0.929629
0.925758
0.921419
0.916481
0.910768
0.904045
0.895992
0.886174
0.873897
0.858678
0.836626
0.818012
0.760089
0.97308
0.97087
0.968913
0.96714
0.965302
0.963354
0.961366
0.959371
0.957356
0.955303
0.953201
0.95104
0.948805
0.946474
0.94402
0.941411
0.938605
0.935551
0.932182
0.92841
0.924123
0.91917
0.913348
0.906386
0.897903
0.887336
0.874147
0.855817
0.837901
0.790584
0.97361
0.971838
0.970245
0.968659
0.967012
0.96532
0.963615
0.961901
0.960164
0.958391
0.956578
0.954717
0.952796
0.950798
0.948701
0.946478
0.944095
0.941508
0.938661
0.93548
0.93187
0.927705
0.922815
0.916973
0.909852
0.90101
0.889897
0.874828
0.858711
0.820676
0.974807
0.97344
0.972194
0.97081
0.969346
0.967877
0.966415
0.964948
0.963465
0.961962
0.960435
0.958877
0.957277
0.955621
0.95389
0.952064
0.950114
0.948004
0.945689
0.94311
0.940187
0.936819
0.932863
0.928136
0.92236
0.915197
0.906101
0.893988
0.880124
0.85021
0.976462
0.975392
0.974416
0.973228
0.971961
0.970725
0.969518
0.968312
0.967096
0.965872
0.964638
0.963388
0.962113
0.960803
0.959445
0.958023
0.956515
0.954893
0.953122
0.951155
0.94893
0.946365
0.943346
0.939726
0.935276
0.929739
0.922598
0.913223
0.901781
0.878992
0.978543
0.977742
0.97703
0.976059
0.975006
0.974006
0.97305
0.972099
0.971147
0.970199
0.969256
0.968314
0.967367
0.966408
0.965428
0.964415
0.963355
0.962228
0.961006
0.959655
0.958127
0.95636
0.954265
0.951727
0.948561
0.944576
0.939301
0.932432
0.923404
0.906796
0.981041
0.980496
0.980035
0.979279
0.978438
0.977669
0.976959
0.976263
0.975576
0.974906
0.974258
0.973628
0.973012
0.972407
0.971808
0.971209
0.9706
0.969968
0.969295
0.968557
0.967719
0.966737
0.965542
0.964048
0.96211
0.959585
0.956063
0.951459
0.944746
0.933396
0.983953
0.983649
0.983429
0.982886
0.98226
0.981722
0.981257
0.980816
0.980393
0.980001
0.979646
0.979327
0.979042
0.978791
0.978573
0.978387
0.978226
0.978086
0.977954
0.977818
0.977653
0.977429
0.977099
0.976596
0.975812
0.97464
0.972735
0.970139
0.965591
0.958604
0.987265
0.987192
0.9872
0.986868
0.986455
0.986146
0.985922
0.985732
0.985571
0.985455
0.985391
0.98538
0.985424
0.985524
0.985683
0.985903
0.986183
0.986523
0.986919
0.987364
0.987846
0.988345
0.988829
0.989253
0.989533
0.989592
0.989145
0.988297
0.985714
0.982269
0.990957
0.991099
0.991322
0.991197
0.990996
0.990911
0.990924
0.990981
0.991078
0.991233
0.991455
0.991748
0.992113
0.992556
0.993082
0.993697
0.994404
0.995207
0.996108
0.997106
0.998198
0.999372
1.00061
1.00188
1.00312
1.00428
1.00512
1.00575
1.00491
1.00423
0.994993
0.995337
0.995758
0.995834
0.995842
0.995977
0.996219
0.996516
0.996864
0.997282
0.997781
0.998367
0.999043
0.999817
1.0007
1.00169
1.0028
1.00404
1.00542
1.00693
1.00859
1.01038
1.0123
1.01433
1.01642
1.01853
1.02046
1.02233
1.02297
1.02437
0.999327
0.999854
1.00046
1.00073
1.00094
1.00128
1.00175
1.00227
1.00286
1.00353
1.0043
1.00516
1.00613
1.00722
1.00843
1.00978
1.01127
1.01292
1.01473
1.01671
1.01888
1.02122
1.02375
1.02644
1.02925
1.03216
1.03501
1.03786
1.03972
1.04261
1.00389
1.00459
1.00535
1.0058
1.00621
1.00676
1.00743
1.00817
1.00899
1.00989
1.01091
1.01203
1.01328
1.01466
1.01617
1.01785
1.01968
1.0217
1.0239
1.0263
1.02892
1.03174
1.03478
1.03803
1.04145
1.04501
1.04859
1.0522
1.05504
1.05888
1.00862
1.00945
1.01036
1.01098
1.01158
1.01231
1.01317
1.01411
1.01514
1.01627
1.01751
1.01887
1.02037
1.02201
1.0238
1.02576
1.02791
1.03024
1.03279
1.03555
1.03855
1.04177
1.04524
1.04894
1.05283
1.05689
1.06101
1.06517
1.06872
1.07309
1.0134
1.01437
1.01539
1.01617
1.01693
1.01784
1.01887
1.02
1.02121
1.02253
1.02398
1.02556
1.02727
1.02914
1.03118
1.03339
1.0358
1.03841
1.04124
1.0443
1.04761
1.05116
1.05496
1.059
1.06324
1.06766
1.07214
1.07663
1.0806
1.08509
1.01816
1.01922
1.02034
1.02126
1.02218
1.02324
1.02442
1.02571
1.02709
1.02858
1.0302
1.03196
1.03387
1.03593
1.03817
1.0406
1.04322
1.04605
1.04911
1.05241
1.05595
1.05975
1.06379
1.06807
1.07255
1.07718
1.08186
1.08648
1.09061
1.09492
1.02277
1.02391
1.02511
1.02615
1.02721
1.0284
1.02971
1.03113
1.03265
1.03428
1.03605
1.03796
1.04002
1.04225
1.04465
1.04724
1.05003
1.05303
1.05627
1.05974
1.06345
1.06741
1.07161
1.07603
1.08064
1.08537
1.09011
1.09473
1.09887
1.10284
1.02714
1.02835
1.0296
1.03074
1.03191
1.03321
1.03463
1.03616
1.03779
1.03954
1.04142
1.04345
1.04563
1.04797
1.0505
1.05321
1.05612
1.05924
1.06259
1.06617
1.06999
1.07404
1.07832
1.08279
1.08743
1.09215
1.09685
1.10135
1.10537
1.10884
1.03119
1.03244
1.03373
1.03495
1.03621
1.03759
1.0391
1.0407
1.04242
1.04425
1.04622
1.04833
1.05059
1.05302
1.05562
1.05841
1.06139
1.06458
1.06799
1.07163
1.07548
1.07956
1.08384
1.08829
1.09287
1.09749
1.10203
1.10629
1.11
1.1128
1.03483
1.03611
1.03742
1.0387
1.04003
1.04147
1.04303
1.0447
1.04646
1.04835
1.05037
1.05253
1.05484
1.05731
1.05996
1.06278
1.06579
1.069
1.07242
1.07605
1.07989
1.08393
1.08814
1.0925
1.09693
1.10135
1.10562
1.1095
1.11274
1.11481
1.03803
1.03931
1.04063
1.04195
1.04333
1.04481
1.0464
1.04809
1.04989
1.05181
1.05385
1.05603
1.05835
1.06083
1.06347
1.06629
1.06929
1.07248
1.07586
1.07943
1.0832
1.08714
1.09122
1.0954
1.09962
1.10375
1.10765
1.11104
1.1137
1.11491
1.04074
1.04203
1.04335
1.04468
1.04609
1.04759
1.04919
1.05089
1.05269
1.0546
1.05664
1.0588
1.06111
1.06356
1.06617
1.06895
1.07189
1.07502
1.07831
1.08179
1.08543
1.08921
1.09311
1.09705
1.10098
1.10474
1.10818
1.11098
1.11299
1.11284
1.04299
1.04427
1.04557
1.04691
1.04832
1.04982
1.05141
1.05309
1.05487
1.05676
1.05876
1.06089
1.06315
1.06555
1.06809
1.07079
1.07365
1.07667
1.07984
1.08317
1.08664
1.09022
1.09387
1.09753
1.10109
1.10441
1.10733
1.10942
1.11078
1.1089
1.04479
1.04606
1.04734
1.04866
1.05006
1.05153
1.05309
1.05474
1.05648
1.05832
1.06027
1.06234
1.06453
1.06684
1.06929
1.07188
1.07462
1.0775
1.08051
1.08366
1.08692
1.09025
1.09361
1.09691
1.10006
1.10287
1.10519
1.10647
1.10713
1.10358
1.0462
1.04744
1.04869
1.04999
1.05136
1.0528
1.05432
1.05592
1.0576
1.05938
1.06126
1.06324
1.06533
1.06754
1.06988
1.07233
1.07492
1.07763
1.08045
1.08338
1.08638
1.08942
1.09243
1.09533
1.09801
1.10023
1.10187
1.10221
1.10202
1.0964
1.04728
1.04849
1.04971
1.05097
1.05229
1.05368
1.05514
1.05668
1.05829
1.05999
1.06177
1.06365
1.06563
1.06772
1.06991
1.07221
1.07462
1.07713
1.07973
1.0824
1.08511
1.08782
1.09045
1.09289
1.09503
1.09659
1.09746
1.09669
1.0955
1.08732
1.0481
1.04929
1.05046
1.05167
1.05295
1.05429
1.05569
1.05715
1.05869
1.0603
1.06198
1.06376
1.06561
1.06756
1.06959
1.07171
1.07392
1.0762
1.07854
1.08093
1.08331
1.08564
1.08783
1.08975
1.09127
1.09208
1.09206
1.09
1.08769
1.07656
1.04883
1.04994
1.05099
1.05211
1.05331
1.05457
1.0559
1.05729
1.05873
1.06024
1.06181
1.06346
1.06518
1.06697
1.06883
1.07075
1.07274
1.07478
1.07685
1.07893
1.08095
1.08287
1.08458
1.08594
1.08678
1.08675
1.08576
1.08225
1.07874
1.0642
1.04972
1.05066
1.05152
1.05258
1.05375
1.05495
1.0562
1.05752
1.05889
1.06032
1.0618
1.06334
1.06493
1.06655
1.06822
1.06994
1.07168
1.07345
1.0752
1.07692
1.07853
1.07996
1.08112
1.08182
1.08188
1.08086
1.07877
1.07352
1.06889
1.05025
1.05062
1.05099
1.05144
1.05237
1.05351
1.05467
1.05581
1.05698
1.05822
1.05953
1.06089
1.06229
1.06371
1.06518
1.06667
1.06818
1.06969
1.07119
1.07265
1.07402
1.07523
1.0762
1.07681
1.07684
1.07611
1.07407
1.07094
1.06344
1.05838
1.03441
1.01755
0.9988
0.977014
0.953295
0.928051
0.900831
0.871503
0.840728
0.80959
0.779243
0.751225
0.725978
0.705364
0.693866
0.693469
0.700482
0.70544
0.70919
0.712177
0.713769
0.714498
0.713654
0.713115
0.713537
0.714834
0.715874
0.715119
0.710733
0.700876
0.685195
1.04783
1.03203
1.01292
0.992227
0.969677
0.944963
0.917376
0.887305
0.855078
0.821413
0.787873
0.755488
0.725967
0.704217
0.696966
0.701295
0.706189
0.710715
0.713484
0.714982
0.715823
0.714072
0.71312
0.713181
0.713459
0.713633
0.711646
0.705734
0.695022
0.680339
1.05277
1.03881
1.02189
1.00241
0.980552
0.95588
0.928319
0.898531
0.866678
0.833393
0.799637
0.766755
0.736431
0.712709
0.702894
0.70481
0.708341
0.711558
0.713628
0.715753
0.715706
0.71399
0.713318
0.713551
0.715197
0.718393
0.721364
0.721018
0.715654
0.701794
1.06352
1.05169
1.0366
1.01946
0.999712
0.976334
0.949416
0.919291
0.886257
0.851141
0.815364
0.780588
0.748484
0.723142
0.71091
0.710545
0.712865
0.714755
0.715212
0.715561
0.714588
0.713853
0.71301
0.71364
0.718331
0.72815
0.739376
0.745852
0.742257
0.723877
1.06793
1.05807
1.04545
1.03055
1.01295
0.991724
0.966542
0.937514
0.904892
0.869322
0.832192
0.79544
0.761217
0.733628
0.718698
0.716156
0.717735
0.719304
0.719399
0.718762
0.716647
0.71416
0.7127
0.715108
0.723953
0.739077
0.752293
0.75415
0.734981
0.699925
1.07137
1.06349
1.05274
1.03959
1.02358
1.00391
0.980073
0.952004
0.919893
0.884257
0.846315
0.808094
0.772152
0.742604
0.72539
0.721027
0.721986
0.723473
0.723885
0.723525
0.721668
0.719324
0.718658
0.722343
0.731506
0.743155
0.748188
0.738025
0.702153
0.650348
1.07318
1.06689
1.05803
1.04673
1.03249
1.01452
0.992184
0.96518
0.933578
0.897843
0.859137
0.819562
0.781984
0.750648
0.731462
0.725547
0.725973
0.727466
0.728166
0.72798
0.726596
0.725306
0.726419
0.731208
0.739055
0.74434
0.738636
0.715064
0.671742
0.616981
1.07402
1.06919
1.06199
1.05234
1.03977
1.02351
1.00281
0.977134
0.94634
0.910761
0.871481
0.830653
0.791425
0.758288
0.737213
0.729837
0.729751
0.731313
0.732313
0.732364
0.731477
0.731105
0.733129
0.737872
0.742917
0.742038
0.729091
0.700201
0.660107
0.613025
1.07414
1.07056
1.06484
1.0567
1.04568
1.03104
1.01194
0.987679
0.957892
0.92273
0.883138
0.841254
0.800457
0.765541
0.74264
0.733883
0.733325
0.734998
0.736295
0.736609
0.736201
0.736551
0.738949
0.74284
0.744766
0.739016
0.721656
0.691161
0.658485
0.624635
1.07376
1.07127
1.06683
1.06007
1.05049
1.03738
1.01984
0.997004
0.968316
0.933727
0.894017
0.851259
0.80901
0.772381
0.747746
0.737715
0.736758
0.738595
0.740202
0.740768
0.74075
0.741549
0.743857
0.746425
0.745433
0.736067
0.716066
0.686368
0.66233
0.642023
1.07305
1.07148
1.06818
1.06263
1.05437
1.04271
1.02669
1.0053
0.977787
0.943894
0.904216
0.860734
0.817137
0.778858
0.75257
0.741371
0.740091
0.742148
0.744075
0.744877
0.745133
0.746131
0.747958
0.748963
0.745345
0.733294
0.712775
0.687142
0.669024
0.653368
1.0721
1.07133
1.06901
1.06453
1.05747
1.04719
1.03263
1.01268
0.986398
0.953314
0.91381
0.869741
0.824887
0.78501
0.757135
0.74486
0.743335
0.745666
0.747913
0.748892
0.749294
0.750246
0.751308
0.750745
0.744838
0.731468
0.711714
0.690963
0.67533
0.656311
1.071
1.07091
1.06943
1.06592
1.05995
1.05093
1.03776
1.01922
0.994218
0.962035
0.922831
0.878299
0.832279
0.790851
0.761443
0.748181
0.746493
0.749145
0.751694
0.752783
0.753201
0.753908
0.754083
0.751965
0.744328
0.730704
0.712537
0.692593
0.674869
0.654517
1.06979
1.07029
1.06954
1.06684
1.06192
1.05405
1.04219
1.02504
1.00132
0.970108
0.93131
0.886432
0.839327
0.796392
0.765502
0.75134
0.749574
0.752592
0.755413
0.756531
0.756827
0.757199
0.756328
0.752522
0.743877
0.730964
0.711802
0.689985
0.67102
0.652465
1.06852
1.06952
1.06942
1.06748
1.06344
1.05664
1.04602
1.0302
1.00778
0.977588
0.939289
0.894166
0.846053
0.80165
0.769318
0.754343
0.752592
0.756006
0.759059
0.760123
0.760182
0.760082
0.757678
0.752387
0.744472
0.730119
0.707036
0.684765
0.668078
0.653951
1.06722
1.06864
1.0691
1.06784
1.06461
1.05879
1.04933
1.03479
1.01364
0.984521
0.946801
0.901527
0.852477
0.806641
0.772903
0.757197
0.755549
0.759388
0.762625
0.763556
0.763368
0.762467
0.758135
0.753038
0.744721
0.725386
0.700011
0.679401
0.667732
0.658982
1.0659
1.06768
1.06863
1.06798
1.06548
1.06055
1.05217
1.03887
1.01898
0.990952
0.95388
0.908539
0.858617
0.811377
0.776264
0.759911
0.75845
0.762737
0.76611
0.766836
0.766287
0.76423
0.758808
0.754118
0.741589
0.718064
0.693179
0.675101
0.668389
0.662056
1.06458
1.06667
1.06804
1.06793
1.06611
1.06201
1.05462
1.04248
1.02384
0.996919
0.960554
0.915223
0.864489
0.81587
0.779407
0.762492
0.761302
0.76605
0.769515
0.770014
0.768595
0.764738
0.760497
0.753105
0.735572
0.710425
0.687709
0.672671
0.668479
0.65955
1.06327
1.06561
1.06735
1.06773
1.0665
1.06319
1.05673
1.04569
1.02825
1.00246
0.966851
0.921599
0.870106
0.820131
0.782341
0.764945
0.764109
0.769331
0.772847
0.773004
0.770435
0.765252
0.76118
0.749443
0.728448
0.703559
0.683574
0.670658
0.667124
0.654772
1.06198
1.06452
1.06659
1.0674
1.06675
1.06413
1.05853
1.04854
1.03227
1.00761
0.972797
0.927686
0.875484
0.824169
0.785075
0.767267
0.76687
0.772581
0.77613
0.775503
0.771562
0.766693
0.759619
0.743921
0.721366
0.697667
0.68052
0.668253
0.663718
0.648523
1.0607
1.06341
1.06575
1.06697
1.06684
1.06486
1.06007
1.05108
1.03594
1.01239
0.978416
0.933502
0.880635
0.827993
0.787619
0.769466
0.769581
0.775808
0.779295
0.777577
0.772539
0.767181
0.756177
0.737866
0.71455
0.692908
0.677698
0.665184
0.658316
0.640231
1.05944
1.06228
1.06486
1.06644
1.06679
1.06542
1.06138
1.05332
1.03928
1.01684
0.983729
0.939063
0.885571
0.831609
0.789977
0.771617
0.772254
0.77903
0.782203
0.778961
0.773981
0.766005
0.751711
0.731736
0.708692
0.68899
0.674762
0.661598
0.651033
0.630691
1.05823
1.06115
1.06393
1.06584
1.06663
1.06582
1.06248
1.05532
1.04232
1.02098
0.988759
0.944386
0.890302
0.835025
0.792153
0.773616
0.774908
0.782232
0.784714
0.78022
0.774637
0.763536
0.747004
0.726074
0.703567
0.685531
0.671368
0.657274
0.642714
0.620781
1.05706
1.06002
1.06296
1.06517
1.06637
1.06608
1.06341
1.05708
1.0451
1.02485
0.993526
0.949487
0.894845
0.838249
0.794164
0.775481
0.77755
0.785362
0.786404
0.781936
0.773953
0.760327
0.742482
0.720743
0.699067
0.68211
0.667427
0.651862
0.634151
0.611071
1.05595
1.0589
1.06197
1.06444
1.06602
1.0662
1.06418
1.05865
1.04763
1.02845
0.998041
0.954369
0.899193
0.841275
0.795984
0.777202
0.780167
0.788164
0.788033
0.782855
0.772207
0.756999
0.737967
0.715813
0.695019
0.678493
0.663007
0.645648
0.625774
0.601803
1.05489
1.05781
1.06095
1.06365
1.06559
1.06624
1.0648
1.06003
1.04995
1.03181
1.00235
0.959086
0.903402
0.84415
0.797726
0.778894
0.78275
0.790492
0.789853
0.782552
0.769933
0.753769
0.733528
0.71119
0.691143
0.674668
0.658059
0.639025
0.617463
0.593112
1.05392
1.05677
1.05993
1.06282
1.06507
1.06618
1.06531
1.06125
1.05205
1.03492
1.00637
0.963528
0.907355
0.846743
0.798963
0.780196
0.785118
0.792831
0.790842
0.781286
0.767757
0.750461
0.729278
0.706914
0.687431
0.670731
0.653112
0.632409
0.609038
0.584937
1.05306
1.05577
1.05894
1.062
1.06447
1.06591
1.06564
1.06232
1.05405
1.03799
1.0104
0.968044
0.911498
0.849742
0.801123
0.781905
0.787586
0.794905
0.791064
0.779604
0.765466
0.746954
0.72486
0.702416
0.683297
0.66572
0.645581
0.623389
0.600639
0.577514
1.05233
1.05478
1.05797
1.06127
1.06408
1.06583
1.06593
1.06312
1.05552
1.04029
1.01343
0.971266
0.914057
0.850755
0.801207
0.782641
0.789165
0.795632
0.790689
0.77875
0.763614
0.744142
0.721369
0.698998
0.680199
0.662767
0.642497
0.618651
0.593415
0.569739
1.05177
1.05368
1.05652
1.05984
1.06299
1.06529
1.06612
1.06425
1.05787
1.04408
1.01872
0.977662
0.92009
0.855241
0.803718
0.784198
0.790303
0.795529
0.789177
0.776476
0.760049
0.739162
0.715656
0.6934
0.674569
0.655688
0.63281
0.605748
0.578435
0.55896
0.553564
0.548086
0.535557
0.522484
0.508413
0.504281
0.528375
0.578794
0.632315
0.680067
0.721949
0.756961
0.785313
0.808518
0.827796
0.843939
0.857704
0.869753
0.880584
0.89057
0.900003
0.909067
0.917963
0.926717
0.935624
0.944458
0.954016
0.963087
0.975231
0.98073
0.540781
0.528165
0.505764
0.48435
0.469435
0.470489
0.494176
0.539735
0.598351
0.656655
0.707313
0.747903
0.779628
0.804998
0.825795
0.842896
0.857146
0.869321
0.880015
0.889692
0.898709
0.907293
0.915663
0.92386
0.932114
0.940182
0.948681
0.956359
0.965692
0.972142
0.527841
0.508029
0.476119
0.443576
0.423684
0.427298
0.453725
0.496518
0.554831
0.621128
0.681862
0.731507
0.769614
0.798911
0.822163
0.840771
0.855955
0.868616
0.879423
0.888941
0.897612
0.905741
0.913581
0.921257
0.928941
0.93657
0.944456
0.952197
0.960694
0.969389
0.522153
0.495854
0.455034
0.410324
0.380559
0.380235
0.408635
0.4543
0.514035
0.585175
0.657056
0.717508
0.763566
0.798077
0.824351
0.844419
0.860271
0.873127
0.883803
0.892968
0.901133
0.908677
0.915899
0.922998
0.930143
0.937388
0.944872
0.952538
0.960475
0.968608
0.529999
0.497732
0.449164
0.39449
0.35354
0.345583
0.370131
0.41607
0.476795
0.550756
0.62974
0.700906
0.757132
0.798986
0.829292
0.851334
0.867893
0.880694
0.890891
0.899344
0.90665
0.913257
0.919509
0.925657
0.931885
0.938295
0.944956
0.95189
0.95908
0.966462
0.553041
0.5168
0.461652
0.398207
0.349869
0.331651
0.347383
0.387595
0.445806
0.519268
0.601601
0.68125
0.748435
0.79936
0.835493
0.860715
0.878415
0.891171
0.900648
0.908011
0.914048
0.919309
0.924194
0.928995
0.93393
0.939144
0.944719
0.95067
0.957057
0.963824
0.589017
0.551215
0.493207
0.425156
0.3674
0.337985
0.341697
0.373497
0.426443
0.496777
0.579103
0.663406
0.738943
0.79926
0.843311
0.873535
0.893534
0.906569
0.915164
0.921024
0.925269
0.928638
0.931637
0.934617
0.937829
0.941473
0.945667
0.950422
0.955715
0.961477
0.628234
0.59192
0.535317
0.467702
0.405145
0.365128
0.355284
0.374736
0.418985
0.484114
0.564068
0.649286
0.730009
0.798992
0.851848
0.889017
0.91316
0.927717
0.935864
0.940051
0.941995
0.942816
0.943209
0.943637
0.944409
0.945826
0.947987
0.95108
0.954976
0.959476
0.658843
0.62688
0.575529
0.512824
0.450772
0.403938
0.38224
0.388716
0.421736
0.477917
0.551976
0.635263
0.718181
0.793963
0.855509
0.901786
0.933281
0.95233
0.962023
0.965413
0.965076
0.962881
0.960107
0.957148
0.954467
0.952707
0.952168
0.952741
0.954399
0.957179
0.668375
0.645582
0.602895
0.548015
0.489503
0.439912
0.40958
0.403797
0.424849
0.469971
0.535093
0.613312
0.695977
0.774892
0.843844
0.899843
0.942056
0.97067
0.98704
0.993527
0.993121
0.988601
0.982433
0.976028
0.969507
0.963437
0.958987
0.955957
0.954535
0.954566
0.651738
0.641695
0.609367
0.563617
0.510636
0.460722
0.422416
0.405723
0.413716
0.444635
0.498835
0.568979
0.648382
0.729489
0.805436
0.871061
0.924188
0.96462
0.992715
1.00967
1.01604
1.01412
1.00711
0.997885
0.98772
0.977566
0.968629
0.961379
0.955947
0.951975
0.611752
0.616535
0.593109
0.555798
0.507702
0.457492
0.413309
0.385664
0.379838
0.397724
0.435222
0.491689
0.563915
0.642699
0.722911
0.797766
0.864139
0.919545
0.962589
0.99363
1.01285
1.0223
1.0223
1.01589
1.00506
0.992028
0.978939
0.967118
0.957184
0.94945
0.553925
0.5762
0.559165
0.528877
0.484243
0.433353
0.383459
0.343899
0.321595
0.320865
0.343204
0.386663
0.444233
0.514568
0.590972
0.669657
0.746024
0.816325
0.877716
0.928185
0.96667
0.993682
1.00941
1.01391
1.00953
0.999358
0.985871
0.971203
0.957148
0.94515
0.493585
0.529743
0.517029
0.492351
0.449676
0.397448
0.341142
0.290226
0.253072
0.23574
0.240788
0.266773
0.311144
0.370126
0.439884
0.515239
0.592481
0.668791
0.741738
0.808685
0.866557
0.913021
0.947414
0.969122
0.979165
0.979436
0.972339
0.960481
0.94638
0.932237
0.444009
0.490112
0.477901
0.460436
0.420749
0.367124
0.305864
0.245985
0.196816
0.165556
0.155414
0.16643
0.197772
0.244741
0.305884
0.37539
0.448634
0.522977
0.59702
0.669201
0.736356
0.795049
0.842809
0.878205
0.901096
0.912564
0.914916
0.910888
0.902529
0.891668
0.415942
0.465032
0.452439
0.442776
0.40738
0.356924
0.295535
0.231583
0.174762
0.133414
0.111805
0.11043
0.128077
0.16387
0.214249
0.274063
0.338832
0.40543
0.472964
0.541062
0.607181
0.6676
0.719123
0.760005
0.789265
0.806784
0.815403
0.81725
0.814086
0.808937
0.410781
0.456184
0.448493
0.443609
0.414545
0.37267
0.317155
0.255049
0.195509
0.147392
0.116235
0.103452
0.108523
0.131292
0.169556
0.218405
0.272869
0.329432
0.387084
0.445714
0.503717
0.557306
0.603293
0.641101
0.668788
0.685685
0.694881
0.697493
0.69664
0.695633
0.425294
0.467203
0.461682
0.461867
0.444129
0.414093
0.37042
0.317478
0.262564
0.21386
0.177653
0.156587
0.151447
0.162045
0.186066
0.219826
0.259839
0.303135
0.349101
0.394997
0.4413
0.484758
0.520593
0.545036
0.560992
0.572303
0.578201
0.580765
0.583407
0.5859
0.451556
0.488944
0.484548
0.491261
0.486132
0.469967
0.442235
0.40462
0.361567
0.319222
0.283522
0.258468
0.244808
0.243444
0.25264
0.270515
0.295197
0.325193
0.359619
0.39474
0.424826
0.448769
0.467841
0.480898
0.48923
0.494323
0.497911
0.501428
0.505895
0.509969
0.481355
0.511592
0.509592
0.521115
0.526761
0.523656
0.511505
0.490182
0.461499
0.429391
0.398499
0.372345
0.353237
0.342493
0.3403
0.34694
0.361566
0.38224
0.396721
0.413401
0.431625
0.443645
0.449627
0.453084
0.455576
0.458223
0.461717
0.466015
0.470922
0.475312
0.508895
0.529508
0.530613
0.544997
0.557846
0.564727
0.564726
0.556519
0.540108
0.517568
0.492276
0.467315
0.446514
0.432393
0.426432
0.427865
0.433929
0.439542
0.447951
0.458879
0.46409
0.463309
0.460924
0.459029
0.458025
0.457661
0.458119
0.459106
0.460397
0.460804
0.527632
0.540386
0.545541
0.560776
0.577358
0.590847
0.599168
0.600025
0.592439
0.577471
0.556673
0.535409
0.518544
0.508086
0.50399
0.501635
0.505457
0.508994
0.513317
0.511268
0.505443
0.497824
0.489551
0.482208
0.476452
0.472245
0.46874
0.46487
0.46022
0.453795
0.532658
0.540372
0.551047
0.56744
0.585302
0.601909
0.615772
0.623878
0.622548
0.610771
0.595339
0.58232
0.572115
0.569109
0.569352
0.568739
0.569108
0.567996
0.56267
0.553348
0.541605
0.529773
0.519677
0.51087
0.502234
0.493601
0.484943
0.475957
0.465993
0.454868
0.531484
0.532679
0.547196
0.562981
0.57951
0.596864
0.612435
0.621853
0.62325
0.620062
0.615161
0.610869
0.610039
0.61299
0.614379
0.618815
0.619129
0.613706
0.603378
0.589864
0.57537
0.561386
0.548487
0.536588
0.525197
0.513921
0.502357
0.490243
0.477306
0.463876
0.536937
0.530819
0.5408
0.549424
0.557697
0.565033
0.575764
0.589732
0.603291
0.612548
0.619406
0.626479
0.635202
0.644905
0.653389
0.657517
0.654983
0.645755
0.632043
0.616613
0.60117
0.586397
0.57229
0.558827
0.545699
0.532631
0.519414
0.505677
0.491354
0.477732
0.553649
0.541003
0.54156
0.535025
0.519123
0.508899
0.515949
0.541938
0.572789
0.597253
0.619311
0.639705
0.658032
0.672359
0.681169
0.682893
0.67694
0.664867
0.649729
0.6341
0.618852
0.604063
0.589726
0.575687
0.561906
0.548258
0.534507
0.52053
0.506524
0.491831
0.578725
0.562285
0.550354
0.528771
0.48924
0.462327
0.465166
0.50656
0.552199