/*--------------------------------*- C++ -*----------------------------------*\
  =========                 |
  \\      /  F ield         | OpenFOAM: The Open Source CFD Toolbox
   \\    /   O peration     | Website:  https://openfoam.org
    \\  /    A nd           | Version:  11
     \\/     M anipulation  |
\*---------------------------------------------------------------------------*/
FoamFile
{
    format      ascii;
    class       volVectorField;
    location    "3.3";
    object      U;
}
// * * * * * * * * * * * * * * * * * * * * * * * * * * * * * * * * * * * * * //

dimensions      [0 1 -1 0 0 0 0];

internalField   nonuniform List<vector> 
12600
(
(0.412113 0.000109923 0)
(0.41184 0.000181327 0)
(0.411423 0.000191374 0)
(0.410947 0.000194951 0)
(0.410474 0.000199716 0)
(0.410008 0.000203149 0)
(0.409545 0.000205069 0)
(0.409083 0.000206243 0)
(0.408623 0.000206899 0)
(0.408166 0.000207023 0)
(0.407715 0.000206645 0)
(0.40727 0.000205791 0)
(0.406833 0.000204444 0)
(0.406405 0.000202489 0)
(0.405988 0.000199734 0)
(0.405586 0.000195957 0)
(0.405202 0.00019114 0)
(0.404841 0.000185048 0)
(0.404509 0.00017702 0)
(0.40421 0.000166567 0)
(0.403955 0.000153672 0)
(0.403753 0.000137857 0)
(0.40362 0.000119772 0)
(0.403571 9.7582e-05 0)
(0.403627 6.77003e-05 0)
(0.403818 2.09898e-05 0)
(0.404189 -4.46822e-05 0)
(0.404798 -0.000125683 0)
(0.405825 -0.000250245 0)
(0.406126 -0.000827467 0)
(0.412491 0.00015627 0)
(0.41264 0.000284006 0)
(0.41277 0.00026619 0)
(0.412816 0.000259842 0)
(0.412854 0.000263492 0)
(0.412899 0.000264048 0)
(0.412946 0.000262027 0)
(0.412995 0.000259064 0)
(0.413046 0.000255502 0)
(0.413101 0.000251281 0)
(0.41316 0.000246304 0)
(0.413225 0.000240422 0)
(0.413297 0.000233407 0)
(0.413377 0.000224917 0)
(0.413468 0.000214523 0)
(0.413571 0.00020165 0)
(0.413692 0.000185526 0)
(0.413832 0.000164979 0)
(0.413999 0.000141533 0)
(0.414195 0.000113657 0)
(0.41443 7.7456e-05 0)
(0.414711 3.24711e-05 0)
(0.41505 -2.43967e-05 0)
(0.415462 -9.72811e-05 0)
(0.415966 -0.000187483 0)
(0.416575 -0.000299829 0)
(0.417347 -0.000440601 0)
(0.418193 -0.000649038 0)
(0.419439 -0.000904691 0)
(0.419527 -0.0018301 0)
(0.41248 8.37054e-05 0)
(0.412553 0.000153878 0)
(0.412643 0.00016221 0)
(0.412705 0.000165923 0)
(0.412751 0.000172781 0)
(0.412794 0.000175897 0)
(0.412841 0.000174877 0)
(0.41289 0.000172063 0)
(0.412941 0.000167959 0)
(0.412997 0.000162623 0)
(0.413057 0.000156024 0)
(0.413123 0.000147956 0)
(0.413196 0.00013821 0)
(0.413275 0.000126158 0)
(0.413364 0.000111047 0)
(0.413463 9.2263e-05 0)
(0.413576 6.87785e-05 0)
(0.413707 3.98292e-05 0)
(0.413861 3.68857e-06 0)
(0.414043 -4.33062e-05 0)
(0.414261 -0.000101617 0)
(0.414523 -0.000172298 0)
(0.414837 -0.000259269 0)
(0.415217 -0.000367264 0)
(0.415679 -0.000502223 0)
(0.416243 -0.000675398 0)
(0.416934 -0.000895236 0)
(0.417766 -0.00119126 0)
(0.418766 -0.00156748 0)
(0.4199 -0.00192807 0)
(0.412472 5.56715e-05 0)
(0.412521 0.000133817 0)
(0.412593 0.000164017 0)
(0.412652 0.000176195 0)
(0.412696 0.000186497 0)
(0.412738 0.000193086 0)
(0.412783 0.00019176 0)
(0.41283 0.000188143 0)
(0.41288 0.000182515 0)
(0.412934 0.000175078 0)
(0.412993 0.000165911 0)
(0.413057 0.000154912 0)
(0.413128 0.00014172 0)
(0.413206 0.000125711 0)
(0.413292 0.000106031 0)
(0.413388 8.05166e-05 0)
(0.413499 4.7952e-05 0)
(0.413626 8.05716e-06 0)
(0.413775 -4.12431e-05 0)
(0.413951 -0.00010243 0)
(0.414162 -0.000177969 0)
(0.414414 -0.000272029 0)
(0.414716 -0.000388943 0)
(0.415081 -0.000534684 0)
(0.415523 -0.000717535 0)
(0.416063 -0.000948645 0)
(0.416719 -0.0012404 0)
(0.417523 -0.00160704 0)
(0.41848 -0.00207286 0)
(0.419724 -0.00245187 0)
(0.412468 3.99852e-05 0)
(0.412501 0.000103977 0)
(0.412557 0.000133529 0)
(0.412609 0.000142929 0)
(0.412651 0.000147756 0)
(0.412692 0.000149851 0)
(0.412735 0.000147564 0)
(0.412781 0.000141008 0)
(0.41283 0.000131724 0)
(0.412883 0.00012069 0)
(0.412941 0.000107996 0)
(0.413004 9.32202e-05 0)
(0.413072 7.64636e-05 0)
(0.413147 5.64167e-05 0)
(0.41323 3.08615e-05 0)
(0.413324 -1.30448e-06 0)
(0.413431 -4.23301e-05 0)
(0.413555 -9.24538e-05 0)
(0.413698 -0.000154147 0)
(0.413867 -0.000230457 0)
(0.414068 -0.000325151 0)
(0.414308 -0.000442599 0)
(0.414595 -0.000587879 0)
(0.41494 -0.000768428 0)
(0.415359 -0.000994209 0)
(0.415868 -0.00127778 0)
(0.416485 -0.00163489 0)
(0.417252 -0.00207657 0)
(0.418155 -0.00263975 0)
(0.419413 -0.00318234 0)
(0.412466 2.94362e-05 0)
(0.412489 8.05856e-05 0)
(0.412533 0.000110072 0)
(0.41258 0.000122986 0)
(0.412621 0.000130211 0)
(0.41266 0.000134314 0)
(0.412702 0.000133227 0)
(0.412747 0.000127278 0)
(0.412795 0.000117964 0)
(0.412847 0.000106245 0)
(0.412903 9.23763e-05 0)
(0.412963 7.61431e-05 0)
(0.41303 5.67626e-05 0)
(0.413103 3.33496e-05 0)
(0.413183 4.68272e-06 0)
(0.413273 -3.1289e-05 0)
(0.413375 -7.73967e-05 0)
(0.413492 -0.00013616 0)
(0.413628 -0.000209407 0)
(0.413788 -0.00030006 0)
(0.413978 -0.00041204 0)
(0.414203 -0.000550289 0)
(0.414472 -0.00072125 0)
(0.414795 -0.000933711 0)
(0.415184 -0.00119923 0)
(0.415658 -0.00153198 0)
(0.41623 -0.00195069 0)
(0.416946 -0.00246762 0)
(0.417786 -0.00313203 0)
(0.418995 -0.00382688 0)
(0.412464 2.21033e-05 0)
(0.412482 6.28456e-05 0)
(0.412517 9.01954e-05 0)
(0.412558 0.000103981 0)
(0.412597 0.000110498 0)
(0.412635 0.00011251 0)
(0.412675 0.000109244 0)
(0.412718 0.000100843 0)
(0.412765 8.85806e-05 0)
(0.412815 7.35849e-05 0)
(0.412869 5.63e-05 0)
(0.412927 3.65381e-05 0)
(0.412991 1.36345e-05 0)
(0.413061 -1.41739e-05 0)
(0.413138 -4.86074e-05 0)
(0.413223 -9.17588e-05 0)
(0.41332 -0.000145748 0)
(0.41343 -0.00021346 0)
(0.413558 -0.000297481 0)
(0.413708 -0.000401177 0)
(0.413884 -0.000529038 0)
(0.414093 -0.000686788 0)
(0.414341 -0.000881826 0)
(0.414638 -0.00112395 0)
(0.414994 -0.00142608 0)
(0.415426 -0.00180409 0)
(0.415947 -0.00227927 0)
(0.416601 -0.0028687 0)
(0.417365 -0.00362465 0)
(0.418488 -0.00447282 0)
(0.412463 1.66778e-05 0)
(0.412477 4.87931e-05 0)
(0.412506 7.25833e-05 0)
(0.412543 8.57835e-05 0)
(0.412579 9.15939e-05 0)
(0.412616 9.24208e-05 0)
(0.412654 8.81776e-05 0)
(0.412696 7.88668e-05 0)
(0.412741 6.54886e-05 0)
(0.412789 4.91548e-05 0)
(0.412841 3.03766e-05 0)
(0.412897 8.91093e-06 0)
(0.412958 -1.58905e-05 0)
(0.413025 -4.58913e-05 0)
(0.413097 -8.31664e-05 0)
(0.413178 -0.000130154 0)
(0.413269 -0.000189438 0)
(0.413372 -0.000264103 0)
(0.41349 -0.000357177 0)
(0.413628 -0.000472265 0)
(0.41379 -0.000614107 0)
(0.41398 -0.000788895 0)
(0.414205 -0.00100475 0)
(0.414472 -0.00127246 0)
(0.414791 -0.00160625 0)
(0.415177 -0.00202381 0)
(0.41564 -0.00254901 0)
(0.416222 -0.00320408 0)
(0.416896 -0.00404305 0)
(0.417906 -0.00502973 0)
(0.412463 1.24102e-05 0)
(0.412474 3.72894e-05 0)
(0.412499 5.71056e-05 0)
(0.412531 6.89635e-05 0)
(0.412565 7.39377e-05 0)
(0.4126 7.35789e-05 0)
(0.412637 6.80181e-05 0)
(0.412677 5.72708e-05 0)
(0.41272 4.21683e-05 0)
(0.412767 2.3798e-05 0)
(0.412817 2.74578e-06 0)
(0.41287 -2.12308e-05 0)
(0.412928 -4.90693e-05 0)
(0.412991 -8.23265e-05 0)
(0.413059 -0.000123517 0)
(0.413134 -0.000175327 0)
(0.413218 -0.000240572 0)
(0.413313 -0.000322398 0)
(0.413421 -0.00042416 0)
(0.413546 -0.000549772 0)
(0.413691 -0.000704282 0)
(0.413861 -0.00089433 0)
(0.414061 -0.0011287 0)
(0.414296 -0.00141901 0)
(0.414575 -0.00178059 0)
(0.41491 -0.00223269 0)
(0.415308 -0.00280128 0)
(0.415809 -0.00351371 0)
(0.416383 -0.00442377 0)
(0.417255 -0.00553477 0)
(0.412462 8.95227e-06 0)
(0.412472 2.75771e-05 0)
(0.412493 4.34224e-05 0)
(0.412522 5.33953e-05 0)
(0.412554 5.72036e-05 0)
(0.412588 5.55353e-05 0)
(0.412623 4.8544e-05 0)
(0.412662 3.63584e-05 0)
(0.412703 1.97465e-05 0)
(0.412748 -2.47071e-07 0)
(0.412795 -2.30133e-05 0)
(0.412846 -4.87235e-05 0)
(0.4129 -7.84982e-05 0)
(0.412959 -0.000114071 0)
(0.413022 -0.000158007 0)
(0.413092 -0.000213232 0)
(0.413168 -0.00028283 0)
(0.413254 -0.000370124 0)
(0.413352 -0.000478711 0)
(0.413463 -0.000612737 0)
(0.413591 -0.000777465 0)
(0.41374 -0.000979846 0)
(0.413912 -0.00122912 0)
(0.414113 -0.00153754 0)
(0.414349 -0.00192127 0)
(0.41463 -0.0024009 0)
(0.414959 -0.00300414 0)
(0.41537 -0.00376287 0)
(0.415832 -0.00473026 0)
(0.416549 -0.00594419 0)
(0.412462 6.00607e-06 0)
(0.412471 1.91956e-05 0)
(0.412489 3.11711e-05 0)
(0.412516 3.89071e-05 0)
(0.412546 4.1286e-05 0)
(0.412578 3.82676e-05 0)
(0.412612 2.98849e-05 0)
(0.412649 1.63374e-05 0)
(0.412689 -1.64901e-06 0)
(0.412731 -2.30967e-05 0)
(0.412776 -4.74087e-05 0)
(0.412824 -7.47928e-05 0)
(0.412875 -0.000106401 0)
(0.412929 -0.000144136 0)
(0.412987 -0.000190665 0)
(0.413051 -0.000249084 0)
(0.41312 -0.000322669 0)
(0.413196 -0.000414871 0)
(0.413282 -0.000529425 0)
(0.413379 -0.000670632 0)
(0.413489 -0.000843915 0)
(0.413614 -0.00105643 0)
(0.413758 -0.00131774 0)
(0.413924 -0.0016405 0)
(0.414115 -0.00204147 0)
(0.414337 -0.00254218 0)
(0.414594 -0.0031715 0)
(0.41491 -0.00396487 0)
(0.415252 -0.00497394 0)
(0.415795 -0.00626806 0)
(0.412462 3.43706e-06 0)
(0.412469 1.17573e-05 0)
(0.412486 2.0027e-05 0)
(0.412511 2.53436e-05 0)
(0.412539 2.61012e-05 0)
(0.41257 2.17012e-05 0)
(0.412603 1.19786e-05 0)
(0.412638 -2.85422e-06 0)
(0.412676 -2.20901e-05 0)
(0.412717 -4.48029e-05 0)
(0.412759 -7.04229e-05 0)
(0.412804 -9.91788e-05 0)
(0.412851 -0.000132253 0)
(0.412901 -0.000171675 0)
(0.412954 -0.000220197 0)
(0.413011 -0.000281032 0)
(0.413072 -0.000357592 0)
(0.413139 -0.000453436 0)
(0.413212 -0.000572392 0)
(0.413294 -0.00071886 0)
(0.413385 -0.000898345 0)
(0.413487 -0.0011181 0)
(0.413602 -0.00138781 0)
(0.413731 -0.00172033 0)
(0.413875 -0.00213268 0)
(0.414038 -0.00264685 0)
(0.414219 -0.00329224 0)
(0.414436 -0.00410675 0)
(0.414653 -0.00513996 0)
(0.41501 -0.00648679 0)
(0.412462 1.02541e-06 0)
(0.412469 5.11022e-06 0)
(0.412484 9.74067e-06 0)
(0.412507 1.25264e-05 0)
(0.412534 1.15523e-05 0)
(0.412564 5.76612e-06 0)
(0.412596 -5.22094e-06 0)
(0.41263 -2.12276e-05 0)
(0.412666 -4.15558e-05 0)
(0.412704 -6.53169e-05 0)
(0.412744 -9.1975e-05 0)
(0.412786 -0.000121788 0)
(0.412829 -0.000155979 0)
(0.412874 -0.000196662 0)
(0.412922 -0.000246666 0)
(0.412972 -0.000309286 0)
(0.413025 -0.000388023 0)
(0.413082 -0.000486501 0)
(0.413143 -0.000608588 0)
(0.413209 -0.000758706 0)
(0.413281 -0.000942356 0)
(0.413359 -0.00116677 0)
(0.413444 -0.00144159 0)
(0.413535 -0.00177963 0)
(0.413633 -0.00219783 0)
(0.413736 -0.00271814 0)
(0.413841 -0.00336975 0)
(0.413956 -0.00419171 0)
(0.414045 -0.00523066 0)
(0.414208 -0.00660053 0)
(0.412462 -1.19405e-06 0)
(0.412468 -1.12146e-06 0)
(0.412483 1.01616e-07 0)
(0.412504 3.11199e-07 0)
(0.41253 -2.47923e-06 0)
(0.412559 -9.63394e-06 0)
(0.41259 -2.17748e-05 0)
(0.412623 -3.87978e-05 0)
(0.412657 -6.00276e-05 0)
(0.412693 -8.46082e-05 0)
(0.412731 -0.000112039 0)
(0.412769 -0.000142605 0)
(0.412809 -0.000177563 0)
(0.412849 -0.000219076 0)
(0.412891 -0.000270024 0)
(0.412934 -0.000333745 0)
(0.412979 -0.00041378 0)
(0.413026 -0.000513772 0)
(0.413075 -0.000637579 0)
(0.413125 -0.000789581 0)
(0.413178 -0.000975197 0)
(0.413232 -0.00120152 0)
(0.413287 -0.00147799 0)
(0.413341 -0.00181713 0)
(0.413392 -0.00223543 0)
(0.413436 -0.00275427 0)
(0.413464 -0.00340189 0)
(0.413478 -0.004217 0)
(0.413442 -0.00524252 0)
(0.413407 -0.00660325 0)
(0.412461 -3.21464e-06 0)
(0.412468 -7.01663e-06 0)
(0.412482 -9.15612e-06 0)
(0.412503 -1.15043e-05 0)
(0.412528 -1.60969e-05 0)
(0.412556 -2.45572e-05 0)
(0.412586 -3.77366e-05 0)
(0.412618 -5.56226e-05 0)
(0.412651 -7.75559e-05 0)
(0.412684 -0.000102707 0)
(0.412719 -0.000130618 0)
(0.412754 -0.000161612 0)
(0.41279 -0.000196967 0)
(0.412826 -0.000238867 0)
(0.412862 -0.000290211 0)
(0.412899 -0.000354343 0)
(0.412935 -0.000434804 0)
(0.412972 -0.000535216 0)
(0.413008 -0.000659377 0)
(0.413043 -0.000811566 0)
(0.413076 -0.000997041 0)
(0.413107 -0.00122264 0)
(0.413132 -0.00149746 0)
(0.41315 -0.00183348 0)
(0.413154 -0.00224641 0)
(0.41314 -0.00275655 0)
(0.413096 -0.00339039 0)
(0.413012 -0.00418482 0)
(0.412854 -0.00517811 0)
(0.412626 -0.00649699 0)
(0.412461 -5.18791e-06 0)
(0.412468 -1.27706e-05 0)
(0.412482 -1.81918e-05 0)
(0.412502 -2.30504e-05 0)
(0.412527 -2.93927e-05 0)
(0.412554 -3.90818e-05 0)
(0.412584 -5.31831e-05 0)
(0.412614 -7.17582e-05 0)
(0.412646 -9.41653e-05 0)
(0.412677 -0.000119617 0)
(0.412709 -0.000147713 0)
(0.412741 -0.000178809 0)
(0.412773 -0.000214189 0)
(0.412805 -0.000256032 0)
(0.412835 -0.000307223 0)
(0.412865 -0.000371083 0)
(0.412893 -0.000451112 0)
(0.41292 -0.000550867 0)
(0.412943 -0.000674039 0)
(0.412963 -0.000824749 0)
(0.412978 -0.00100802 0)
(0.412985 -0.00123035 0)
(0.412982 -0.00150032 0)
(0.412964 -0.00182917 0)
(0.412924 -0.00223153 0)
(0.412855 -0.00272611 0)
(0.412742 -0.00333694 0)
(0.412565 -0.00409759 0)
(0.412294 -0.00504082 0)
(0.411886 -0.00628607 0)
(0.412461 -7.14017e-06 0)
(0.412468 -1.84786e-05 0)
(0.412482 -2.71478e-05 0)
(0.412502 -3.4478e-05 0)
(0.412527 -4.25207e-05 0)
(0.412554 -5.33498e-05 0)
(0.412583 -6.82213e-05 0)
(0.412612 -8.72742e-05 0)
(0.412642 -0.000109901 0)
(0.412672 -0.000135372 0)
(0.412702 -0.000163345 0)
(0.412731 -0.000194208 0)
(0.412759 -0.000229236 0)
(0.412785 -0.000270584 0)
(0.412811 -0.000321092 0)
(0.412834 -0.000384017 0)
(0.412854 -0.000462778 0)
(0.41287 -0.000560824 0)
(0.412882 -0.0006817 0)
(0.412887 -0.000829321 0)
(0.412883 -0.00100842 0)
(0.412868 -0.00122505 0)
(0.412837 -0.00148719 0)
(0.412785 -0.00180515 0)
(0.412705 -0.00219219 0)
(0.412584 -0.00266501 0)
(0.412406 -0.00324457 0)
(0.412146 -0.00395982 0)
(0.411772 -0.00483719 0)
(0.411204 -0.00598001 0)
(0.412461 -9.12211e-06 0)
(0.412468 -2.42963e-05 0)
(0.412482 -3.62468e-05 0)
(0.412503 -4.59838e-05 0)
(0.412528 -5.56001e-05 0)
(0.412555 -6.74281e-05 0)
(0.412584 -8.29061e-05 0)
(0.412612 -0.000102223 0)
(0.412641 -0.000124808 0)
(0.412669 -0.000150009 0)
(0.412696 -0.000177554 0)
(0.412722 -0.000207852 0)
(0.412746 -0.000242161 0)
(0.412769 -0.000282583 0)
(0.412788 -0.000331885 0)
(0.412805 -0.000393228 0)
(0.412817 -0.000469912 0)
(0.412824 -0.000565239 0)
(0.412824 -0.000682571 0)
(0.412814 -0.000825576 0)
(0.412793 -0.000998638 0)
(0.412756 -0.00120733 0)
(0.4127 -0.00145888 0)
(0.412617 -0.00176256 0)
(0.412498 -0.00213004 0)
(0.41233 -0.00257571 0)
(0.412095 -0.00311697 0)
(0.411761 -0.00377709 0)
(0.411299 -0.0045756 0)
(0.410596 -0.00559212 0)
(0.412462 -1.12031e-05 0)
(0.412468 -3.03988e-05 0)
(0.412484 -4.568e-05 0)
(0.412506 -5.77198e-05 0)
(0.412531 -6.87536e-05 0)
(0.412558 -8.14283e-05 0)
(0.412586 -9.73331e-05 0)
(0.412614 -0.000116679 0)
(0.412642 -0.000138947 0)
(0.412668 -0.000163584 0)
(0.412693 -0.000190393 0)
(0.412716 -0.000219798 0)
(0.412737 -0.000253022 0)
(0.412755 -0.000292097 0)
(0.412769 -0.00033969 0)
(0.412779 -0.000398829 0)
(0.412784 -0.000472661 0)
(0.412782 -0.000564317 0)
(0.41277 -0.00067694 0)
(0.412747 -0.000813921 0)
(0.412709 -0.000979264 0)
(0.412653 -0.00117799 0)
(0.412572 -0.00141654 0)
(0.41246 -0.00170302 0)
(0.412306 -0.00204741 0)
(0.412096 -0.00246155 0)
(0.411811 -0.00295899 0)
(0.411415 -0.00355667 0)
(0.410882 -0.00426694 0)
(0.410077 -0.00514018 0)
(0.412462 -1.34642e-05 0)
(0.412469 -3.69906e-05 0)
(0.412486 -5.56886e-05 0)
(0.412509 -6.98816e-05 0)
(0.412536 -8.21141e-05 0)
(0.412563 -9.54477e-05 0)
(0.412591 -0.000111583 0)
(0.412619 -0.000130707 0)
(0.412645 -0.000152374 0)
(0.41267 -0.000176157 0)
(0.412693 -0.000201935 0)
(0.412713 -0.000230136 0)
(0.41273 -0.000261929 0)
(0.412744 -0.000299257 0)
(0.412753 -0.000344653 0)
(0.412758 -0.000400983 0)
(0.412755 -0.000471206 0)
(0.412744 -0.000558245 0)
(0.412722 -0.000665007 0)
(0.412686 -0.000794583 0)
(0.412633 -0.000950571 0)
(0.412557 -0.00113742 0)
(0.412454 -0.00136074 0)
(0.412316 -0.00162744 0)
(0.412131 -0.00194573 0)
(0.411885 -0.00232485 0)
(0.411557 -0.00277448 0)
(0.411113 -0.00330492 0)
(0.410526 -0.00392161 0)
(0.409653 -0.00464272 0)
(0.412462 -1.6015e-05 0)
(0.41247 -4.43479e-05 0)
(0.412489 -6.65564e-05 0)
(0.412515 -8.26501e-05 0)
(0.412542 -9.5795e-05 0)
(0.41257 -0.000109594 0)
(0.412598 -0.00012576 0)
(0.412625 -0.000144394 0)
(0.412651 -0.00016515 0)
(0.412674 -0.000187769 0)
(0.412695 -0.000212214 0)
(0.412712 -0.000238905 0)
(0.412726 -0.000268954 0)
(0.412736 -0.000304192 0)
(0.412741 -0.000346997 0)
(0.41274 -0.000400044 0)
(0.412731 -0.000466083 0)
(0.412712 -0.000547805 0)
(0.41268 -0.000647851 0)
(0.412632 -0.000768994 0)
(0.412564 -0.000914415 0)
(0.412472 -0.00108797 0)
(0.412349 -0.00129441 0)
(0.412187 -0.00153948 0)
(0.411975 -0.00182963 0)
(0.411698 -0.00217153 0)
(0.411337 -0.00257118 0)
(0.410856 -0.00303249 0)
(0.410232 -0.00355465 0)
(0.409328 -0.0041238 0)
(0.412462 -1.90147e-05 0)
(0.412472 -5.28456e-05 0)
(0.412494 -7.86151e-05 0)
(0.412522 -9.62024e-05 0)
(0.412552 -0.000109902 0)
(0.41258 -0.000123963 0)
(0.412608 -0.000139958 0)
(0.412635 -0.000157851 0)
(0.41266 -0.00017743 0)
(0.412682 -0.000198598 0)
(0.412701 -0.000221379 0)
(0.412716 -0.000246174 0)
(0.412727 -0.00027403 0)
(0.412733 -0.000306658 0)
(0.412734 -0.000346251 0)
(0.412727 -0.000395259 0)
(0.412712 -0.000456197 0)
(0.412685 -0.000531524 0)
(0.412644 -0.000623614 0)
(0.412586 -0.000734922 0)
(0.412505 -0.000868216 0)
(0.412397 -0.00102677 0)
(0.412256 -0.00121454 0)
(0.412074 -0.00143612 0)
(0.411839 -0.00169633 0)
(0.411536 -0.00199946 0)
(0.411149 -0.00234821 0)
(0.410643 -0.0027408 0)
(0.41 -0.00317147 0)
(0.409097 -0.00359759 0)
(0.412463 -2.27076e-05 0)
(0.412475 -6.30098e-05 0)
(0.412501 -9.22579e-05 0)
(0.412533 -0.000110736 0)
(0.412564 -0.000124579 0)
(0.412593 -0.000138632 0)
(0.412622 -0.000154117 0)
(0.412649 -0.000170936 0)
(0.412673 -0.000189134 0)
(0.412694 -0.00020879 0)
(0.412711 -0.000229937 0)
(0.412724 -0.00025293 0)
(0.412732 -0.000278724 0)
(0.412735 -0.000308872 0)
(0.412732 -0.00034536 0)
(0.412721 -0.000390405 0)
(0.4127 -0.000446257 0)
(0.412666 -0.000515082 0)
(0.412617 -0.000598966 0)
(0.412548 -0.000700056 0)
(0.412456 -0.000820716 0)
(0.412335 -0.000963637 0)
(0.412178 -0.001132 0)
(0.411978 -0.00132936 0)
(0.411724 -0.00155903 0)
(0.411402 -0.0018232 0)
(0.410995 -0.00212185 0)
(0.410476 -0.00244856 0)
(0.409827 -0.00279453 0)
(0.408953 -0.00309437 0)
(0.412464 -2.75015e-05 0)
(0.41248 -7.55759e-05 0)
(0.412511 -0.000107833 0)
(0.412547 -0.000126387 0)
(0.412581 -0.000140156 0)
(0.412611 -0.00015409 0)
(0.412639 -0.000168617 0)
(0.412667 -0.000183624 0)
(0.412691 -0.000199532 0)
(0.41271 -0.000216644 0)
(0.412726 -0.000235047 0)
(0.412736 -0.000255087 0)
(0.412742 -0.000277644 0)
(0.412742 -0.000304107 0)
(0.412736 -0.000336235 0)
(0.41272 -0.000375988 0)
(0.412694 -0.000425344 0)
(0.412654 -0.000486178 0)
(0.412598 -0.000560295 0)
(0.412521 -0.000649568 0)
(0.412418 -0.000755994 0)
(0.412285 -0.000881706 0)
(0.412115 -0.0010292 0)
(0.4119 -0.00120112 0)
(0.411631 -0.00139955 0)
(0.411294 -0.00162482 0)
(0.410874 -0.00187491 0)
(0.410349 -0.00213993 0)
(0.409705 -0.00241061 0)
(0.408879 -0.0026069 0)
(0.412465 -3.41365e-05 0)
(0.412487 -9.16964e-05 0)
(0.412526 -0.000125524 0)
(0.412568 -0.000142672 0)
(0.412603 -0.000156195 0)
(0.412634 -0.000170544 0)
(0.412663 -0.00018503 0)
(0.412691 -0.000199473 0)
(0.412715 -0.000214536 0)
(0.412734 -0.000230561 0)
(0.412748 -0.000247618 0)
(0.412757 -0.000266039 0)
(0.412761 -0.000286601 0)
(0.412758 -0.000310502 0)
(0.412748 -0.000339267 0)
(0.412729 -0.000374574 0)
(0.412699 -0.000418123 0)
(0.412654 -0.000471517 0)
(0.412591 -0.000536269 0)
(0.412506 -0.000613959 0)
(0.412395 -0.000706234 0)
(0.412252 -0.000814716 0)
(0.412071 -0.000941275 0)
(0.411844 -0.00108775 0)
(0.411562 -0.00125512 0)
(0.411214 -0.00144232 0)
(0.410787 -0.00164613 0)
(0.410262 -0.0018543 0)
(0.40963 -0.00206048 0)
(0.408862 -0.00217891 0)
(0.412467 -4.39392e-05 0)
(0.412498 -0.000113348 0)
(0.41255 -0.00014659 0)
(0.412596 -0.000159786 0)
(0.412632 -0.000170281 0)
(0.412664 -0.000181485 0)
(0.412694 -0.000192069 0)
(0.412722 -0.000202537 0)
(0.412745 -0.000213716 0)
(0.412764 -0.000225884 0)
(0.412776 -0.000239059 0)
(0.412784 -0.000253591 0)
(0.412786 -0.000270186 0)
(0.412781 -0.00028979 0)
(0.412769 -0.000313588 0)
(0.412747 -0.000342914 0)
(0.412712 -0.000379171 0)
(0.412663 -0.000423614 0)
(0.412595 -0.00047749 0)
(0.412504 -0.000542205 0)
(0.412385 -0.000619012 0)
(0.412234 -0.000708966 0)
(0.412044 -0.00081377 0)
(0.411807 -0.000934848 0)
(0.411517 -0.00107202 0)
(0.411161 -0.00122274 0)
(0.410731 -0.00138328 0)
(0.410209 -0.00153897 0)
(0.409593 -0.00169295 0)
(0.408873 -0.00175581 0)
(0.412472 -5.87702e-05 0)
(0.412518 -0.000141394 0)
(0.412586 -0.000174497 0)
(0.412639 -0.000189762 0)
(0.412676 -0.000204038 0)
(0.412708 -0.000217096 0)
(0.41274 -0.000227944 0)
(0.412768 -0.000237937 0)
(0.412791 -0.000248229 0)
(0.412809 -0.000259085 0)
(0.412821 -0.000270552 0)
(0.412827 -0.000282896 0)
(0.412827 -0.000296712 0)
(0.41282 -0.000312854 0)
(0.412805 -0.000332315 0)
(0.412781 -0.000356128 0)
(0.412744 -0.000385513 0)
(0.412691 -0.000421424 0)
(0.412618 -0.000464625 0)
(0.412522 -0.00051643 0)
(0.412398 -0.000578123 0)
(0.41224 -0.000649654 0)
(0.412043 -0.000731761 0)
(0.411799 -0.0008261 0)
(0.411502 -0.00093259 0)
(0.411142 -0.00104773 0)
(0.410713 -0.0011673 0)
(0.410197 -0.00127269 0)
(0.409599 -0.00137994 0)
(0.408897 -0.00140764 0)
(0.412479 -8.60784e-05 0)
(0.41255 -0.000159291 0)
(0.412635 -0.000170154 0)
(0.412692 -0.000176735 0)
(0.412729 -0.000187212 0)
(0.412764 -0.000196499 0)
(0.412797 -0.000203731 0)
(0.412826 -0.000210451 0)
(0.412849 -0.000217484 0)
(0.412867 -0.000224863 0)
(0.412878 -0.00023295 0)
(0.412884 -0.000242368 0)
(0.412883 -0.000253289 0)
(0.412875 -0.000266113 0)
(0.412859 -0.000281412 0)
(0.412832 -0.000299852 0)
(0.412792 -0.000322035 0)
(0.412736 -0.000348779 0)
(0.412661 -0.000381035 0)
(0.41256 -0.000419357 0)
(0.412432 -0.000464471 0)
(0.412269 -0.000518097 0)
(0.412067 -0.000580904 0)
(0.411818 -0.000651908 0)
(0.411516 -0.000730119 0)
(0.411154 -0.000812614 0)
(0.410729 -0.000895208 0)
(0.410215 -0.000953246 0)
(0.409641 -0.00101293 0)
(0.408855 -0.000933332 0)
(0.41249 -0.000157667 0)
(0.412638 -0.000288087 0)
(0.412762 -0.000271179 0)
(0.4128 -0.000266646 0)
(0.412829 -0.000271981 0)
(0.412861 -0.00027701 0)
(0.412889 -0.000280339 0)
(0.412911 -0.000283436 0)
(0.412928 -0.000286859 0)
(0.412938 -0.000290642 0)
(0.412943 -0.000294901 0)
(0.412941 -0.000299854 0)
(0.412932 -0.000305808 0)
(0.412914 -0.000313112 0)
(0.412886 -0.00032216 0)
(0.412844 -0.000333158 0)
(0.412787 -0.000347633 0)
(0.412711 -0.000364688 0)
(0.412613 -0.000384338 0)
(0.412488 -0.00040919 0)
(0.412331 -0.000440164 0)
(0.412137 -0.000471351 0)
(0.4119 -0.000506477 0)
(0.411614 -0.000550691 0)
(0.411272 -0.000600505 0)
(0.410869 -0.000652323 0)
(0.410401 -0.000702656 0)
(0.409856 -0.00072026 0)
(0.409215 -0.000737045 0)
(0.40774 -0.000216273 0)
(0.412112 -0.000110525 0)
(0.411836 -0.000182292 0)
(0.411413 -0.000193113 0)
(0.41093 -0.000197414 0)
(0.410446 -0.000203105 0)
(0.409967 -0.000207471 0)
(0.409484 -0.000210731 0)
(0.408995 -0.000213736 0)
(0.408499 -0.000216712 0)
(0.407997 -0.000219628 0)
(0.40749 -0.000222517 0)
(0.406975 -0.000225511 0)
(0.406453 -0.000228738 0)
(0.40592 -0.000232295 0)
(0.405377 -0.000236285 0)
(0.40482 -0.000240849 0)
(0.404246 -0.000245911 0)
(0.403651 -0.000251866 0)
(0.403033 -0.000259237 0)
(0.402384 -0.000267626 0)
(0.4017 -0.000276987 0)
(0.400975 -0.000289509 0)
(0.400202 -0.000305348 0)
(0.399375 -0.000322447 0)
(0.398485 -0.000340472 0)
(0.397527 -0.000357891 0)
(0.396502 -0.000378394 0)
(0.39544 -0.000364288 0)
(0.394426 -0.000423756 0)
(0.392181 0.000293248 0)
(0.411697 -0.00162135 -1.24809e-18)
(0.41679 -0.00207419 -9.66897e-21)
(0.420351 -0.00235763 1.29329e-18)
(0.422096 -0.00278935 2.60176e-18)
(0.423021 -0.00341332 1.32981e-18)
(0.423662 -0.0042071 -1.32154e-18)
(0.42413 -0.00513626 1.34962e-18)
(0.424494 -0.00619184 0)
(0.424805 -0.00737302 1.37323e-18)
(0.42509 -0.0086787 -5.44718e-21)
(0.425348 -0.0101126 9.69039e-20)
(0.425569 -0.0116861 0)
(0.425739 -0.0134179 -1.6376e-18)
(0.425851 -0.0153321 0)
(0.425899 -0.0174593 0)
(0.425874 -0.0198382 -1.81238e-18)
(0.425765 -0.0225195 -1.7462e-18)
(0.425561 -0.0255699 -2.71782e-22)
(0.425242 -0.0290792 1.75007e-18)
(0.424788 -0.0331702 2.60872e-19)
(0.42417 -0.038013 -2.43118e-18)
(0.42335 -0.0438604 2.82495e-19)
(0.422281 -0.0510393 -1.47472e-19)
(0.420884 -0.0602487 2.27861e-18)
(0.419113 -0.0717855 3.18574e-19)
(0.41673 -0.0891113 -1.65691e-19)
(0.413879 -0.108451 0)
(0.409941 -0.152786 -2.53663e-18)
(0.404997 -0.185035 -2.63709e-18)
(0.402871 -0.342328 0)
(0.420882 -0.0020142 1.25233e-18)
(0.42237 -0.00222185 -2.96138e-20)
(0.423106 -0.00269838 2.4079e-20)
(0.42311 -0.00338612 -1.31552e-18)
(0.423186 -0.00421881 -4.21402e-20)
(0.42333 -0.0051557 1.42419e-18)
(0.423565 -0.00618356 1.33089e-18)
(0.423819 -0.00730754 1.81732e-19)
(0.424067 -0.00853402 -9.34024e-20)
(0.424295 -0.00986945 1.53101e-18)
(0.424484 -0.0113258 1.68074e-18)
(0.42462 -0.0129209 1.52816e-18)
(0.424695 -0.0146759 1.78555e-18)
(0.424702 -0.0166161 1.62739e-18)
(0.424636 -0.0187724 1.79441e-18)
(0.424483 -0.0211846 3.81724e-18)
(0.424231 -0.0239047 1.80604e-18)
(0.42386 -0.0270014 -2.12418e-18)
(0.423346 -0.0305666 2.20926e-18)
(0.422657 -0.0347255 -1.34559e-19)
(0.421751 -0.0396523 1.40469e-19)
(0.420572 -0.0455987 2.36392e-18)
(0.419034 -0.0529136 0)
(0.417033 -0.0622295 -1.60345e-19)
(0.414373 -0.0740744 2.89309e-18)
(0.410823 -0.0912211 0)
(0.405969 -0.111602 2.99726e-18)
(0.399082 -0.154098 -2.85409e-18)
(0.388505 -0.188853 -2.35969e-20)
(0.377506 -0.338711 1.63245e-18)
(0.420574 -0.00208853 -9.768e-21)
(0.421124 -0.00249038 -9.92304e-21)
(0.42156 -0.00328636 -1.28384e-18)
(0.421873 -0.00420724 -4.17397e-20)
(0.42213 -0.00514055 4.28422e-20)
(0.422459 -0.00609443 -4.38285e-20)
(0.422788 -0.00711036 -1.39281e-18)
(0.423056 -0.00821317 0)
(0.423262 -0.00941609 0)
(0.423413 -0.0107311 0)
(0.42351 -0.0121724 -1.60545e-18)
(0.423549 -0.0137565 -9.43332e-20)
(0.423523 -0.0155028 -1.49335e-18)
(0.423425 -0.0174352 -1.76412e-18)
(0.423243 -0.019585 -1.93938e-18)
(0.422961 -0.0219926 -1.8905e-18)
(0.42256 -0.0247107 1.40387e-19)
(0.422017 -0.0278085 1.91021e-18)
(0.421299 -0.0313784 -1.98831e-18)
(0.420365 -0.0355462 -1.39062e-19)
(0.419158 -0.040487 0)
(0.4176 -0.0464497 -5.0293e-18)
(0.415575 -0.0537958 1.59844e-19)
(0.412924 -0.0630982 -2.72276e-18)
(0.409382 -0.0750869 7.35131e-20)
(0.404542 -0.0918356 0)
(0.397806 -0.11314 -6.41301e-18)
(0.387752 -0.153042 6.43617e-18)
(0.37189 -0.191246 -3.55472e-18)
(0.351175 -0.331557 -1.80434e-18)
(0.420554 -0.00309252 0)
(0.420961 -0.00370521 -1.31634e-18)
(0.421321 -0.00449108 3.88792e-23)
(0.421577 -0.00530354 2.12188e-20)
(0.42179 -0.00612553 0)
(0.421998 -0.00701235 0)
(0.422178 -0.00800139 -1.46726e-18)
(0.422312 -0.00909802 0)
(0.422404 -0.0103014 9.6644e-20)
(0.422456 -0.0116179 -1.99144e-19)
(0.422461 -0.0130593 1.14823e-22)
(0.422408 -0.0146413 -1.58345e-18)
(0.422283 -0.0163836 1.09386e-19)
(0.422075 -0.0183115 1.7051e-18)
(0.421769 -0.0204572 1.17296e-19)
(0.421347 -0.0228619 1.83497e-18)
(0.420785 -0.0255785 -2.01558e-18)
(0.420055 -0.0286766 -2.12059e-18)
(0.419116 -0.0322488 0)
(0.417917 -0.0364208 2.17377e-18)
(0.416384 -0.0413671 1.50686e-19)
(0.414418 -0.047335 2.6754e-18)
(0.411868 -0.0546853 -1.66854e-19)
(0.408529 -0.0639659 2.7969e-18)
(0.404031 -0.0759749 -2.9599e-18)
(0.397885 -0.0924062 0)
(0.389074 -0.114128 3.43733e-18)
(0.376011 -0.151686 -3.51993e-18)
(0.354485 -0.192127 3.61595e-18)
(0.324607 -0.321646 1.02168e-19)
(0.420227 -0.00394683 0)
(0.420483 -0.00452773 1.31056e-18)
(0.420688 -0.00523599 0)
(0.420865 -0.00601486 0)
(0.421022 -0.00685641 0)
(0.421166 -0.00778042 0)
(0.421285 -0.00879683 1.48637e-18)
(0.421364 -0.00990438 4.78411e-20)
(0.421397 -0.0111062 -4.92985e-20)
(0.421379 -0.0124138 0)
(0.421301 -0.0138431 0)
(0.421152 -0.0154118 1.08215e-19)
(0.42092 -0.0171405 -1.86327e-23)
(0.420593 -0.0190548 -1.96455e-18)
(0.420155 -0.021187 0)
(0.419583 -0.0235777 -1.99204e-18)
(0.418851 -0.0262798 0)
(0.417921 -0.0293624 2.29853e-18)
(0.416746 -0.0329175 -2.84321e-19)
(0.415263 -0.0370697 -2.2196e-18)
(0.413382 -0.0419914 1.26408e-18)
(0.410981 -0.0479256 0)
(0.407875 -0.0552274 0)
(0.403807 -0.064423 0)
(0.398313 -0.0763283 1.61239e-18)
(0.390805 -0.0923806 -1.73372e-18)
(0.379865 -0.114119 0)
(0.363834 -0.149305 -2.0102e-18)
(0.336584 -0.191264 -2.21523e-18)
(0.297941 -0.308881 1.94264e-18)
(0.419754 -0.00469261 6.40455e-19)
(0.419921 -0.00529856 6.76829e-19)
(0.420042 -0.00601623 7.04579e-19)
(0.420169 -0.006805 6.57148e-19)
(0.420282 -0.00765427 7.86675e-19)
(0.420364 -0.00857302 6.92986e-19)
(0.420406 -0.0095719 7.6006e-19)
(0.420402 -0.0106581 -7.82417e-19)
(0.420346 -0.0118403 5.02279e-20)
(0.420234 -0.0131309 7.2823e-19)
(0.420056 -0.0145441 8.59344e-19)
(0.419802 -0.0160963 8.3355e-19)
(0.419457 -0.0178072 1.14615e-19)
(0.419007 -0.0197018 -9.55474e-19)
(0.41843 -0.021812 1.2363e-19)
(0.417701 -0.0241782 -2.57246e-19)
(0.416787 -0.0268529 -9.45398e-19)
(0.415646 -0.0299042 -1.12923e-18)
(0.414221 -0.0334228 0)
(0.412437 -0.0375308 -1.55021e-19)
(0.410188 -0.0423968 2.08221e-20)
(0.407328 -0.0482573 1.72013e-19)
(0.403638 -0.0554565 1.3003e-18)
(0.398806 -0.0644989 2.93891e-19)
(0.392283 -0.0761816 -5.52628e-20)
(0.383372 -0.0917693 1.90902e-18)
(0.370282 -0.113134 -1.22789e-19)
(0.351333 -0.145937 2.10134e-18)
(0.31843 -0.188242 2.47395e-18)
(0.271753 -0.293436 -2.23178e-18)
(0.419172 -0.0053999 -6.57589e-19)
(0.419267 -0.00600939 -6.6326e-19)
(0.419313 -0.00671587 -7.01901e-19)
(0.419376 -0.00749008 2.53546e-20)
(0.419426 -0.008327 -1.43696e-18)
(0.419435 -0.00923435 -7.48393e-19)
(0.419398 -0.0102217 -1.64061e-18)
(0.419314 -0.0112962 9.46659e-20)
(0.419178 -0.0124656 -5.12555e-20)
(0.418979 -0.0137404 -1.69354e-18)
(0.418707 -0.015134 6.45337e-21)
(0.418349 -0.0166627 -8.46064e-19)
(0.417889 -0.0183466 8.85065e-19)
(0.41731 -0.0202109 -8.98504e-21)
(0.416588 -0.0222871 1.2708e-19)
(0.415694 -0.024615 -1.32205e-19)
(0.414589 -0.0272459 1.10025e-18)
(0.413226 -0.0302463 1.15212e-18)
(0.411538 -0.0337043 1.52728e-19)