/*--------------------------------*- C++ -*----------------------------------*\
  =========                 |
  \\      /  F ield         | OpenFOAM: The Open Source CFD Toolbox
   \\    /   O peration     | Website:  https://openfoam.org
    \\  /    A nd           | Version:  11
     \\/     M anipulation  |
\*---------------------------------------------------------------------------*/
FoamFile
{
    format      ascii;
    class       volScalarField;
    location    "10";
    object      p;
}
// * * * * * * * * * * * * * * * * * * * * * * * * * * * * * * * * * * * * * //

dimensions      [0 2 -2 0 0 0 0];

internalField   nonuniform List<scalar> 
12600
(
0.0989513
0.0988151
0.0987529
0.0987369
0.0987242
0.0987068
0.0986882
0.0986704
0.0986532
0.0986361
0.0986187
0.0986006
0.0985819
0.0985623
0.0985417
0.0985197
0.0984958
0.0984694
0.0984402
0.0984074
0.09837
0.0983259
0.0982731
0.0982095
0.098131
0.0980319
0.0979035
0.0977302
0.097491
0.0970928
0.0988745
0.0988059
0.0987549
0.0987355
0.0987219
0.0987052
0.0986871
0.0986695
0.0986525
0.0986355
0.0986182
0.0986002
0.0985816
0.0985622
0.0985417
0.0985198
0.0984961
0.09847
0.0984412
0.098409
0.0983722
0.0983291
0.098278
0.0982158
0.0981391
0.0980419
0.0979198
0.0977571
0.0975765
0.0974071
0.0988391
0.0988068
0.0987626
0.0987372
0.0987219
0.098706
0.0986883
0.0986707
0.0986537
0.0986367
0.0986194
0.0986016
0.098583
0.0985637
0.0985435
0.098522
0.0984987
0.0984733
0.0984452
0.0984136
0.0983774
0.0983356
0.0982861
0.0982263
0.0981529
0.0980613
0.0979464
0.0978005
0.0976333
0.0974334
0.0988137
0.0987937
0.0987594
0.0987339
0.0987182
0.0987032
0.0986864
0.0986692
0.0986525
0.0986359
0.0986189
0.0986013
0.098583
0.098564
0.098544
0.0985228
0.0985002
0.0984756
0.0984482
0.0984175
0.0983827
0.0983428
0.0982958
0.0982394
0.0981707
0.0980856
0.0979795
0.097847
0.0976819
0.0974734
0.0987948
0.0987819
0.0987567
0.0987338
0.0987178
0.0987031
0.0986869
0.0986702
0.0986536
0.0986372
0.0986203
0.098603
0.0985851
0.0985664
0.0985468
0.0985258
0.0985036
0.0984796
0.0984533
0.0984238
0.0983908
0.098353
0.098309
0.0982567
0.0981936
0.0981162
0.09802
0.0979004
0.0977438
0.097547
0.0987805
0.0987717
0.0987526
0.0987323
0.098716
0.0987014
0.0986859
0.0986696
0.0986533
0.098637
0.0986204
0.0986033
0.0985857
0.0985671
0.0985481
0.0985279
0.0985063
0.0984832
0.098458
0.0984301
0.098399
0.0983638
0.0983233
0.0982758
0.0982192
0.0981506
0.0980657
0.0979604
0.0978191
0.0976419
0.0987694
0.0987629
0.098748
0.0987303
0.0987146
0.0987003
0.0986855
0.0986698
0.0986539
0.0986379
0.0986216
0.0986049
0.0985876
0.0985698
0.0985509
0.0985313
0.0985104
0.0984882
0.0984642
0.098438
0.0984091
0.0983768
0.0983403
0.0982981
0.0982485
0.0981896
0.0981173
0.0980286
0.0979076
0.0977573
0.0987607
0.0987556
0.0987436
0.0987282
0.0987134
0.0986994
0.098685
0.0986698
0.0986542
0.0986384
0.0986224
0.0986059
0.098589
0.0985715
0.0985532
0.0985342
0.0985142
0.098493
0.0984704
0.098446
0.0984195
0.0983903
0.098358
0.0983215
0.0982797
0.0982312
0.0981728
0.0981027
0.0980061
0.0978887
0.0987538
0.0987496
0.0987396
0.0987262
0.0987122
0.0986986
0.0986846
0.0986699
0.0986547
0.0986392
0.0986235
0.0986074
0.0985908
0.0985738
0.0985561
0.0985377
0.0985186
0.0984986
0.0984774
0.0984549
0.0984309
0.0984051
0.0983771
0.0983466
0.0983129
0.0982754
0.098232
0.098182
0.0981131
0.0980335
0.0987483
0.0987448
0.0987363
0.0987242
0.0987112
0.098698
0.0986844
0.0986701
0.0986552
0.09864
0.0986246
0.0986088
0.0985926
0.098576
0.0985589
0.0985413
0.0985231
0.0985042
0.0984845
0.098464
0.0984425
0.09842
0.0983966
0.0983722
0.0983468
0.0983205
0.0982926
0.0982639
0.098225
0.0981867
0.0987441
0.0987411
0.0987335
0.0987226
0.0987103
0.0986976
0.0986843
0.0986703
0.0986558
0.0986409
0.0986258
0.0986104
0.0985946
0.0985785
0.098562
0.0985451
0.0985279
0.0985101
0.0984919
0.0984734
0.0984544
0.0984354
0.0984164
0.0983981
0.0983809
0.0983659
0.0983536
0.0983467
0.098339
0.0983443
0.098741
0.0987383
0.0987314
0.0987214
0.0987097
0.0986973
0.0986843
0.0986707
0.0986565
0.0986419
0.0986271
0.098612
0.0985967
0.0985811
0.0985652
0.098549
0.0985327
0.0985161
0.0984994
0.0984828
0.0984663
0.0984505
0.098436
0.0984234
0.0984142
0.0984101
0.0984131
0.0984276
0.0984514
0.0985007
0.0987389
0.0987363
0.09873
0.0987205
0.0987094
0.0986973
0.0986846
0.0986712
0.0986573
0.098643
0.0986285
0.0986137
0.0985988
0.0985837
0.0985684
0.098553
0.0985375
0.0985221
0.0985069
0.0984921
0.0984781
0.0984654
0.0984549
0.0984478
0.098446
0.0984522
0.0984695
0.0985043
0.0985584
0.0986506
0.0987376
0.0987352
0.0987291
0.0987201
0.0987093
0.0986975
0.098685
0.0986719
0.0986582
0.0986442
0.0986299
0.0986155
0.0986009
0.0985863
0.0985716
0.0985569
0.0985424
0.0985281
0.0985142
0.0985012
0.0984894
0.0984796
0.0984728
0.0984707
0.0984756
0.0984908
0.0985211
0.0985742
0.0986561
0.098788
0.0987372
0.0987349
0.098729
0.0987202
0.0987096
0.0986979
0.0986856
0.0986726
0.0986592
0.0986454
0.0986314
0.0986173
0.0986031
0.098589
0.0985748
0.0985609
0.0985472
0.0985339
0.0985214
0.0985099
0.0985001
0.0984929
0.0984894
0.0984916
0.0985022
0.0985252
0.0985664
0.098635
0.0987409
0.0989071
0.0987376
0.0987353
0.0987294
0.0987207
0.0987101
0.0986986
0.0986863
0.0986735
0.0986602
0.0986466
0.0986329
0.0986191
0.0986053
0.0985916
0.098578
0.0985647
0.0985518
0.0985395
0.0985282
0.0985182
0.0985102
0.0985051
0.0985044
0.0985101
0.0985253
0.0985545
0.0986041
0.0986847
0.0988094
0.0990026
0.0987388
0.0987365
0.0987305
0.0987216
0.098711
0.0986994
0.0986872
0.0986745
0.0986613
0.0986479
0.0986344
0.0986209
0.0986075
0.0985942
0.0985811
0.0985684
0.0985563
0.0985449
0.0985346
0.0985259
0.0985194
0.0985162
0.0985177
0.0985261
0.0985446
0.098578
0.0986334
0.0987217
0.0988589
0.0990698
0.0987409
0.0987384
0.0987322
0.098723
0.0987121
0.0987005
0.0986883
0.0986756
0.0986625
0.0986492
0.0986359
0.0986227
0.0986096
0.0985967
0.0985841
0.098572
0.0985605
0.0985499
0.0985406
0.0985329
0.0985277
0.0985259
0.098529
0.0985392
0.0985597
0.0985953
0.0986534
0.098745
0.0988875
0.0991053
0.0987438
0.0987412
0.0987345
0.0987248
0.0987136
0.0987017
0.0986895
0.0986768
0.0986637
0.0986506
0.0986374
0.0986244
0.0986116
0.0985991
0.098587
0.0985754
0.0985645
0.0985546
0.0985461
0.0985393
0.0985351
0.0985343
0.0985384
0.0985495
0.0985706
0.0986065
0.0986641
0.0987541
0.0988944
0.0991073
0.0987477
0.0987448
0.0987374
0.0987269
0.0987152
0.0987032
0.0986908
0.098678
0.098665
0.0986519
0.0986389
0.0986261
0.0986136
0.0986014
0.0985897
0.0985786
0.0985683
0.098559
0.0985511
0.0985451
0.0985415
0.0985413
0.0985458
0.098557
0.0985775
0.0986116
0.0986659
0.0987496
0.09888
0.0990763
0.0987526
0.0987493
0.098741
0.0987294
0.098717
0.0987047
0.0986922
0.0986793
0.0986662
0.0986532
0.0986404
0.0986278
0.0986155
0.0986036
0.0985922
0.0985815
0.0985717
0.098563
0.0985556
0.0985501
0.098547
0.098547
0.0985514
0.0985618
0.0985805
0.0986112
0.0986592
0.0987324
0.0988459
0.0990145
0.0987588
0.0987548
0.0987451
0.0987322
0.098719
0.0987064
0.0986937
0.0986806
0.0986674
0.0986544
0.0986417
0.0986293
0.0986173
0.0986057
0.0985946
0.0985843
0.0985749
0.0985666
0.0985597
0.0985545
0.0985516
0.0985517
0.0985555
0.0985645
0.0985804
0.098606
0.0986456
0.0987047
0.0987953
0.0989268
0.0987663
0.0987614
0.0987498
0.098735
0.098721
0.0987082
0.0986953
0.0986819
0.0986686
0.0986556
0.098643
0.0986307
0.0986188
0.0986075
0.0985967
0.0985867
0.0985777
0.0985697
0.0985631
0.0985582
0.0985553
0.098555
0.0985579
0.098565
0.0985773
0.0985968
0.0986261
0.0986685
0.0987318
0.0988193
0.0987757
0.0987693
0.0987548
0.0987378
0.0987231
0.09871
0.0986968
0.0986832
0.0986697
0.0986568
0.0986443
0.0986322
0.0986205
0.0986094
0.0985989
0.0985892
0.0985804
0.0985728
0.0985664
0.0985616
0.0985587
0.0985579
0.0985596
0.0985643
0.0985726
0.0985852
0.0986032
0.0986273
0.0986609
0.0987007
0.0987873
0.0987786
0.09876
0.0987404
0.0987252
0.0987119
0.0986982
0.0986841
0.0986705
0.0986575
0.0986451
0.0986331
0.0986215
0.0986106
0.0986003
0.0985909
0.0985823
0.0985749
0.0985688
0.098564
0.0985609
0.0985594
0.0985599
0.0985622
0.0985661
0.0985715
0.0985777
0.0985831
0.0985869
0.0985791
0.098802
0.0987894
0.0987646
0.0987425
0.0987274
0.0987143
0.0987
0.0986856
0.0986719
0.098659
0.0986467
0.0986347
0.0986233
0.0986125
0.0986024
0.0985931
0.0985848
0.0985776
0.0985715
0.0985668
0.0985634
0.0985613
0.0985604
0.0985602
0.0985599
0.0985581
0.0985529
0.0985403
0.0985165
0.0984649
0.0988213
0.0988016
0.0987678
0.0987432
0.0987284
0.098715
0.0987002
0.0986855
0.0986718
0.0986589
0.0986467
0.0986348
0.0986235
0.0986129
0.098603
0.098594
0.0985859
0.0985788
0.0985729
0.0985681
0.0985645
0.0985618
0.0985599
0.0985574
0.0985532
0.0985447
0.098529
0.0984999
0.0984533
0.0983647
0.0988471
0.0988151
0.0987715
0.0987467
0.0987325
0.0987181
0.0987024
0.0986874
0.0986736
0.0986607
0.0986483
0.0986365
0.0986252
0.0986147
0.0986049
0.0985959
0.098588
0.098581
0.0985752
0.0985705
0.0985664
0.0985631
0.0985602
0.0985559
0.0985483
0.0985342
0.0985088
0.0984646
0.0984013
0.0982912
0.0988827
0.0988144
0.098764
0.0987455
0.0987329
0.0987177
0.0987015
0.0986866
0.098673
0.0986602
0.098648
0.0986362
0.0986251
0.0986147
0.0986051
0.0985963
0.0985884
0.0985816
0.0985759
0.0985711
0.0985674
0.098564
0.0985602
0.0985545
0.0985445
0.098526
0.0984926
0.0984341
0.0983492
0.0982475
0.0989597
0.0988237
0.0987621
0.0987469
0.0987354
0.0987194
0.0987028
0.0986877
0.098674
0.0986612
0.0986489
0.0986372
0.0986261
0.0986157
0.0986061
0.0985973
0.0985894
0.0985828
0.098577
0.0985722
0.0985688
0.0985657
0.0985613
0.0985548
0.0985436
0.0985229
0.0984842
0.0984147
0.098278
0.0980297
0.0973472
0.0967169
0.0964483
0.0965116
0.0965644
0.0965229
0.0964366
0.0963579
0.0962954
0.0962468
0.0962136
0.0961995
0.0962069
0.0962378
0.0962947
0.0963809
0.0965002
0.096657
0.0968558
0.0971013
0.0973973
0.0977417
0.0981433
0.0985105
0.0990503
0.0986571
0.0999515
0.0933028
0.0985148
0.0515796
0.0977778
0.0972034
0.0968471
0.0968224
0.0968047
0.096732
0.0966457
0.0965785
0.0965397
0.0965195
0.096516
0.0965327
0.0965729
0.0966392
0.0967348
0.0968644
0.0970331
0.0972469
0.0975125
0.0978375
0.0982299
0.0986963
0.0992428
0.0998395
0.100557
0.100817
0.102048
0.0977849
0.101964
0.0636601
0.0973347
0.0970449
0.0968712
0.0968813
0.0968885
0.0968378
0.0967869
0.0967598
0.096754
0.0967628
0.0967879
0.0968351
0.0969084
0.0970111
0.0971473
0.0973226
0.0975435
0.0978177
0.0981544
0.0985644
0.0990603
0.0996556
0.100364
0.101185
0.102151
0.102971
0.104394
0.102202
0.10583
0.0758324
0.0972787
0.0971742
0.0971054
0.0970867
0.0970691
0.0970331
0.0970061
0.0970025
0.0970194
0.0970535
0.0971078
0.0971872
0.0972958
0.0974373
0.0976169
0.0978412
0.0981182
0.0984576
0.0988711
0.099373
0.0999808
0.100715
0.101599
0.102656
0.103911
0.105255
0.107042
0.106683
0.11019
0.0879046
0.0973271
0.0972814
0.0972533
0.0972361
0.097226
0.0972201
0.0972267
0.0972522
0.0972965
0.0973599
0.0974459
0.0975592
0.0977045
0.0978867
0.0981119
0.0983881
0.0987248
0.0991336
0.099629
0.100229
0.100956
0.101839
0.102912
0.104215
0.10579
0.107638
0.109925
0.111189
0.114988
0.099792
0.0974279
0.0974208
0.0974294
0.0974307
0.0974359
0.0974528
0.0974847
0.0975344
0.0976038
0.0976953
0.0978127
0.0979605
0.0981438
0.0983685
0.0986417
0.0989726
0.0993722
0.0998544
0.100437
0.101141
0.101995
0.103035
0.104306
0.105867
0.107784
0.11013
0.113004
0.115723
0.120115
0.11136
0.0975647
0.097585
0.0976196
0.0976381
0.0976595
0.0976981
0.0977554
0.0978315
0.0979286
0.0980502
0.0982003
0.098384
0.0986069
0.0988758
0.099199
0.0995869
0.100052
0.100612
0.101285
0.102098
0.103085
0.104289
0.105768
0.107597
0.109868
0.112711
0.116226
0.120249
0.125465
0.122441
0.0977257
0.0977689
0.0978258
0.0978632
0.097904
0.0979649
0.0980471
0.0981491
0.0982735
0.0984248
0.0986077
0.0988277
0.0990909
0.0994052
0.0997799
0.100227
0.100761
0.1014
0.102167
0.103094
0.104218
0.105592
0.107284
0.109388
0.11202
0.115355
0.119533
0.124727
0.130938
0.132853
0.0979065
0.0979694
0.098046
0.0981022
0.0981624
0.0982451
0.098351
0.0984785
0.0986304
0.0988117
0.0990279
0.0992847
0.099589
0.0999494
0.100377
0.100884
0.101487
0.102208
0.103072
0.104114
0.105378
0.106925
0.108834
0.111213
0.114206
0.118025
0.122863
0.129105
0.136414
0.142435
0.0981006
0.0981812
0.0982756
0.0983501
0.0984299
0.0985337
0.0986628
0.0988154
0.0989944
0.0992055
0.0994545
0.0997478
0.100093
0.1005
0.100979
0.101547
0.10222
0.103023
0.103984
0.105142
0.106547
0.108266
0.11039
0.113041
0.116387
0.120672
0.126146
0.133314
0.141752
0.151038
0.0983033
0.0983994
0.0985092
0.0986012
0.0986999
0.0988241
0.0989752
0.0991519
0.0993571
0.099597
0.099878
0.100207
0.100592
0.101044
0.101576
0.102203
0.102945
0.103828
0.104885
0.106156
0.107699
0.109587
0.111919
0.114834
0.118517
0.123239
0.129304
0.137275
0.146793
0.158449
0.0985074
0.0986168
0.0987398
0.0988481
0.0989647
0.0991081
0.0992798
0.099479
0.099709
0.0999762
0.100288
0.10065
0.101074
0.101569
0.10215
0.102834
0.103642
0.104603
0.105751
0.107132
0.108806
0.110854
0.113384
0.116545
0.120541
0.125663
0.132256
0.140903
0.151361
0.164404
0.0987059
0.0988262
0.0989599
0.0990826
0.0992158
0.0993764
0.0995667
0.0997863
0.100039
0.100331
0.10067
0.101064
0.101523
0.102058
0.102685
0.103422
0.104292
0.105324
0.106557
0.108039
0.109835
0.11203
0.11474
0.118124
0.1224
0.127872
0.134919
0.14411
0.155306
0.168932
0.0988904
0.099019
0.0991607
0.0992957
0.0994434
0.099619
0.0998252
0.100062
0.100335
0.100648
0.101012
0.101433
0.101923
0.102493
0.103161
0.103944
0.104869
0.105965
0.107273
0.108845
0.110748
0.113073
0.115941
0.119519
0.124032
0.129796
0.137208
0.146804
0.158531
0.172408
0.0990527
0.0991868
0.0993335
0.0994781
0.0996375
0.0998252
0.100044
0.100295
0.100583
0.100914
0.101298
0.101741
0.102256
0.102856
0.103557
0.104379
0.105349
0.106499
0.107871
0.109517
0.11151
0.113942
0.11694
0.120673
0.125376
0.131362
0.139043
0.148898
0.160959
0.174564
0.0991844
0.0993211
0.0994698
0.0996208
0.0997886
0.0999846
0.100212
0.100473
0.100772
0.101115
0.101513
0.101972
0.102506
0.103127
0.103853
0.104704
0.105709
0.106899
0.108319
0.110022
0.112083
0.114596
0.11769
0.121536
0.126371
0.132505
0.140348
0.15031
0.162467
0.175117
0.0992783
0.0994144
0.0995619
0.0997156
0.0998878
0.100088
0.100319
0.100584
0.100889
0.101239
0.101643
0.102112
0.102656
0.103289
0.10403
0.104899
0.105925
0.107141
0.10859
0.11033
0.112434
0.114997
0.118149
0.122061
0.126967
0.133166
0.141056
0.150958
0.162904
0.174237
0.0993286
0.0994608
0.0996039
0.0997563
0.0999283
0.100128
0.100358
0.100622
0.100925
0.101275
0.101679
0.102148
0.102693
0.103328
0.104072
0.104947
0.105979
0.107203
0.108663
0.110417
0.112535
0.115116
0.118285
0.122212
0.127121
0.133298
0.141114
0.150771
0.162203
0.171979
0.0993318
0.099457
0.0995924
0.0997391
0.0999058
0.100099
0.100322
0.100579
0.100874
0.101216
0.101612
0.102072
0.102609
0.103235
0.10397
0.104835
0.105858
0.107072
0.108522
0.110264
0.112369
0.114931
0.118075
0.121962
0.126808
0.132872
0.140489
0.149716
0.16047
0.168213
0.0992877
0.0994025
0.099527
0.0996635
0.0998197
0.100001
0.100211
0.100454
0.100735
0.101061
0.10144
0.101882
0.102399
0.103005
0.103718
0.104559
0.105555
0.106741
0.108159
0.109864
0.111925
0.114433
0.117508
0.121302
0.126017
0.131879
0.139182
0.147805
0.157814
0.162807
0.0991987
0.0992998
0.0994101
0.099532
0.0996723
0.0998364
0.100028
0.10025
0.100509
0.100811
0.101165
0.101579
0.102066
0.10264
0.103317
0.10412
0.105074
0.106212
0.107577
0.109219
0.111207
0.113627
0.116591
0.120241
0.12476
0.130335
0.137221
0.145074
0.154289
0.155978
0.0990718
0.0991561
0.0992489
0.0993515
0.0994709
0.0996121
0.0997786
0.099974
0.100204
0.100474
0.100793
0.101171
0.101618
0.102148
0.102777
0.103527
0.104423
0.105496
0.106785
0.108342
0.110229
0.112528
0.115341
0.118798
0.12306
0.128266
0.134646
0.141569
0.14995
0.147942
0.0989155
0.0989799
0.0990517
0.0991309
0.0992245
0.0993378
0.0994741
0.0996367
0.0998306
0.100062
0.100339
0.100671
0.101068
0.101543
0.102112
0.102796
0.103618
0.104608
0.105804
0.107253
0.109013
0.111159
0.113785
0.117002
0.120953
0.125718
0.131521
0.137368
0.144875
0.138479
0.0987433
0.0987847
0.0988318
0.0988833
0.0989464
0.099027
0.0991275
0.0992512
0.0994028
0.0995888
0.0998163
0.100094
0.100432
0.100842
0.101341
0.101946
0.102681
0.103574
0.104659
0.105979
0.107589
0.109556
0.111963
0.114902
0.118494
0.122758
0.127927
0.13255
0.139181
0.127589
0.0985678
0.0985834
0.0986014
0.0986214
0.0986518
0.0986971
0.0987585
0.0988384
0.0989422
0.0990759
0.0992466
0.0994623
0.0997327
0.10007
0.100488
0.101004
0.10164
0.102421
0.10338
0.104556
0.105997
0.107762
0.109922
0.112552
0.11575
0.119461
0.123954
0.127189
0.133004
0.115497
0.0984099
0.0983959
0.0983753
0.0983561
0.0983493
0.0983556
0.0983741
0.0984074
0.0984603
0.0985382
0.0986474
0.0987958
0.0989927
0.099249
0.0995781
0.0999961
0.100523
0.101182
0.102002
0.103019
0.104275
0.10582
0.107714
0.110008
0.112785
0.115898
0.119694
0.121397
0.126455
0.10239
0.0982896
0.0982431
0.0981774
0.0981207
0.0980793
0.0980426
0.0980101
0.0979887
0.0979836
0.0979993
0.0980409
0.0981158
0.098233
0.0984024
0.0986362
0.0989492
0.0993593
0.0998881
0.100561
0.10141
0.10247
0.103783
0.105396
0.107338
0.109674
0.112153
0.115251
0.115227
0.119652
0.0885114
0.0982524
0.0981137
0.0979572
0.0978623
0.0978022
0.0977382
0.0976641
0.0975932
0.0975301
0.0974813
0.0974517
0.097449
0.0974816
0.0975583
0.09769
0.0978903
0.0981756
0.0985653
0.0990822
0.0997526
0.100607
0.101677
0.102998
0.104574
0.10646
0.108272
0.11071
0.108738
0.112766
0.0740639
0.098529
0.0982105
0.0978786
0.0976972
0.0975859
0.0974721
0.0973512
0.0972295
0.0971066
0.0969909
0.0968866
0.0968038
0.0967508
0.0967344
0.0967642
0.0968531
0.0970151
0.0972675
0.0976298
0.0981238
0.0987736
0.0996013
0.100631
0.101839
0.103277
0.104391
0.106235
0.102086
0.105943
0.0592545
0.098383
0.0978548
0.0975637
0.0974728
0.0974112
0.0972851
0.0971169
0.096931
0.0967446
0.0965624
0.0963772
0.0962069
0.0960599
0.0959386
0.0958507
0.0958095
0.0958289
0.0959252
0.0961148
0.0964152
0.096845
0.0974169
0.0981454
0.0989716
0.0999773
0.100331
0.101747
0.0951041
0.0990997
0.0443077
0.0309119
0.0167891
0.000831134
-0.0158945
-0.0326655
-0.049234
-0.0653588
-0.0807031
-0.094833
-0.107206
-0.117232
-0.124338
-0.12798
-0.128176
-0.125677
-0.121737
-0.117767
-0.114365
-0.111601
-0.109837
-0.108984
-0.10822
-0.107075
-0.105817
-0.104393
-0.102141
-0.0999208
-0.0977616
-0.095706
-0.0942153
0.091968
0.0815154
0.0700301
0.0585674
0.0465641
0.0337222
0.0203041
0.00656368
-0.00727497
-0.0208902
-0.0340101
-0.0465114
-0.0573009
-0.0657848
-0.0728135
-0.0784137
-0.083206
-0.0878277
-0.0922304
-0.0963218
-0.0999261
-0.10264
-0.104121
-0.103615
-0.0996955
-0.0923613
-0.0845967
-0.0796555
-0.0783901
-0.0785452
0.0892306
0.0820849
0.0739113
0.0647273
0.054319
0.042791
0.0302454
0.0170476
0.00394715
-0.00866655
-0.0207821
-0.0320479
-0.0419127
-0.0501124
-0.0567682
-0.0620169
-0.0663427
-0.0698638
-0.0727288
-0.0753497
-0.0771693
-0.0774121
-0.0760127
-0.0731779
-0.0694205
-0.0662731
-0.0657749
-0.0683285
-0.0732022
-0.0779482
0.0980428
0.09294
0.0864821
0.0791615
0.0708917
0.0614572
0.0508742
0.0393869
0.0272744
0.0147692
0.00225243
-0.00970961
-0.0205525
-0.0298556
-0.0374618
-0.0434599
-0.0481206
-0.0515819
-0.0539261
-0.0552334
-0.0552826
-0.0539699
-0.0516759
-0.0490718
-0.0468943
-0.0455284
-0.0450766
-0.045154
-0.0449509
-0.0445215
0.0972558
0.0935383
0.0889778
0.083573
0.0771463
0.0695713
0.0608066
0.0508894
0.039978
0.0283778
0.0165065
0.00486587
-0.00599308
-0.0155596
-0.0235102
-0.0297688
-0.0344295
-0.0376059
-0.0393785
-0.0398288
-0.039024
-0.0371732
-0.0346711
-0.0319351
-0.0291749
-0.0263197
-0.0231246
-0.0193557
-0.0147039
-0.00974894
0.0976001
0.0948273
0.0912733
0.0868575
0.0814863
0.0750325
0.0674087
0.0586005
0.0487023
0.0379497
0.0267127
0.0154766
0.00480908
-0.00472741
-0.0127116
-0.0189473
-0.0234317
-0.0262546
-0.0275129
-0.0273234
-0.0258734
-0.0234127
-0.0202274
-0.016532
-0.0123742
-0.007673
-0.00231972
0.00366847
0.0102787
0.0168135
0.0969895
0.0947949
0.0919655
0.088422
0.0840131
0.078597
0.0720601
0.0643411
0.0554689
0.0456022
0.0350563
0.0243002
0.0139159
0.00450862
-0.00342163
-0.00958094
-0.0138865
-0.0163898
-0.017197
-0.0164558
-0.0143879
-0.0112428
-0.00725218
-0.00257123
0.00273757
0.00864083
0.0150416
0.0216838
0.028331
0.0340541
0.0964823
0.094711
0.0924058
0.0894522
0.0857157
0.0810597
0.0753549
0.0685101
0.0605066
0.051443
0.0415787
0.0313474
0.021324
0.0121397
0.00435442
-0.00165877
-0.00574724
-0.00792887
-0.00830019
-0.00703434
-0.00437065
-0.000562747
0.00416613
0.00964356
0.0157268
0.0222393
0.0289081
0.035378
0.0413674
0.0460636
0.0959879
0.0944898
0.0925336
0.0900168
0.0868109
0.0827599
0.0777254
0.0716023
0.0643385
0.0559867
0.0467577
0.0370472
0.0274154
0.018509
0.0109328
0.00512256
0.00128608
-0.00056077
-0.000504985
0.00125704
0.00446796
0.00886014
0.0141877
0.0202226
0.026729
0.033418
0.0399444
0.0460006
0.0513446
0.0554355
0.0956017
0.0942951
0.0925871
0.0903922
0.0875821
0.0840014
0.0795071
0.0739805
0.0673466
0.0596223
0.0509748
0.0417617
0.0325239
0.0239153
0.0165748
0.0109888
0.00741035
0.00588946
0.00634315
0.00855524
0.0122464
0.0171223
0.0228953
0.0292744
0.0359523
0.0425862
0.0488577
0.0545549
0.059479
0.0633606
0.0953216
0.0941459
0.0926089
0.0906491
0.0881421
0.0849328
0.080875
0.0758421
0.0697432
0.0625667
0.0544428
0.0456936
0.0368377
0.0285299
0.0214349
0.016081
0.0127593
0.0115533
0.012377
0.0149946
0.0190987
0.0243594
0.0304425
0.0370053
0.0437028
0.0501935
0.0562324
0.0616799
0.0663843
0.0702634
0.0951452
0.0940616
0.0926458
0.090862
0.088589
0.0856708
0.081963
0.0773366
0.0716893
0.0649869
0.0573287
0.0490043
0.0405097
0.0324959
0.0256469
0.0205255
0.0174564
0.0165496
0.017713
0.0206891
0.0251387
0.0306932
0.0369763
0.0436122
0.0502483
0.0565795
0.0624299
0.0676863
0.0722285
0.0760509
0.0950608
0.0940431
0.0927137
0.0910618
0.0889708
0.0862829
0.0828571
0.0785661
0.0733002
0.0670071
0.0597602
0.0518207
0.0436617
0.0359282
0.0293181
0.0244228
0.0215971
0.0209698
0.022441
0.0257301
0.0304641
0.0362362
0.0426362
0.0492733
0.0558091
0.0619859
0.0676647
0.0727184
0.0770345
0.0806255
0.0950553
0.0940866
0.0928206
0.0912693
0.0893179
0.0868145
0.0836174
0.0796039
0.0746594
0.0687181
0.0618323
0.0542377
0.0463862
0.0389149
0.0325319
0.0278517
0.0252554
0.024888
0.0266374
0.0301978
0.0351625
0.0410904
0.0475467
0.0541394
0.0605542
0.0665713
0.0720539
0.0768507
0.0808617
0.0840053
0.0951153
0.094185
0.0929675
0.0914954
0.089656
0.0872976
0.0842865
0.0805025
0.0758285
0.0701885
0.0636177
0.0563295
0.0487559
0.0415258
0.0353554
0.0308807
0.0284939
0.0283664
0.0303668
0.0341611
0.0393105
0.0453449
0.0518139
0.0583332
0.0646118
0.0704458
0.0756781
0.0801654
0.0837768
0.0862509
0.0952282
0.0943299
0.0931517
0.0917434
0.089995
0.0877545
0.0848949
0.0813006
0.0768536
0.0714709
0.065173
0.0581544
0.050829
0.0438173
0.0378417
0.0335531
0.0313664
0.0314586
0.0336839
0.0376796
0.0429755
0.0490776
0.0555276
0.061953
0.0680793
0.0736921
0.0786357
0.0827818
0.0859122
0.0876937
0.0953826
0.094513
0.0933686
0.0920141
0.0903414
0.0881987
0.0854637
0.0820266
0.07777
0.0726058
0.0665428
0.0597589
0.0526522
0.045835
0.040035
0.0359169
0.033916
0.0342088
0.0366356
0.0408046
0.0462162
0.0523563
0.0587637
0.0650779
0.0710333
0.0763892
0.0810013
0.0847221
0.087109
0.0881781
0.0955685
0.0947268
0.0936133
0.092306
0.0906981
0.088639
0.0860087
0.0827024
0.078605
0.0736254
0.0677627
0.0611806
0.0542634
0.0476162
0.0419718
0.0380079
0.0361772
0.0366536
0.0392621
0.0435812
0.0490838
0.055239
0.0615853
0.067765
0.0734878
0.0786063
0.0828287
0.0860003
0.0874891
0.087489
0.0957775
0.0949643
0.0938805
0.0926164
0.0910661
0.0890788
0.0865395
0.0833434
0.0793796
0.0745552
0.0688613
0.0624502
0.0556937
0.0491917
0.043682
0.0398554
0.0381797
0.0388252
0.0415992
0.04605
0.0516243
0.057777
0.0640476
0.07008
0.0756034
0.0804064
0.084162
0.0866587
0.0871261
0.0858942
0.0960039
0.0952197
0.0941652
0.0929422
0.0914457
0.0895232
0.0870625
0.0839612
0.0801102
0.0754154
0.0698623
0.0635929
0.0569691
0.0505867
0.0451903
0.0414838
0.0399484
0.0407502
0.0436768
0.0482458
0.0538788
0.060017
0.0662018
0.0720767
0.0773798
0.0818225
0.0850343
0.086718
0.086069
0.083496
0.0962416
0.0954875
0.0944632
0.0932803
0.0918353
0.0899739
0.0875836
0.0845649
0.0808098
0.0762228
0.0707849
0.0646299
0.0581111
0.0518226
0.0465174
0.0429133
0.0415042
0.0424521
0.0455216
0.050199
0.0558838
0.0620014
0.0680926
0.073814
0.0788679
0.0828898
0.0854767
0.0862264
0.084417
0.0805284
0.0964845
0.0957622
0.0947687
0.0936262
0.092232
0.0904302
0.0881065
0.0851615
0.0814887
0.0769909
0.0716456
0.0655791
0.0591382
0.0529174
0.0476808
0.0441609
0.0428653
0.0439513
0.0471582
0.0519394
0.0576726
0.0637654
0.0697653
0.0753326
0.0801045
0.0836428
0.0855303
0.0852749
0.0823483
0.0773808
0.0967302
0.0960393
0.0950769
0.0939756
0.0926327
0.0908902
0.0886317
0.0857554
0.0821547
0.0777311
0.0724581
0.0664557
0.0600657
0.053886
0.0486951
0.0452423
0.0440486
0.045267
0.0486095
0.0534946
0.059278
0.0653416
0.0712524
0.0766658
0.0811122
0.0841105
0.0852448
0.0839638
0.0800499
0.0743269
0.0969766
0.0963179
0.0953867
0.0943262
0.0930347
0.0913522
0.08916
0.0863501
0.082814
0.0784522
0.0732348
0.0672743
0.0609083
0.0547411
0.0495698
0.0461638
0.045061
0.0464094
0.049889
0.0548827
0.0607241
0.0667692
0.0726125
0.0778559
0.0819264
0.0843328
0.0846808
0.0823896
0.0776478
0.0714957
0.0972191
0.0965954
0.095696
0.0946754
0.0934347
0.0918136
0.0896874
0.0869467
0.0834713
0.079161
0.0739836
0.0680449
0.061679
0.0554986
0.0503259
0.0469458
0.0459217
0.0473997
0.05102
0.0561322
0.0620405
0.0680504
0.0738386
0.0789063
0.0825498
0.0843327
0.0838777
0.0806061
0.0752152
0.0689469
0.0974435
0.0968684
0.0960051
0.0950236
0.0938312
0.0922716
0.0902151
0.0875448
0.0841334
0.0798697
0.0747185
0.0687788
0.0623844
0.0561565
0.0509665
0.0476047
0.0466476
0.0482561
0.0520254
0.0572598
0.0632614
0.0693324
0.0750428
0.0798691
0.0830291
0.0841657
0.0828906
0.0786677
0.072771
0.0666083
0.0976485
0.0971291
0.0963075
0.0953712
0.0942263
0.0927267
0.0907408
0.0881314
0.0847791
0.0805587
0.0754276
0.0694714
0.0630238
0.056713
0.0513872
0.0480513
0.0471824
0.0489449
0.0528886
0.0582675
0.0642912
0.0703145
0.0761031
0.0806583
0.0833185
0.0838222
0.0817438
0.0766117
0.0701129
0.0644012
0.0978318
0.0973537
0.0965901
0.0957109
0.0946202
0.0931901
0.0913091
0.088823
0.0855272
0.0813482
0.0762301
0.0702449
0.0637318
0.0573854
0.0520556
0.0485
0.047666
0.0495697
0.0537001
0.0593086
0.0655677
0.0717203
0.0773077
0.0814967
0.0835517
0.0833205
0.080301
0.0742749
0.0675295
0.0628035
0.0980299
0.0975578
0.0968442
0.0959885
0.094915
0.0935099
0.0916336
0.0891764
0.0859844
0.0818629
0.0767076
0.0706364
0.0639973
0.0575412
0.0521184
0.0486865
0.0479366
0.0499874
0.0542612
0.059891
0.0660178
0.0723494
0.0780829
0.0819734
0.0835652
0.0832972
0.0791664
0.071808
0.0647562
0.060815
0.0982874
0.0978324
0.0972428
0.0964852
0.095507
0.0942255
0.0925045
0.0901741
0.0870918
0.0830675
0.0779685
0.0718141
0.0649818
0.0582462
0.0525248
0.0488682
0.0481784
0.05049
0.0552061
0.0613054
0.0678788
0.0742295
0.0794734
0.0828356
0.0835871
0.0813433
0.075756
0.0682251
0.0625906
0.0602735
0.0189296
0.0399898
0.0560896
0.0614317
0.0653473
0.0650448
0.0653486
0.0670765
0.0693666
0.0717917
0.0740867
0.0761545
0.0779266
0.0794409
0.0807076
0.0817666
0.0826473
0.0833818
0.0839981
0.0845187
0.0849739
0.0853654
0.0857493
0.0860727
0.0865058
0.0868451
0.0874391
0.0878617
0.0889521
0.0879606
0.0171018
0.0384478
0.0562679
0.0635895
0.0655933
0.0649994
0.0643893
0.0657224
0.0679123
0.0703636
0.0727574
0.074944
0.0768476
0.0784867
0.0798741
0.0810434
0.0820269
0.0828538
0.0835528
0.0841447
0.0846609
0.0851033
0.0855238
0.0858757
0.0862622
0.086566
0.0869729
0.0871532
0.0876334
0.0872791
0.016004
0.0357729
0.0560277
0.0667839
0.065893
0.065006
0.0633857
0.0640697
0.0660718
0.0685357
0.071053
0.0733938
0.0754731
0.0772878
0.078844
0.0801682
0.0812934
0.0822468
0.0830555
0.0837417
0.0843333
0.0848404
0.0852967
0.0856926
0.0860669
0.086377
0.0867207
0.0869807
0.087332
0.0875606
0.0148843
0.0334022
0.0557558
0.069801
0.0675244
0.0645052
0.0624594
0.062365
0.0641955
0.066792
0.0695351
0.072094
0.0743814
0.076392
0.0781217
0.0795936
0.0808442
0.081903
0.0827976
0.0835529
0.084196
0.0847446
0.0852245
0.0856473
0.08604
0.0863968
0.086768
0.0871202
0.0875166
0.0878763
0.0128711
0.0307948
0.0548929
0.0717663
0.0705224
0.0638451
0.0613778
0.0605267
0.0620394
0.0648052
0.0678599
0.0706868
0.073205
0.0754326
0.0773534
0.0789844
0.0803685
0.0815394
0.0825257
0.0833551
0.0840549
0.0846472
0.0851559
0.0855987
0.0859995
0.0863668
0.0867246
0.0870709
0.0874264
0.0877869
0.00968253
0.0271413
0.0522782
0.072908
0.0738581
0.0639593
0.0593392
0.0582846
0.059245
0.0621776
0.0656825
0.0688713
0.0716672
0.074158
0.0763186
0.0781526
0.079709
0.0810272
0.0821373
0.0830688
0.08385
0.0845052
0.0850579
0.0855281
0.0859369
0.0862999
0.0866352
0.0869562
0.0872712
0.0876299
0.00539941
0.0224038
0.0481495
0.0724474
0.0767099
0.064954
0.0565128
0.0553578
0.0556835
0.0586724
0.0628345
0.0665753
0.0697387
0.0725569
0.0750188
0.0771083
0.0788804
0.0803832
0.0816497
0.0827112
0.0835982
0.0843367
0.0849509
0.0854628
0.0858938
0.0862635
0.0865904
0.0868948
0.0871787
0.087509
-0.000119802
0.0163623
0.042167
0.0693663
0.0783105
0.066822
0.0539053
0.0508262
0.0513503
0.0541245
0.0591314
0.0637102
0.0673799
0.0706033
0.0734333
0.0758332
0.0778642
0.0795879
0.0810421
0.0822615
0.0832794
0.0841238
0.0848201
0.0853917
0.0858608
0.0862486
0.0865743
0.0868613
0.0871099
0.0873966
-0.00700396
0.00877019
0.0344472
0.0633906
0.0770806
0.0685578
0.0518974
0.044971
0.0456324
0.0482236
0.0542157
0.0600516
0.0644583
0.0681923
0.0714685
0.0742432
0.0765838
0.0785703
0.0802492
0.0816599
0.0828394
0.0838185
0.0846238
0.0852792
0.0858071
0.0862291
0.0865649
0.0868401
0.0870551
0.0872965
-0.0154284
-0.000730677
0.024383
0.054813
0.0726267
0.0682179
0.0504734
0.03863
0.0377889
0.0408112
0.0474595
0.0551359
0.0607172
0.0651634
0.0690011
0.0722336
0.074945
0.0772422
0.079187
0.0808263
0.0822024
0.0833498
0.0842968
0.0850678
0.0856848
0.0861683