/*--------------------------------*- C++ -*----------------------------------*\
  =========                 |
  \\      /  F ield         | OpenFOAM: The Open Source CFD Toolbox
   \\    /   O peration     | Website:  https://openfoam.org
    \\  /    A nd           | Version:  11
     \\/     M anipulation  |
\*---------------------------------------------------------------------------*/
FoamFile
{
    format      ascii;
    class       volScalarField;
    location    "10";
    object      p;
}
// * * * * * * * * * * * * * * * * * * * * * * * * * * * * * * * * * * * * * //

dimensions      [0 2 -2 0 0 0 0];

internalField   nonuniform List<scalar> 
12600
(
0.226959
0.226873
0.226816
0.226784
0.226756
0.22672
0.226677
0.226628
0.226571
0.226505
0.226428
0.226338
0.226232
0.226107
0.225959
0.225782
0.225572
0.225321
0.22502
0.224658
0.224221
0.223692
0.223051
0.222272
0.221325
0.220173
0.218776
0.217082
0.215064
0.212588
0.226898
0.226856
0.226814
0.226784
0.226758
0.226724
0.226682
0.226633
0.226576
0.226511
0.226436
0.226348
0.226244
0.226122
0.225977
0.225805
0.225599
0.225354
0.22506
0.224706
0.224278
0.22376
0.223132
0.222367
0.221435
0.220299
0.218916
0.217234
0.215193
0.212721
0.226876
0.226855
0.226823
0.226794
0.226765
0.226731
0.226691
0.226644
0.226589
0.226526
0.226453
0.226368
0.226267
0.226149
0.226009
0.225843
0.225645
0.225409
0.225126
0.224785
0.224373
0.223875
0.223268
0.222529
0.221625
0.220519
0.219163
0.21751
0.215464
0.21302
0.226862
0.22685
0.226825
0.226799
0.22677
0.226738
0.2267
0.226656
0.226604
0.226544
0.226474
0.226393
0.226297
0.226185
0.226053
0.225896
0.225709
0.225486
0.22522
0.224899
0.224511
0.22404
0.223467
0.222766
0.221906
0.220848
0.21954
0.217934
0.215915
0.213496
0.226858
0.22685
0.226831
0.226808
0.226781
0.226751
0.226716
0.226674
0.226625
0.226569
0.226504
0.226427
0.226338
0.226234
0.22611
0.225965
0.225792
0.225586
0.22534
0.225045
0.224687
0.224253
0.223724
0.223074
0.222272
0.221279
0.22004
0.218504
0.21654
0.214172
0.22686
0.226853
0.226839
0.226818
0.226794
0.226766
0.226733
0.226695
0.22665
0.226597
0.226537
0.226467
0.226385
0.22629
0.226178
0.226046
0.22589
0.225705
0.225484
0.225219
0.224899
0.22451
0.224034
0.223447
0.222719
0.221811
0.220665
0.219226
0.217351
0.215064
0.226866
0.226861
0.226849
0.226831
0.226809
0.226784
0.226754
0.226719
0.226678
0.226631
0.226576
0.226513
0.22644
0.226355
0.226256
0.22614
0.226003
0.225841
0.225649
0.225419
0.225142
0.224805
0.224393
0.223882
0.223244
0.22244
0.221412
0.220102
0.218352
0.216189
0.226876
0.226872
0.226862
0.226846
0.226827
0.226804
0.226778
0.226746
0.22671
0.226668
0.22662
0.226565
0.226501
0.226427
0.226342
0.226242
0.226127
0.225991
0.22583
0.225639
0.22541
0.225133
0.224792
0.22437
0.223837
0.223158
0.222274
0.221129
0.219549
0.217563
0.226889
0.226885
0.226877
0.226864
0.226847
0.226827
0.226804
0.226776
0.226745
0.226708
0.226667
0.22662
0.226566
0.226505
0.226434
0.226353
0.22626
0.226152
0.226025
0.225877
0.2257
0.225486
0.225225
0.2249
0.224487
0.223953
0.223242
0.222299
0.220944
0.219202
0.226904
0.226901
0.226894
0.226883
0.226869
0.226852
0.226832
0.226808
0.226782
0.226751
0.226717
0.226679
0.226635
0.226586
0.226531
0.226469
0.226399
0.22632
0.226229
0.226124
0.226002
0.225857
0.225681
0.225462
0.225181
0.22481
0.224298
0.223596
0.222525
0.221106
0.226922
0.226919
0.226914
0.226904
0.226892
0.226878
0.226861
0.226842
0.226821
0.226796
0.226769
0.22674
0.226707
0.226671
0.226631
0.226588
0.226542
0.226491
0.226436
0.226377
0.22631
0.226236
0.226148
0.226041
0.2259
0.225707
0.225419
0.224995
0.224268
0.223258
0.226941
0.226939
0.226934
0.226927
0.226917
0.226906
0.226893
0.226878
0.226861
0.226843
0.226823
0.226802
0.226779
0.226756
0.226732
0.226708
0.226685
0.226663
0.226643
0.226627
0.226617
0.226612
0.226613
0.226619
0.226624
0.226618
0.226571
0.226457
0.226132
0.225616
0.226962
0.22696
0.226956
0.226951
0.226943
0.226934
0.226925
0.226914
0.226902
0.22689
0.226877
0.226864
0.226852
0.226841
0.226832
0.226826
0.226825
0.22683
0.226844
0.226871
0.226913
0.226976
0.227063
0.22718
0.227329
0.227512
0.227716
0.22793
0.228051
0.228104
0.226983
0.226982
0.226979
0.226975
0.22697
0.226964
0.226957
0.22695
0.226943
0.226936
0.22693
0.226926
0.226923
0.226924
0.226929
0.22694
0.226959
0.22699
0.227035
0.2271
0.227192
0.227316
0.227484
0.227704
0.227991
0.228355
0.228806
0.229351
0.229941
0.230608
0.227006
0.227005
0.227003
0.227
0.226997
0.226993
0.22699
0.226987
0.226984
0.226983
0.226983
0.226986
0.226992
0.227004
0.227021
0.227048
0.227085
0.227138
0.227211
0.227311
0.227445
0.227624
0.227861
0.228174
0.228583
0.229112
0.22979
0.230649
0.231696
0.232982
0.227029
0.227028
0.227027
0.227026
0.227024
0.227023
0.227022
0.227022
0.227024
0.227028
0.227034
0.227044
0.227058
0.227079
0.227108
0.227147
0.227201
0.227273
0.227369
0.227497
0.227666
0.227889
0.228184
0.228572
0.229081
0.229748
0.230618
0.231749
0.233204
0.235059
0.227052
0.227052
0.227052
0.227051
0.227051
0.227052
0.227054
0.227057
0.227063
0.227071
0.227082
0.227098
0.22712
0.227149
0.227187
0.227238
0.227305
0.227392
0.227506
0.227655
0.22785
0.228106
0.228442
0.228884
0.229466
0.230232
0.231245
0.232581
0.234354
0.236665
0.227076
0.227076
0.227076
0.227077
0.227078
0.227081
0.227085
0.227091
0.2271
0.227112
0.227128
0.227149
0.227177
0.227213
0.227259
0.227319
0.227395
0.227493
0.227619
0.227783
0.227994
0.22827
0.228629
0.229101
0.229722
0.230543
0.231635
0.233089
0.235055
0.237654
0.227099
0.227099
0.2271
0.227102
0.227104
0.227108
0.227114
0.227123
0.227135
0.22715
0.22717
0.227196
0.227229
0.22727
0.227323
0.227388
0.227471
0.227576
0.227709
0.227879
0.228097
0.228377
0.228742
0.229217
0.229841
0.230667
0.231769
0.233241
0.235249
0.237926
0.227122
0.227123
0.227124
0.227126
0.227129
0.227135
0.227143
0.227153
0.227167
0.227186
0.227209
0.227239
0.227275
0.227321
0.227377
0.227447
0.227533
0.227641
0.227775
0.227944
0.228158
0.22843
0.22878
0.229234
0.229826
0.230606
0.231645
0.233031
0.234925
0.237452
0.227145
0.227145
0.227147
0.227149
0.227153
0.22716
0.227169
0.227181
0.227198
0.227219
0.227245
0.227277
0.227316
0.227365
0.227423
0.227495
0.227582
0.227688
0.227818
0.22798
0.22818
0.228432
0.228751
0.229159
0.229685
0.230373
0.23128
0.232483
0.234118
0.236282
0.227168
0.227168
0.227169
0.227171
0.227176
0.227183
0.227193
0.227207
0.227225
0.227248
0.227276
0.227311
0.227352
0.227402
0.227461
0.227533
0.227618
0.227719
0.227842
0.227989
0.228169
0.228389
0.228662
0.229004
0.229437
0.229991
0.230711
0.23165
0.232904
0.234533
0.22719
0.22719
0.227191
0.227193
0.227197
0.227205
0.227216
0.227231
0.22725
0.227274
0.227304
0.22734
0.227382
0.227433
0.227492
0.227561
0.227642
0.227737
0.227847
0.227977
0.22813
0.22831
0.228526
0.228786
0.229104
0.229496
0.229987
0.230604
0.231394
0.232376
0.227212
0.227212
0.227211
0.227212
0.227217
0.227225
0.227236
0.227252
0.227272
0.227297
0.227328
0.227365
0.227408
0.227458
0.227516
0.227582
0.227658
0.227743
0.22784
0.227949
0.22807
0.228206
0.228358
0.228527
0.228716
0.228929
0.229167
0.22943
0.229717
0.23
0.227234
0.227233
0.227231
0.227231
0.227234
0.227242
0.227254
0.22727
0.227291
0.227317
0.227348
0.227385
0.227428
0.227478
0.227534
0.227596
0.227666
0.227741
0.227823
0.227909
0.227998
0.228087
0.228172
0.228247
0.228305
0.228333
0.228313
0.228219
0.228004
0.227599
0.227257
0.227255
0.22725
0.227247
0.22725
0.227258
0.22727
0.227286
0.227307
0.227334
0.227365
0.227403
0.227445
0.227494
0.227548
0.227606
0.227669
0.227735
0.227801
0.227865
0.227923
0.227966
0.227987
0.227971
0.227902
0.227754
0.22749
0.227059
0.226378
0.225348
0.227282
0.227277
0.227266
0.22726
0.227262
0.22727
0.227282
0.227298
0.227319
0.227346
0.227378
0.227415
0.227457
0.227505
0.227556
0.227611
0.227668
0.227725
0.227777
0.227822
0.22785
0.227853
0.227816
0.227719
0.227536
0.22723
0.226751
0.226025
0.224943
0.223393
0.227311
0.227299
0.227282
0.227273
0.227274
0.227282
0.227294
0.22731
0.227331
0.227358
0.227389
0.227426
0.227468
0.227514
0.227564
0.227616
0.227668
0.227716
0.227758
0.227786
0.227791
0.22776
0.227675
0.22751
0.227234
0.226801
0.226145
0.225182
0.223783
0.221793
0.227348
0.227313
0.227286
0.227277
0.227279
0.227287
0.227298
0.227314
0.227336
0.227363
0.227395
0.227432
0.227473
0.227519
0.227567
0.227617
0.227665
0.227708
0.227741
0.227758
0.227748
0.227694
0.227574
0.22736
0.227017
0.22649
0.22571
0.224575
0.222961
0.220722
0.227424
0.227337
0.227291
0.227283
0.227286
0.227294
0.227304
0.22732
0.227342
0.227369
0.227401
0.227438
0.227479
0.227525
0.227573
0.227621
0.227668
0.227708
0.227737
0.227748
0.227727
0.227659
0.22752
0.227281
0.2269
0.22632
0.225465
0.224229
0.222465
0.220012
0.210234
0.209092
0.208414
0.207991
0.207508
0.206909
0.206248
0.205553
0.204819
0.204034
0.203186
0.202267
0.201263
0.200154
0.198917
0.197521
0.195929
0.194094
0.191957
0.189441
0.186445
0.182833
0.178419
0.172949
0.166047
0.157217
0.14572
0.129337
0.113203
0.0665642
0.210873
0.210129
0.209548
0.209066
0.208518
0.207884
0.207218
0.206543
0.205844
0.205104
0.204312
0.203457
0.202524
0.201496
0.200351
0.199063
0.1976
0.195921
0.193976
0.191699
0.189003
0.185774
0.181854
0.177035
0.171002
0.163361
0.153404
0.140009
0.124513
0.0879542
0.210939
0.210368
0.209896
0.209423
0.208908
0.20836
0.207798
0.207222
0.206614
0.205961
0.205258
0.204495
0.203663
0.202746
0.201726
0.200583
0.19929
0.197812
0.196108
0.194124
0.191787
0.189006
0.185653
0.181559
0.176474
0.170086
0.161802
0.150949
0.137256
0.109421
0.211353
0.210969
0.210651
0.210244
0.20978
0.209302
0.208815
0.208308
0.207768
0.207193
0.206578
0.205915
0.205195
0.204406
0.203534
0.20256
0.201463
0.200218
0.19879
0.197137
0.195204
0.192918
0.190179
0.186859
0.182758
0.177644
0.171022
0.162484
0.151099
0.130657
0.211999
0.211741
0.211529
0.211174
0.210757
0.210349
0.209946
0.209527
0.209084
0.208614
0.208114
0.207578
0.206999
0.206366
0.20567
0.204898
0.204035
0.203061
0.201952
0.200677
0.199194
0.197451
0.195375
0.192869
0.189783
0.185949
0.18096
0.1746
0.165698
0.151418
0.212874
0.212736
0.212637
0.212357
0.212013
0.211693
0.21139
0.211075
0.210741
0.210388
0.210018
0.209625
0.209205
0.208751
0.208258
0.207718
0.207119
0.206451
0.205696
0.204835
0.20384
0.202676
0.201292
0.199621
0.197555
0.194974
0.191557
0.187225
0.180764
0.171496
0.214008
0.213992
0.214011
0.213818
0.213556
0.213333
0.213139
0.21294
0.21273
0.212514
0.212294
0.212068
0.211832
0.211584
0.211322
0.211042
0.210739
0.210407
0.210038
0.209622
0.209144
0.208582
0.207905
0.207071
0.206005
0.204625
0.202689
0.200198
0.196
0.19074
0.215437
0.215547
0.215693
0.215598
0.215432
0.215319
0.215248
0.215183
0.215115
0.215054
0.215005
0.214965
0.214936
0.214917
0.214909
0.214914
0.214931
0.214959
0.214999
0.215048
0.215099
0.215146
0.215171
0.215152
0.215039
0.214779
0.214193
0.213316
0.211121
0.20894
0.217193
0.217435
0.217712
0.217728
0.21767
0.21768
0.217747
0.217829
0.21792
0.218031
0.218169
0.218335
0.218531
0.21876
0.219026
0.219335
0.219688
0.220093
0.220553
0.221071
0.221652
0.222295
0.222996
0.223744
0.22451
0.225257
0.225856
0.226336
0.225831
0.225889
0.219299
0.219674
0.220086
0.220223
0.220287
0.220432
0.220648
0.220891
0.221154
0.221451
0.22179
0.222176
0.222611
0.223101
0.223653
0.224274
0.224971
0.225754
0.226631
0.22761
0.2287
0.229907
0.231234
0.232679
0.234221
0.235837
0.237423
0.238984
0.239827
0.241389
0.221756
0.222264
0.222807
0.223072
0.22327
0.22356
0.223934
0.224346
0.22479
0.225281
0.22583
0.226443
0.227122
0.227877
0.228716
0.229648
0.230684
0.231833
0.233108
0.234521
0.236082
0.237801
0.239685
0.241732
0.24393
0.246254
0.248616
0.250988
0.252833
0.25527
0.224532
0.225164
0.225831
0.226229
0.226568
0.227009
0.227543
0.228127
0.228754
0.229441
0.2302
0.231037
0.231958
0.232971
0.234086
0.235315
0.236669
0.238159
0.239799
0.241602
0.243578
0.24574
0.248093
0.250636
0.253355
0.256224
0.259159
0.262104
0.26464
0.267459
0.227548
0.228291
0.229066
0.229594
0.230078
0.230668
0.231359
0.23211
0.232915
0.23379
0.234749
0.235799
0.236946
0.238199
0.239569
0.241067
0.242706
0.244498
0.246454
0.248589
0.250912
0.253434
0.256157
0.25908
0.262183
0.265435
0.268755
0.272066
0.275031
0.277947
0.230669
0.231504
0.232364
0.233015
0.233638
0.23437
0.235207
0.236111
0.237078
0.238126
0.239266
0.240506
0.241854
0.243317
0.244908
0.246638
0.248517
0.250558
0.252772
0.255171
0.257763
0.260555
0.263546
0.266729
0.270081
0.273559
0.27708
0.280545
0.283665
0.286524
0.233703
0.234605
0.235525
0.236283
0.237034
0.237892
0.238854
0.239889
0.240997
0.242191
0.243484
0.244883
0.246396
0.248032
0.249801
0.251714
0.253781
0.256013
0.258419
0.26101
0.26379
0.266762
0.269922
0.273255
0.27673
0.280295
0.283856
0.287286
0.290322
0.292836
0.236416
0.237357
0.23831
0.239154
0.240012
0.240972
0.242033
0.243171
0.244388
0.245696
0.247107
0.248627
0.250265
0.252028
0.253927
0.25597
0.258168
0.26053
0.263063
0.265774
0.268666
0.271737
0.274977
0.278367
0.281867
0.285414
0.288906
0.292191
0.295011
0.297079
0.238557
0.239513
0.240474
0.241376
0.242313
0.243346
0.244473
0.245681
0.246972
0.248356
0.249844
0.251443
0.25316
0.255003
0.256981
0.259103
0.261377
0.263809
0.266407
0.269174
0.27211
0.27521
0.278461
0.281835
0.285289
0.288753
0.292117
0.295217
0.297805
0.299516
0.239906
0.240853
0.2418
0.242731
0.243712
0.244783
0.245943
0.247184
0.24851
0.24993
0.251454
0.253088
0.254839
0.256715
0.258724
0.260873
0.263169
0.265618
0.268226
0.270992
0.273916
0.276989
0.280193
0.283498
0.286855
0.290188
0.29338
0.296255
0.298561
0.299849
0.240312
0.241229
0.242147
0.243074
0.244062
0.245135
0.246291
0.247528
0.24885
0.250266
0.251784
0.25341
0.255151
0.257014
0.259007
0.261135
0.263406
0.265824
0.268392
0.27111
0.273973
0.276972
0.280084
0.283276
0.286493
0.289654
0.292632
0.295236
0.297209
0.298069
0.239727
0.240596
0.24147
0.242364
0.24332
0.244357
0.245473
0.246669
0.24795
0.249322
0.250793
0.25237
0.254059
0.255866
0.257799
0.259863
0.262064
0.264405
0.26689
0.269516
0.272276
0.275159
0.278141
0.281183
0.284229
0.287188
0.289928
0.292242
0.293882
0.294295
0.238217
0.23902
0.239839
0.24067
0.241557
0.242522
0.243566
0.244686
0.245887
0.247178
0.248564
0.250053
0.25165
0.253361
0.255194
0.257153
0.259243
0.261469
0.263829
0.266324
0.268943
0.271674
0.27449
0.277352
0.280195
0.282924
0.285397
0.287392
0.288672
0.288376
0.235955
0.236672
0.237419
0.238158
0.238942
0.239801
0.240739
0.241751
0.242839
0.244013
0.245278
0.246642
0.248109
0.249687
0.251381
0.253196
0.255137
0.257207
0.259405
0.261728
0.264168
0.266708
0.269319
0.271957
0.274555
0.277009
0.279176
0.280802
0.281728
0.280519
0.233176
0.233785
0.234437
0.235058
0.235707
0.236431
0.237233
0.238104
0.239047
0.24007
0.24118
0.242384
0.243687
0.245094
0.246612
0.248245
0.249996
0.251869
0.253863
0.255972
0.258188
0.260491
0.26285
0.265219
0.267525
0.269657
0.271467
0.272655
0.273193
0.271134
0.230143
0.230619
0.231151
0.231628
0.232118
0.23268
0.233317
0.23402
0.234788
0.23563
0.236554
0.237566
0.238671
0.239875
0.241181
0.242596
0.244122
0.24576
0.247509
0.249363
0.25131
0.253331
0.255391
0.257439
0.259397
0.261143
0.262527
0.263179
0.263213
0.260179
0.227111
0.227429
0.227812
0.228123
0.228434
0.228813
0.229263
0.229772
0.230341
0.230977
0.231689
0.232482
0.23336
0.23433
0.235394
0.236558
0.237823
0.23919
0.240657
0.242215
0.243851
0.245542
0.24725
0.248919
0.250465
0.251748
0.252617
0.252613
0.251977
0.247647
0.224301
0.224435
0.22464
0.224764
0.22488
0.225057
0.225299
0.225593
0.225941
0.226349
0.226827
0.227377
0.228005
0.228715
0.229511
0.230396
0.231371
0.232434
0.233583
0.234806
0.236089
0.237403
0.238708
0.239938
0.241
0.241734
0.241985
0.24119
0.239721
0.233674
0.221889
0.221816
0.221814
0.22174
0.221654
0.221616
0.221633
0.221695
0.221804
0.221966
0.22219
0.222478
0.222836
0.223265
0.223771
0.224354
0.225013
0.225747
0.226549
0.227405
0.228297
0.229191
0.230041
0.230771
0.231277
0.231373
0.230895
0.229158
0.226723
0.218505
0.220008
0.219667
0.2194
0.219115
0.218833
0.21858
0.218361
0.218178
0.218035
0.21794
0.217897
0.217908
0.217978
0.21811
0.218304
0.218564
0.218885
0.219265
0.219693
0.220153
0.220622
0.221061
0.221414
0.221594
0.221482
0.220861
0.219556
0.216734
0.213263
0.202328
0.21894
0.218247
0.217625
0.217091
0.216605
0.216145
0.215694
0.215251
0.214834
0.21446
0.214134
0.213857
0.21363
0.213455
0.213332
0.213261
0.213237
0.213253
0.213295
0.213343
0.213367
0.213321
0.213138
0.212717
0.21192
0.210494
0.208249
0.204152
0.199646
0.185284
0.218106
0.217113
0.216325
0.215649
0.214929
0.214166
0.21345
0.21276
0.212069
0.211402
0.210771
0.210177
0.209621
0.209107
0.208633
0.2082
0.2078
0.207424
0.207057
0.206673
0.206235
0.205689
0.204957
0.203919
0.202416
0.20015
0.196932
0.191326
0.186172
0.167558
0.149857
0.131743
0.112645
0.0932386
0.0740984
0.0555174
0.0377218
0.021004
0.00586922
-0.00744839
-0.0186823
-0.0274379
-0.0331096
-0.0356132
-0.0348721
-0.0302581
-0.0234315
-0.0178004
-0.017843
-0.023186
-0.0277021
-0.0296494
-0.0294453
-0.0277616
-0.0267048
-0.0266526
-0.0262031
-0.0245277
-0.022715
-0.0217216
0.173348
0.157889
0.140948
0.123844
0.106828
0.0898591
0.0733238
0.0576376
0.0429091
0.0292471
0.0170719
0.0066863
-0.000831756
-0.00573158
-0.00884005
-0.00969491
-0.00861086
-0.00786032
-0.0118663
-0.0204073
-0.0270617
-0.0284923
-0.0266367
-0.0249017
-0.0259072
-0.0277544
-0.0277829
-0.0257533
-0.0227233
-0.0213621
0.17881
0.163985
0.14824
0.132433
0.11602
0.0994649
0.0832952
0.0676138
0.0525145
0.0384377
0.025919
0.0153787
0.00722823
0.00147802
-0.00216983
-0.0039745
-0.00395244
-0.00413113
-0.00772376
-0.0137888
-0.0181862
-0.0198635
-0.0202056
-0.0215214
-0.0244882
-0.0263969
-0.0263962
-0.0243894
-0.0203812
-0.0175653
0.186603
0.173988
0.159998
0.145166
0.130005
0.114665
0.0991706
0.0837194
0.0687361
0.0546352
0.0418678
0.0308249
0.0218269
0.0149981
0.010171
0.00705692
0.00525524
0.00332254
-2.8297e-05
-0.00404385
-0.00719576
-0.00948194
-0.011396
-0.014014
-0.0168714
-0.019152
-0.0198076
-0.0167636
-0.0123153
-0.00950041
0.190943
0.179392
0.166367
0.15292
0.138937
0.124384
0.109421
0.0944714
0.0798411
0.0658906
0.0530335
0.0416719
0.0321482
0.0246432
0.0190742
0.0151473
0.0123851
0.00991365
0.00697255
0.00366854
0.000900413
-0.000970056
-0.0022615
-0.00396144
-0.00584115
-0.0071011
-0.00666286
-0.00431573
-0.00210914
-0.000831153
0.194245
0.183923
0.172187
0.159766
0.146717
0.132935
0.11861
0.104096
0.0897264
0.0758622
0.0629156
0.0513029
0.0413743
0.0333297
0.0271391
0.0225452
0.0191313
0.0162873
0.0134392
0.0106032
0.00839689
0.00702779
0.00615742
0.00545601
0.00513334
0.00526792
0.00602109
0.00758401
0.0078707
0.00700113
0.196583
0.187248
0.176492
0.165019
0.152834
0.139844
0.126194
0.112191
0.0981785
0.0845167
0.0716098
0.059874
0.0496687
0.0412183
0.0345436
0.0294499
0.025584
0.0224691
0.0196961
0.0172763
0.0155619
0.014657
0.0143655
0.0144995
0.0149981
0.0159757
0.0174349
0.0183643
0.017892
0.0173151
0.198322
0.18984
0.179978
0.169355
0.157953
0.145674
0.132635
0.119118
0.105458
0.0920116
0.0791776
0.0673717
0.0569648
0.0482072
0.0411649
0.0357016
0.0315255
0.0282632
0.0256156
0.0235598
0.0222853
0.0218549
0.0221301
0.0229623
0.0242891
0.0260836
0.0280831
0.0299436
0.0310894
0.0309154
0.199653
0.191894
0.182802
0.172925
0.162224
0.150594
0.138132
0.125093
0.111792
0.0985781
0.0858471
0.0740172
0.0634714
0.0544848
0.0471636
0.0414249
0.0370381
0.0337085
0.0312021
0.0294742
0.0286265
0.0286858
0.0295431
0.0310754
0.0332086
0.0359003
0.0389389
0.0421595
0.0451159
0.0477652
0.200717
0.193571
0.185139
0.175917
0.165843
0.154802
0.142873
0.130288
0.117338
0.104365
0.0917587
0.0799402
0.0693037
0.0601476
0.0526154
0.0466739
0.0421489
0.0388064
0.0364571
0.0350481
0.0346279
0.0351974
0.0366652
0.0389244
0.0419156
0.0455956
0.0498814
0.0547656
0.0602943
0.065848
0.20161
0.194981
0.187114
0.178465
0.168951
0.158442
0.147002
0.134839
0.122228
0.109493
0.0970222
0.0852374
0.074544
0.0652625
0.0575713
0.0514829
0.0468739
0.0435598
0.0413865
0.0402975
0.0403076
0.0414008
0.0434989
0.0465189
0.0504209
0.0551801
0.0608299
0.0673964
0.0752448
0.083439
0.202398
0.196207
0.18882
0.180675
0.171657
0.161628
0.150631
0.138859
0.126566
0.114063
0.101731
0.0899936
0.0792672
0.0698933
0.0620829
0.0558906
0.0512389
0.0479854
0.0460045
0.0452392
0.0456827
0.0473096
0.0500543
0.0538536
0.0586882
0.0645706
0.0715772
0.0797756
0.0895671
0.100176
0.203129
0.197308
0.190328
0.182625
0.174049
0.164448
0.153851
0.142436
0.130439
0.118157
0.105962
0.0942792
0.0835358
0.0740934
0.0661936
0.05993
0.0552667
0.0520987
0.0503238
0.0498867
0.0507676
0.0529359
0.0563352
0.0609177
0.0666768
0.0736445
0.0819066
0.0915619
0.102854
0.115136
0.203836
0.198328
0.191693
0.184357
0.176187
0.166971
0.156736
0.145646
0.133921
0.121844
0.109779
0.0981531
0.0874019
0.077907
0.0699395
0.063629
0.058978
0.0559142
0.0543565
0.054252
0.0555736
0.0582866
0.0623389
0.0676902
0.0743366
0.0823087
0.0916702
0.102468
0.114728
0.127749
0.204541
0.199301
0.192959
0.185955
0.178126
0.169254
0.159344
0.148548
0.137071
0.125182
0.113238
0.101665
0.0909097
0.0813724
0.0733521
0.0670126
0.0623914
0.0594463
0.0581145
0.0583463
0.0601097
0.0633653
0.0680595
0.0741508
0.0816244
0.0904876
0.100745
0.112341
0.1251
0.138231
0.205259
0.200249
0.194156
0.187439
0.179914
0.171346
0.161727
0.151194
0.13994
0.12822
0.116383
0.104857
0.0940973
0.0845224
0.0764586
0.0701025
0.065524
0.0627082
0.0616088
0.0621793
0.064384
0.0681752
0.0734924
0.0802826
0.0885066
0.0981277
0.109068
0.121162
0.134067
0.146966
0.206002
0.201188
0.195308
0.188841
0.181584
0.173286
0.163924
0.153626
0.14257
0.130999
0.119256
0.107767
0.0969972
0.0873851
0.0792828
0.0729179
0.068391
0.0657118
0.06485
0.0657601
0.0684032
0.0727193
0.0786343
0.0860741
0.0949624
0.105205
0.116633
0.128982
0.14179
0.154277
0.206774
0.202132
0.196433
0.190184
0.183165
0.175105
0.165971
0.15588
0.144997
0.133556
0.121889
0.110424
0.0996375
0.0899848
0.081845
0.0754755
0.0710058
0.0684679
0.0678471
0.0690974
0.0721741
0.0770015
0.0834849
0.0915202
0.100985
0.111718
0.123466
0.135887
0.148444
0.160428
0.207579
0.203089
0.197545
0.191488
0.184679
0.17683
0.167897
0.157986
0.147254
0.13592
0.124312
0.112858
0.102043
0.0923426
0.0841627
0.0777897
0.0733803
0.0709854
0.0706078
0.0721985
0.0757031
0.0810263
0.0880467
0.0966226
0.106578
0.117687
0.129618
0.141981
0.154196
0.165648
0.208418
0.204065
0.198656
0.192768
0.186145
0.178482
0.169726
0.159973
0.149368
0.13812
0.126551
0.11509
0.104233
0.0944766
0.0862512
0.0798731
0.075525
0.0732864
0.0731399
0.0750706
0.0789968
0.0847998
0.0923254
0.101389
0.111758
0.123144
0.13515
0.147369
0.159193
0.170118
0.20929
0.205061
0.199773
0.194035
0.187578
0.18008
0.171479
0.161862
0.151362
0.140179
0.128629
0.117143
0.106229
0.0964024
0.0881233
0.0817363
0.0774477
0.0753539
0.0754514
0.0777207
0.0820626
0.0883296
0.09633
0.105832
0.116546
0.128127
0.140131
0.152159
0.163569
0.17395
0.210191
0.20608
0.200903
0.1953
0.188991
0.18164
0.173175
0.163674
0.153257
0.142118
0.130565
0.119034
0.108044
0.0981339
0.0897905
0.0833887
0.0791556
0.0772066
0.0775486
0.0801547
0.0849068
0.0916235
0.100071
0.109968
0.120969
0.132682
0.144631
0.156458
0.167443
0.177337
0.211116
0.20712
0.202048
0.19657
0.190394
0.183174
0.17483
0.165426
0.155073
0.143956
0.132379
0.120781
0.109695
0.0996822
0.0912619
0.0848381
0.0806548
0.0788507
0.0794367
0.08238
0.0875383
0.0946922
0.103563
0.113817
0.125059
0.136854
0.148723
0.160318
0.170806
0.18041
0.212055
0.208179
0.203213
0.197849
0.191792
0.184692
0.176457
0.167133
0.156824
0.14571
0.134087
0.122399
0.111195
0.10106
0.0925474
0.0860934
0.081953
0.0802935
0.0811229
0.0844058
0.0899685
0.0975501
0.106824
0.117405
0.128848
0.140688
0.152456
0.163817
0.173969
0.183347
0.212994
0.209249
0.204399
0.199142
0.193189
0.186203
0.178068
0.168811
0.158528
0.147394
0.1357
0.123896
0.112547
0.102266
0.0936448
0.08715
0.0830368
0.0815119
0.0825876
0.0862162
0.0921866
0.100192
0.109857
0.120748
0.132376
0.144246
0.155872
0.166942
0.176886
0.186081
0.213934
0.210324
0.205606
0.200457
0.194582
0.187708
0.179669
0.170477
0.16021
0.149043
0.13726
0.125317
0.113799
0.103349
0.094605
0.0880701
0.0840656
0.0826006
0.0839162
0.0878854
0.0942569
0.102672
0.112704
0.123869
0.135652
0.147576
0.159201
0.170137
0.179789
0.188746
0.214862
0.211395
0.206828
0.201807
0.195999
0.189203
0.181229
0.172073
0.161801
0.150566
0.138668
0.126558
0.114836
0.104176
0.0952696
0.0886399
0.0845974
0.0833539
0.0849482
0.0892918
0.0960944
0.104951
0.115375
0.126811
0.138691
0.150514
0.161827
0.172721
0.182296
0.191121
0.215757
0.212448
0.208037
0.203156
0.197573
0.19089
0.183009
0.173895
0.163613
0.152301
0.140271
0.127986
0.116059
0.10519
0.0961563
0.0894918
0.0853349
0.0841022
0.0859252
0.0906163
0.0978274
0.107114
0.117962
0.129793
0.14203
0.154177
0.165635
0.176
0.185327
0.193649
0.216597
0.213511
0.209194
0.204229
0.198584
0.191977
0.184185
0.175099
0.164756
0.153327
0.141119
0.128619
0.116467
0.105377
0.0962282
0.0895255
0.0855287
0.0844842
0.0866029
0.0916694
0.0992552
0.108847
0.119857
0.131675
0.143787
0.155657
0.167053
0.177681
0.187284
0.195365
0.217399
0.214867
0.211065
0.206343
0.200874
0.194428
0.186773
0.17777
0.167422
0.155869
0.143418
0.130564
0.117984
0.106454
0.0968574
0.0898345
0.0857068
0.0847975
0.0872605
0.0928707
0.101164
0.111556
0.123355
0.135888
0.148499
0.160638
0.172045
0.182366
0.191024
0.19773
0.13584
0.12046
0.121536
0.141369
0.15491
0.15596
0.155198
0.155326
0.155963
0.157406
0.159684
0.162585
0.165883
0.169413
0.173055
0.176708
0.180292
0.18375
0.187041
0.190136
0.193032
0.195695
0.198207
0.200456
0.202696
0.204658
0.206772
0.208589
0.211041
0.210092
0.141566
0.118269
0.123618
0.145839
0.161044
0.161366
0.158326
0.156707
0.155954
0.156218
0.157617
0.159922
0.16283
0.16612
0.169641
0.173276
0.176927
0.180514
0.183985
0.187292
0.190418
0.193313
0.196012
0.19843
0.200676
0.202614
0.204478
0.205881
0.207609
0.208329
0.146465
0.12317
0.131194
0.151133
0.168959
0.169173
0.163128
0.159029
0.156543
0.15533
0.155568
0.15703
0.159371
0.1623
0.165622
0.16919
0.17288
0.176596
0.180267
0.183834
0.187259
0.190493
0.193525
0.196312
0.198871
0.201155
0.203259
0.205067
0.206879
0.208546
0.14249
0.128772
0.136088
0.160173
0.180033
0.180479
0.171002
0.163405
0.158674
0.155503
0.154407
0.154931
0.156637
0.159164
0.162274
0.165782
0.16952
0.173364
0.177228
0.181043
0.184759
0.188331
0.191729
0.194923
0.197902
0.200641
0.203156
0.205418
0.207449
0.209276
0.127921
0.119437
0.134772
0.16977
0.191876
0.19384
0.181143
0.169695
0.162058
0.156432
0.153429
0.152701
0.153626
0.155602
0.158353
0.16169
0.165412
0.169346
0.173374
0.177412
0.181398
0.185282
0.189023
0.19259
0.195957
0.199104
0.202014
0.20468
0.207075
0.209254
0.11471
0.102294
0.120426
0.16574
0.200628
0.207696
0.192925
0.17611
0.165864
0.158852
0.152717
0.149785
0.149521
0.150855
0.153193
0.156265
0.159885
0.163864
0.168041
0.172306
0.176577
0.180794
0.18491
0.188884
0.192687
0.196295
0.199686
0.202855
0.205763
0.208467
0.111887
0.0972505
0.105075
0.147077
0.193429
0.210921
0.202867
0.183278
0.168097
0.159018
0.152226
0.146776
0.144293
0.144492
0.146422
0.149281
0.1528
0.156812
0.161148
0.165664
0.170249
0.174831
0.179356
0.183781
0.18807
0.192196
0.196134
0.199872
0.203363
0.20666
0.117848
0.104722
0.101566
0.127457
0.165987
0.193196
0.200627
0.188676
0.169907
0.155601
0.147124
0.141887
0.138623
0.136691
0.137701
0.140208
0.143686
0.147726
0.152211
0.157
0.161945
0.166947
0.17193
0.176844
0.181651
0.186325
0.190838
0.195181
0.199304
0.203259
0.124525
0.115957
0.105528
0.114687
0.139466
0.161531
0.173174
0.175
0.16551
0.150639
0.137912
0.130837
0.127418
0.125838
0.125544
0.127341
0.131141
0.135522
0.14039
0.145501
0.150825
0.156301
0.16182
0.167302
0.172702
0.177987
0.183132
0.188127
0.19292
0.197563
0.128759
0.126951
0.112377
0.108208
0.118339
0.132032
0.14181
0.145663
0.143936
0.136457
0.125203
0.11497
0.108793
0.107081
0.107861
0.109753
0.112365
0.117356
0.123756
0.129905
0.136002
0.142132
0.148303
0.154454
0.160526
0.166491
0.172324
0.178023
0.183531
0.188905
0.124998
0.129623
0.113016
0.102524
0.102555
0.107168
0.111808
0.114226
0.113594
0.110077
0.103734
0.0952269
0.0870412
0.0817215
0.0808778
0.083905
0.0880252
0.0921359
0.0977404
0.105762
0.114184
0.122031
0.129547
0.136867
0.14398
0.150874
0.157558
0.164056
0.170333
0.176462
0.108475
0.115545
0.104346
0.0938116
0.0882176
0.085582
0.0841655
0.0826617
0.0801924
0.0764728
0.0717953
0.0662592
0.0599187
0.0537059
0.0495608
0.0490837
0.0527027
0.0590117
0.0660832
0.0729211
0.0814366
0.0919578
0.101975
0.111471
0.120465
0.128996
0.137098
0.144801
0.152115
0.159159
0.0851245
0.0961533
0.0901229
0.0815631
0.0733058
0.0658138
0.0590338
0.052612
0.0461989
0.039703
0.0333182
0.0274993
0.0224136
0.0178786
0.0139479
0.0115562
0.0118571
0.0154179
0.0225823
0.0321472
0.0423739
0.0520861
0.0631692
0.0757207
0.087318
0.0982758
0.108607
0.118214
0.127155
0.135578
0.0658991
0.0762173
0.0736213
0.066961
0.0576321
0.0472398
0.0364079
0.0253806
0.0143817
0.0036918
-0.00630793
-0.0151868
-0.0224386
-0.027668
-0.0310694
-0.0329483
-0.0332406
-0.0313645
-0.0266499
-0.0191573
-0.00894984
0.00359808
0.0172761
0.0298712
0.042834
0.0570552
0.0703531
0.0824642
0.0937651
0.104343
0.0536441
0.0614665
0.0594668
0.0532876
0.0433449
0.0309556
0.0171645
0.00238474
-0.0128707
-0.0279471
-0.0422211
-0.0551233
-0.0661503
-0.0748553
-0.080731
-0.0837796
-0.0843786
-0.0828647
-0.0792007
-0.0731523
-0.0644087
-0.0531675
-0.0398696
-0.0246401
-0.00828456
0.0079476
0.023336
0.0376957
0.0518423
0.0653776
0.0488568
0.052302
0.0496719
0.0428146
0.032285
0.0187175
0.00284896
-0.0144919
-0.0330066
-0.0518496
-0.07008
-0.0869114
-0.101743
-0.114118
-0.123729
-0.130202
-0.13328
-0.133275
-0.130675
-0.125714
-0.118324
-0.108405
-0.095925
-0.0810728
-0.0645792
-0.0471552
-0.0292133
-0.0112826
0.00588107
0.0217654
0.0485203
0.0483138
0.043652
0.0357311
0.0245333
0.010473
-0.00625017
-0.0248574
-0.0447576
-0.0655848
-0.0864069
-0.106259
-0.124279
-0.139765
-0.152281
-0.161605
-0.167643
-0.170251
-0.169961
-0.166825
-0.16113
-0.152885
-0.141976
-0.128421
-0.112503
-0.0947599
-0.0758662
-0.0566246
-0.0376584
-0.019764