/*--------------------------------*- C++ -*----------------------------------*\
  =========                 |
  \\      /  F ield         | OpenFOAM: The Open Source CFD Toolbox
   \\    /   O peration     | Website:  https://openfoam.org
    \\  /    A nd           | Version:  11
     \\/     M anipulation  |
\*---------------------------------------------------------------------------*/
FoamFile
{
    format      ascii;
    class       volScalarField;
    location    "10";
    object      p;
}
// * * * * * * * * * * * * * * * * * * * * * * * * * * * * * * * * * * * * * //

dimensions      [0 2 -2 0 0 0 0];

internalField   nonuniform List<scalar> 
12600
(
0.780014
0.779877
0.779801
0.779762
0.779716
0.779653
0.779576
0.779484
0.779375
0.779244
0.779085
0.778893
0.77866
0.778378
0.778034
0.777613
0.7771
0.776471
0.775698
0.774751
0.773593
0.772172
0.770423
0.768263
0.765592
0.762282
0.758169
0.753041
0.746668
0.738648
0.779943
0.77987
0.779805
0.779763
0.779717
0.779655
0.779579
0.779488
0.779381
0.779252
0.779095
0.778905
0.778675
0.778395
0.778055
0.777641
0.777135
0.776515
0.775751
0.774814
0.773671
0.772268
0.770539
0.768406
0.765766
0.762492
0.75842
0.753345
0.746998
0.739059
0.779913
0.779875
0.779818
0.77977
0.779723
0.779664
0.779589
0.779501
0.779395
0.779268
0.779114
0.778928
0.778703
0.778429
0.778097
0.777691
0.777196
0.776589
0.775843
0.77493
0.773813
0.772441
0.770751
0.768664
0.76608
0.762873
0.758879
0.753901
0.74763
0.739834
0.779894
0.779869
0.779822
0.779774
0.779727
0.779671
0.7796
0.779515
0.779412
0.779289
0.77914
0.77896
0.778742
0.778478
0.778156
0.777764
0.777285
0.776698
0.775979
0.775098
0.774019
0.772693
0.771059
0.769041
0.76654
0.763434
0.759558
0.754722
0.748598
0.740986
0.779885
0.779867
0.779829
0.779785
0.779739
0.779684
0.779617
0.779535
0.779436
0.779318
0.779176
0.779004
0.778795
0.778542
0.778235
0.77786
0.777402
0.776842
0.776157
0.775317
0.774287
0.773021
0.77146
0.769532
0.76714
0.764166
0.760449
0.7558
0.749884
0.742526
0.779881
0.779868
0.779836
0.779796
0.779751
0.779699
0.779636
0.779558
0.779465
0.779353
0.779218
0.779056
0.778859
0.77862
0.778329
0.777976
0.777545
0.777018
0.776372
0.775582
0.774612
0.773419
0.771949
0.770131
0.767874
0.765064
0.761543
0.757129
0.751483
0.744446
0.779883
0.779871
0.779845
0.779809
0.779767
0.779718
0.779659
0.779586
0.779499
0.779394
0.779269
0.779117
0.778934
0.778711
0.778442
0.778113
0.777713
0.777224
0.776625
0.775892
0.774993
0.773887
0.772522
0.770833
0.768735
0.766118
0.762831
0.7587
0.753383
0.746736
0.779888
0.779878
0.779856
0.779824
0.779785
0.77974
0.779685
0.779618
0.779537
0.779441
0.779326
0.779186
0.779018
0.778815
0.778568
0.778268
0.777903
0.777457
0.776912
0.776244
0.775424
0.774416
0.773171
0.77163
0.769713
0.767318
0.764301
0.760497
0.755571
0.749385
0.779896
0.779888
0.779869
0.77984
0.779805
0.779764
0.779713
0.779653
0.77958
0.779493
0.779389
0.779263
0.779112
0.77893
0.778709
0.778441
0.778114
0.777716
0.777229
0.776633
0.775901
0.775001
0.77389
0.772513
0.770797
0.76865
0.765938
0.762505
0.758028
0.752377
0.779907
0.7799
0.779884
0.779859
0.779827
0.77979
0.779745
0.779691
0.779626
0.779549
0.779457
0.779347
0.779215
0.779055
0.778862
0.778628
0.778343
0.777996
0.777573
0.777055
0.776419
0.775637
0.774671
0.773472
0.771976
0.770101
0.767723
0.764702
0.760732
0.755689
0.77992
0.779915
0.779901
0.779879
0.779851
0.779818
0.779779
0.779732
0.779676
0.77961
0.779531
0.779437
0.779324
0.779188
0.779025
0.778827
0.778588
0.778296
0.777941
0.777506
0.776973
0.776316
0.775504
0.774496
0.773237
0.771653
0.769637
0.767064
0.763653
0.759289
0.779936
0.779931
0.779919
0.7799
0.779877
0.779848
0.779815
0.779775
0.779728
0.779673
0.779608
0.779531
0.779439
0.779329
0.779197
0.779038
0.778846
0.778612
0.778328
0.77798
0.777554
0.77703
0.776381
0.775574
0.774563
0.773288
0.771657
0.769562
0.766758
0.763135
0.779953
0.779949
0.779939
0.779923
0.779903
0.77988
0.779852
0.77982
0.779783
0.779739
0.779689
0.779629
0.779559
0.779475
0.779376
0.779257
0.779113
0.77894
0.77873
0.778473
0.778158
0.777771
0.777291
0.776693
0.77594
0.774986
0.773757
0.772164
0.770004
0.767177
0.779971
0.779968
0.77996
0.779947
0.779931
0.779912
0.779891
0.779867
0.779839
0.779807
0.779771
0.77973
0.779682
0.779626
0.77956
0.779482
0.779388
0.779277
0.779142
0.778978
0.778778
0.778531
0.778224
0.777839
0.777351
0.776726
0.77591
0.774835
0.773346
0.771352
0.779991
0.779988
0.779982
0.779972
0.77996
0.779946
0.779931
0.779914
0.779896
0.779877
0.779855
0.779832
0.779807
0.779778
0.779746
0.77971
0.779668
0.779619
0.779561
0.779491
0.779406
0.779301
0.779168
0.778999
0.778778
0.778486
0.778087
0.777538
0.776731
0.775594
0.780011
0.780009
0.780004
0.779997
0.779989
0.77998
0.779971
0.779962
0.779954
0.779946
0.77994
0.779935
0.779932
0.779932
0.779934
0.779939
0.779948
0.779962
0.779981
0.780005
0.780036
0.780072
0.780114
0.78016
0.780206
0.780244
0.78026
0.780233
0.780107
0.779828
0.780032
0.780031
0.780028
0.780023
0.780018
0.780013
0.780011
0.78001
0.780011
0.780016
0.780024
0.780038
0.780057
0.780084
0.78012
0.780167
0.780227
0.780303
0.780398
0.780515
0.78066
0.780837
0.781051
0.781309
0.781616
0.781978
0.7824
0.782882
0.783418
0.783977
0.780054
0.780053
0.780051
0.780048
0.780047
0.780047
0.78005
0.780057
0.780067
0.780084
0.780107
0.780139
0.78018
0.780234
0.780303
0.780391
0.780501
0.780637
0.780807
0.781016
0.781272
0.781586
0.781968
0.782431
0.782992
0.783667
0.784478
0.785448
0.786613
0.787967
0.780076
0.780076
0.780075
0.780074
0.780075
0.78008
0.780089
0.780102
0.780122
0.78015
0.780188
0.780237
0.7803
0.78038
0.780481
0.780608
0.780766
0.780962
0.781204
0.781501
0.781866
0.782312
0.782855
0.783516
0.784318
0.785291
0.78647
0.787896
0.789644
0.79173
0.780098
0.780098
0.780098
0.780099
0.780103
0.780111
0.780126
0.780147
0.780175
0.780214
0.780265
0.780331
0.780415
0.78052
0.780653
0.780817
0.781022
0.781274
0.781585
0.781967
0.782435
0.783006
0.783703
0.784551
0.785581
0.786832
0.788353
0.790197
0.79247
0.795207
0.780121
0.78012
0.780121
0.780123
0.780129
0.780142
0.780161
0.780189
0.780226
0.780275
0.780339
0.78042
0.780524
0.780653
0.780815
0.781015
0.781264
0.78157
0.781946
0.782407
0.782972
0.783662
0.784503
0.785525
0.786767
0.788275
0.790106
0.792326
0.795058
0.798354
0.780143
0.780143
0.780143
0.780146
0.780154
0.78017
0.780194
0.780228
0.780273
0.780332
0.780408
0.780504
0.780626
0.780777
0.780966
0.781201
0.78149
0.781846
0.782283
0.782818
0.783473
0.784273
0.785246
0.786429
0.787865
0.789605
0.791714
0.794264
0.797387
0.801144
0.780165
0.780165
0.780164
0.780167
0.780177
0.780197
0.780225
0.780264
0.780316
0.780384
0.780471
0.780581
0.780719
0.780892
0.781106
0.781371
0.781697
0.782099
0.782592
0.783195
0.783933
0.784832
0.785927
0.787255
0.788865
0.790811
0.793163
0.795997
0.799443
0.803563
0.780188
0.780186
0.780184
0.780186
0.780199
0.780221
0.780253
0.780297
0.780355
0.780431
0.780528
0.780651
0.780804
0.780995
0.781232
0.781524
0.781885
0.782328
0.782871
0.783535
0.784346
0.785335
0.786537
0.787995
0.789758
0.791885
0.794446
0.797518
0.801222
0.805616
0.780211
0.780208
0.780202
0.780204
0.780217
0.780242
0.780278
0.780326
0.78039
0.780473
0.780578
0.780712
0.780878
0.781086
0.781342
0.781659
0.782049
0.782528
0.783115
0.783833
0.784709
0.785776
0.787073
0.788643
0.790539
0.792819
0.795556
0.798823
0.80273
0.80732
0.780236
0.780229
0.780218
0.780218
0.780234
0.780262
0.7803
0.780351
0.78042
0.780509
0.780622
0.780765
0.780943
0.781164
0.781438
0.781775
0.78219
0.7827
0.783325
0.784088
0.785019
0.786153
0.787529
0.789194
0.791201
0.793609
0.796489
0.799913
0.803976
0.808703
0.780264
0.78025
0.780231
0.780229
0.780247
0.780276
0.780316
0.780371
0.780443
0.780537
0.780657
0.780807
0.780994
0.781227
0.781514
0.781869
0.782305
0.78284
0.783495
0.784295
0.785271
0.786459
0.7879
0.789643
0.79174
0.794249
0.797243
0.800788
0.804973
0.8098
0.780295
0.78027
0.780242
0.78024
0.780259
0.780289
0.780331
0.780388
0.780463
0.780561
0.780685
0.780841
0.781035
0.781277
0.781575
0.781942
0.782394
0.782948
0.783626
0.784455
0.785465
0.786694
0.788186
0.789989
0.792156
0.794741
0.797819
0.801453
0.805735
0.810648
0.780335
0.780275
0.780241
0.780245
0.780266
0.780296
0.780339
0.780397
0.780475
0.780576
0.780703
0.780863
0.781062
0.78131
0.781615
0.781992
0.782454
0.783022
0.783716
0.784564
0.785597
0.786854
0.78838
0.790228
0.792445
0.795083
0.798219
0.801911
0.806257
0.811241
0.780412
0.780286
0.780241
0.780249
0.780271
0.780302
0.780344
0.780403
0.780482
0.780585
0.780714
0.780876
0.781078
0.781329
0.781638
0.78202
0.782489
0.783063
0.783767
0.784626
0.785673
0.786947
0.788493
0.790361
0.792601
0.795269
0.798434
0.802162
0.806512
0.811468
0.731506
0.728699
0.726362
0.724337
0.722204
0.719863
0.717383
0.71482
0.712177
0.709443
0.706608
0.703656
0.700565
0.697302
0.693828
0.69009
0.686025
0.681552
0.676571
0.670951
0.664524
0.657069
0.648295
0.637797
0.625068
0.609196
0.589793
0.561721
0.538564
0.466829
0.732875
0.730461
0.728305
0.726321
0.724243
0.722023
0.719735
0.717413
0.71504
0.712594
0.710058
0.707417
0.704648
0.70172
0.698597
0.695234
0.691576
0.687552
0.683072
0.678023
0.672258
0.665583
0.657742
0.648393
0.637081
0.623054
0.605874
0.581938
0.559509
0.499769
0.733403
0.731425
0.729633
0.727829
0.725938
0.723975
0.721976
0.719939
0.717846
0.715681
0.713434
0.711092
0.708636
0.70604
0.703272
0.700295
0.69706
0.693505
0.689553
0.685105
0.680035
0.674176
0.66731
0.659147
0.649289
0.637141
0.622221
0.601955
0.581442
0.532291
0.734613
0.733052
0.731614
0.730011
0.728299
0.72656
0.724804
0.723014
0.721175
0.719278
0.717316
0.715275
0.713138
0.710882
0.70848
0.7059
0.703098
0.700024
0.696612
0.692779
0.688416
0.683386
0.677501
0.670523
0.662108
0.651797
0.639075
0.622151
0.60405
0.564219
0.736285
0.735026
0.733861
0.732451
0.730932
0.729424
0.727923
0.726393
0.72482
0.723201
0.721532
0.719798
0.717986
0.716076
0.714048
0.711873
0.709518
0.706939
0.704083
0.700879
0.69724
0.69305
0.688156
0.682362
0.675378
0.666854
0.656272
0.642457
0.626973
0.595352
0.738387
0.737406
0.736508
0.735312
0.734005
0.732732
0.731481
0.730206
0.728895
0.727552
0.726173
0.724747
0.723263
0.721705
0.720057
0.718296
0.716396
0.714321
0.712028
0.709461
0.70655
0.703201
0.69929
0.694659
0.689071
0.68226
0.673734
0.66279
0.649942
0.625485
0.740917
0.740197
0.739554
0.738571
0.737474
0.736431
0.735425
0.734405
0.733359
0.732293
0.731208
0.730095
0.728943
0.727742
0.72648
0.725139
0.723698
0.722131
0.720406
0.718477
0.71629
0.713773
0.710826
0.707327
0.703082
0.697895
0.691319
0.682994
0.672697
0.654434
0.743873
0.743401
0.743002
0.742232
0.741346
0.740534
0.739773
0.739007
0.738226
0.737439
0.736649
0.735848
0.73503
0.734187
0.733312
0.732391
0.731411
0.730352
0.729189
0.727891
0.726416
0.724709
0.722694
0.720278
0.717307
0.713637
0.708877
0.702902
0.695004
0.682003
0.747247
0.74701
0.746842
0.746282
0.745609
0.745025
0.744507
0.743993
0.743475
0.742965
0.742468
0.741979
0.741494
0.741009
0.740518
0.740015
0.739489
0.73893
0.73832
0.737636
0.73685
0.735921
0.734794
0.733398
0.731614
0.729341
0.72624
0.722337
0.71664
0.708023
0.751019
0.751004
0.751054
0.750701
0.75024
0.749882
0.749601
0.749336
0.749078
0.748842
0.748635
0.748455
0.748298
0.748163
0.74805
0.747956
0.747875
0.7478
0.747723
0.747629
0.747499
0.747305
0.747008
0.746557
0.74586
0.744847
0.743232
0.74112
0.737398
0.732342
0.755161
0.755351
0.755604
0.755454
0.755203
0.755065
0.755017
0.754995
0.754991
0.755023
0.755099
0.755219
0.755381
0.755588
0.755841
0.75614
0.756485
0.756874
0.757302
0.757764
0.758247
0.758734
0.759199
0.759605
0.759884
0.759984
0.759668
0.759073
0.75708
0.754822
0.759627
0.760006
0.760443
0.76049
0.760445
0.760522
0.760698
0.76091
0.761152
0.761443
0.761791
0.762199
0.762667
0.7632
0.7638
0.764473
0.765219
0.766042
0.766942
0.767916
0.768961
0.770067
0.771217
0.772385
0.773518
0.774581
0.775371
0.776033
0.775508
0.775348
0.764358
0.764907
0.76551
0.765744
0.765899
0.766182
0.766571
0.767006
0.767482
0.768018
0.768624
0.769304
0.77006
0.770898
0.771823
0.772842
0.77396
0.775181
0.776509
0.777948
0.779497
0.781151
0.782901
0.784729
0.786595
0.788468
0.790179
0.791861
0.792542
0.793875
0.769279
0.769977
0.770726
0.771136
0.771483
0.77196
0.772547
0.773191
0.773885
0.774649
0.775495
0.776427
0.777448
0.778566
0.779788
0.781122
0.782574
0.784152
0.785862
0.787709
0.789698
0.791826
0.794089
0.796473
0.798947
0.801483
0.803939
0.806429
0.80807
0.810451
0.774301
0.775128
0.776
0.776573
0.7771
0.777757
0.778527
0.77936
0.780254
0.781227
0.78229
0.78345
0.78471
0.786078
0.787564
0.789176
0.790922
0.792811
0.794851
0.797048
0.799409
0.801934
0.804619
0.807456
0.810416
0.813471
0.816504
0.819592
0.821951
0.825107
0.779325
0.780259
0.781233
0.781954
0.782647
0.783466
0.784399
0.785403
0.786475
0.787633
0.788888
0.790248
0.791716
0.793303
0.795017
0.796868
0.798864
0.801015
0.80333
0.805816
0.80848
0.811324
0.814344
0.81753
0.820858
0.824294
0.82774
0.831223
0.834083
0.837725
0.784245
0.785267
0.786323
0.787174
0.788015
0.788979
0.790053
0.791205
0.792431
0.793748
0.795169
0.796698
0.798344
0.800114
0.802017
0.804065
0.806266
0.808629
0.811165
0.813879
0.816778
0.819864
0.823133
0.826573
0.830158
0.833848
0.837554
0.841252
0.844418
0.848188
0.788961
0.790051
0.791169
0.792132
0.793103
0.794189
0.795384
0.796658
0.798013
0.799463
0.801019
0.802688
0.804477
0.806394
0.808449
0.810652
0.813011
0.815538
0.818239
0.821122
0.824192
0.827449
0.830888
0.834493
0.838236
0.842069
0.845904
0.849671
0.852959
0.856549
0.793378
0.794518
0.795682
0.796737
0.797816
0.799004
0.800296
0.80167
0.803127
0.804682
0.806344
0.808121
0.810019
0.812047
0.814215
0.816532
0.819006
0.821648
0.824464
0.82746
0.83064
0.834003
0.83754
0.841232
0.845047
0.848929
0.852788
0.856514
0.859787
0.863007
0.797416
0.798593
0.799787
0.800916
0.802082
0.80335
0.804715
0.806164
0.807699
0.809331
0.81107
0.812924
0.814899
0.817003
0.819247
0.821638
0.824186
0.826897
0.82978
0.832838
0.836074
0.839483
0.843054
0.846766
0.850579
0.854432
0.858231
0.861838
0.865001
0.867776
0.80102
0.80222
0.803433
0.804616
0.805849
0.807175
0.808593
0.810093
0.81168
0.813363
0.815152
0.817053
0.819074
0.821223
0.823507
0.825936
0.828518
0.831258
0.834164
0.837237
0.840478
0.843881
0.847431
0.8511
0.854848
0.858602
0.862266
0.865677
0.868614
0.870867
0.804156
0.805369
0.80659
0.807811
0.809089
0.810454
0.811904
0.813434
0.81505
0.81676
0.818573
0.820495
0.822534
0.824696
0.82699
0.829424
0.832004
0.834736
0.837625
0.840672
0.843875
0.847223
0.850701
0.854275
0.857896
0.861486
0.864936
0.868061
0.870646
0.872293
0.806815
0.808034
0.809256
0.810498
0.811804
0.813189
0.814652
0.816192
0.817816
0.819531
0.821344
0.823263
0.825293
0.827442
0.829717
0.832125
0.834671
0.837362
0.840198
0.843181
0.846305
0.849557
0.852917
0.856346
0.859788
0.86315
0.866312
0.86906
0.871183
0.872199
0.809015
0.810233
0.81145
0.812701
0.814017
0.815406
0.816866
0.8184
0.820013
0.821714
0.823508
0.825402
0.827401
0.829513
0.831744
0.8341
0.836585
0.839203
0.841956
0.84484
0.847848
0.850964
0.854163
0.857401
0.860611
0.86369
0.866507
0.86881
0.870456
0.870495
0.810791
0.812005
0.813211
0.814457
0.815768
0.817147
0.818591
0.820104
0.821693
0.823366
0.825126
0.826981
0.828935
0.830994
0.833162
0.835445
0.837846
0.840368
0.843011
0.845769
0.848631
0.851577
0.854577
0.857578
0.860507
0.863245
0.865659
0.867428
0.868555
0.867335
0.812201
0.81341
0.814599
0.815828
0.81712
0.818474
0.819886
0.82136
0.822904
0.824526
0.826231
0.828024
0.82991
0.831895
0.833981
0.836173
0.838471
0.840876
0.843386
0.845993
0.848685
0.851438
0.854213
0.85695
0.859566
0.861923
0.863886
0.865049
0.865633
0.863159
0.813318
0.814519
0.815678
0.816876
0.818144
0.819473
0.820856
0.822298
0.823807
0.825388
0.827044
0.828777
0.830592
0.832491
0.834478
0.836555
0.838726
0.840991
0.843344
0.845772
0.848258
0.850774
0.853278
0.855702
0.857954
0.859874
0.861334
0.861815
0.86179
0.857839
0.814284
0.815441
0.81651
0.817637
0.818848
0.820111
0.821415
0.822775
0.824205
0.825715
0.827306
0.828976
0.830723
0.832551
0.834461
0.83643
0.838468
0.840581
0.842761
0.844996
0.847268
0.849541
0.851765
0.85386
0.855726
0.857173
0.858085
0.857784
0.857072
0.851236
0.815316
0.81632
0.817225
0.818337
0.819581
0.820848
0.822139
0.823471
0.82485
0.826287
0.827792
0.829366
0.831004
0.832704
0.834475
0.836323
0.838233
0.840196
0.842197
0.844202
0.846205
0.848178
0.850059
0.851757
0.85316
0.854046
0.854321
0.853073
0.851691
0.843531
0.81647
0.816936
0.817381
0.818287
0.819465
0.820679
0.821923
0.823223
0.824587
0.826005
0.827469
0.828992
0.830563
0.832162
0.83378
0.835457
0.837187
0.838959
0.840765
0.842584
0.844371
0.846087
0.847666
0.849002
0.849968
0.850295
0.849964
0.847532
0.845906
0.834716
0.825223
0.814997
0.803279
0.79057
0.777158
0.762845
0.747613
0.73181
0.7161
0.701193
0.688315
0.677111
0.668245
0.66345
0.661234
0.659616
0.657912
0.656106
0.654978
0.653424
0.648543
0.64185
0.636874
0.635999
0.637005
0.633944
0.622869
0.606722
0.592879
0.587617
0.840174
0.831684
0.821385
0.810185
0.79809
0.784953
0.770616
0.755089
0.738712
0.721754
0.70554
0.690398
0.676403
0.666477
0.661839
0.659771
0.657791
0.655628
0.654396
0.652311
0.646377
0.638673
0.633444
0.632977
0.633647
0.627214
0.610906
0.590723
0.575099
0.572389
0.841655
0.83404
0.825308
0.815226
0.803611
0.790526
0.776092
0.760616
0.744332
0.727594
0.710935
0.695358
0.680658
0.669338
0.663371
0.66022
0.657702
0.655439
0.654202
0.652407
0.645669
0.635523
0.629037
0.628879
0.628665
0.619421
0.600447
0.580926
0.569296
0.566889
0.845871
0.840166
0.832628
0.82361
0.813163
0.80093
0.786908
0.771323
0.754336
0.736488
0.71859
0.701656
0.686019
0.673389
0.665916
0.661458
0.657991
0.65533
0.654082
0.652379
0.643976
0.630271
0.622177
0.623535
0.624698
0.615152
0.597022
0.581029
0.572821
0.570091
0.846961
0.842235
0.836037
0.828586
0.819382
0.808334
0.795314
0.780355
0.763592
0.745458
0.726753
0.708576
0.691715
0.677776
0.668853
0.663247
0.658875
0.655679
0.654229
0.651903
0.641197
0.622944
0.614005
0.619886
0.625625
0.618478
0.605256
0.594598
0.589127
0.580013
0.847439
0.843998
0.839199
0.832698
0.824464
0.814315
0.802048
0.787595
0.771076
0.752857
0.733636
0.714552
0.696648
0.681529
0.671309
0.664936
0.660025
0.656256
0.654131
0.65021
0.636259
0.614211
0.607442
0.621739
0.633342
0.630597
0.622201
0.614906
0.605899
0.581436
0.847103
0.84469
0.840989
0.835625
0.828476
0.819368
0.808005
0.794181
0.777949
0.759647
0.73995
0.720024
0.701125
0.684904
0.673502
0.666301
0.660998
0.656769
0.653463
0.647001
0.629617
0.607744
0.60734
0.631025
0.648195
0.648023
0.640906
0.63096
0.609658
0.564508
0.846292
0.844811
0.842141
0.837783
0.831629
0.823534
0.813132
0.800085
0.784324
0.766105
0.74606
0.725369
0.705479
0.688163
0.67562
0.667544
0.661724
0.657043
0.652543
0.643668
0.624973
0.607317
0.616626
0.647045
0.667002
0.6654
0.654563
0.635427
0.597025
0.531836
0.845154
0.844479
0.842709
0.839251
0.834047
0.826926
0.81747
0.805244
0.790063
0.77208
0.751848
0.730522
0.709697
0.691307
0.677648
0.668707
0.662333
0.657154
0.651566
0.641308
0.624273
0.613451
0.630549
0.66574
0.684658
0.677849
0.658812
0.626716
0.57151
0.491037
0.843808
0.84383
0.842846
0.840206
0.835879
0.829685
0.821153
0.809764
0.795222
0.777568
0.757264
0.73542
0.713736
0.694312
0.67957
0.669777
0.662853
0.657145
0.6507
0.640062
0.62586
0.621744
0.644851
0.681556
0.696113
0.681998
0.652169
0.606423
0.53785
0.449702
0.842335
0.842953
0.842653
0.840745
0.837224
0.831905
0.824276
0.813737
0.799883
0.782635
0.762353
0.740087
0.717609
0.69719
0.6814
0.670764
0.66329
0.657066
0.649941
0.639452
0.628212
0.629456
0.655805
0.690737
0.698467
0.676154
0.634773
0.577115
0.498721
0.410097
0.840797
0.841918
0.842208
0.840957
0.838174
0.83367
0.826909
0.81722
0.804092
0.787319
0.767146
0.744546
0.721337
0.699958
0.683148
0.671683
0.663661
0.656949
0.649313
0.639251
0.630852
0.636323
0.663119
0.692352
0.691114
0.65995
0.608841
0.542729
0.459146
0.376285
0.839235
0.840773
0.841575
0.84091
0.838804
0.835059
0.829119
0.820264
0.807884
0.791643
0.771656
0.748802
0.724922
0.702616
0.684813
0.672535
0.663977
0.656816
0.648821
0.639409
0.633494
0.642377
0.667594
0.688576
0.677238
0.63699
0.579222
0.508396
0.425892
0.352694
0.837663
0.839553
0.840799
0.840659
0.839171
0.836132
0.830965
0.82292
0.811298
0.79563
0.775895
0.752861
0.728368
0.705166
0.686394
0.67332
0.664244
0.656678
0.648465
0.639852
0.636131
0.647515
0.669577
0.681909
0.661032
0.613359
0.551706
0.480372
0.405519
0.344659
0.836092
0.838286
0.839916
0.840249
0.839325
0.836936
0.832496
0.825235
0.814371
0.799309
0.779882
0.756734
0.731679
0.707613
0.687892
0.674041
0.664467
0.656545
0.648233
0.640489
0.638749
0.651304
0.669507
0.673623
0.644966
0.592914
0.530463
0.462556
0.398927
0.349499
0.834527
0.836992
0.838953
0.839708
0.839303
0.837512
0.833756
0.827247
0.817135
0.802703
0.783633
0.76043
0.734864
0.709959
0.689309
0.6747
0.664652
0.656418
0.648102
0.641235
0.641133
0.653743
0.667829
0.664311
0.629917
0.576176
0.515558
0.453285
0.400208
0.360729
0.832971
0.835684
0.837933
0.839063
0.839135
0.837899
0.834782
0.828993
0.819621
0.805834
0.787161
0.763957
0.737926
0.71221
0.690648
0.675298
0.664801
0.656299
0.648037
0.641957
0.643274
0.655077
0.66482
0.654539
0.616205
0.562653
0.505127
0.448636
0.405487
0.375997
0.831441
0.834361
0.836866
0.838335
0.838845
0.838125
0.835607
0.830504
0.821855
0.808722
0.790483
0.767326
0.740872
0.714367
0.691909
0.675838
0.664917
0.656183
0.648011
0.642622
0.645129
0.655389
0.660772
0.644759
0.604025
0.551879
0.49779
0.447322
0.412298
0.393729
0.829949
0.833023
0.835759
0.837537
0.838449
0.838211
0.83626
0.831807
0.823862
0.811388
0.79361
0.770543
0.743705
0.716434
0.693095
0.676321
0.665004
0.656069
0.648006
0.643274
0.646516
0.654861
0.655969
0.635262
0.593605
0.543563
0.493518
0.449134
0.420082
0.409982
0.828494
0.831675
0.834625
0.836685
0.837962
0.838179
0.836763
0.832927
0.825665
0.81385
0.796555
0.773618
0.746431
0.718413
0.694206
0.676749
0.665061
0.655951
0.648002
0.64387
0.647358
0.653715
0.650776
0.626417
0.58505
0.537761
0.49144
0.451108
0.427552
0.424326
0.827068
0.83033
0.833468
0.835791
0.837399
0.838042
0.837132
0.833886
0.827284
0.816123
0.799331
0.776557
0.749055
0.720308
0.695243
0.677123
0.665092
0.655824
0.647984
0.644348
0.64774
0.652112
0.645355
0.618621
0.578333
0.533649
0.489331
0.451608
0.433388
0.439111
0.825681
0.829001
0.832292
0.834857
0.83677
0.83781
0.837381
0.834702
0.828737
0.818224
0.80195
0.779369
0.75158
0.722119
0.696209
0.677445
0.665096
0.655685
0.647935
0.644682
0.647774
0.650091
0.639886
0.612071
0.572793
0.529434
0.485557
0.451009
0.440087
0.455477
0.82435
0.827696
0.831106
0.833891
0.836083
0.837493
0.837525
0.835388
0.830042
0.820167
0.804422
0.782062
0.754012
0.723849
0.697104
0.677715
0.665075
0.655529
0.647843
0.644886
0.647501
0.647733
0.634846
0.606151
0.567333
0.523866
0.480127
0.450898
0.448678
0.472515
0.823085
0.826422
0.829916
0.832897
0.835349
0.837098
0.837571
0.83596
0.831212
0.821963
0.806754
0.784641
0.756354
0.725502
0.69793
0.677937
0.66503
0.655355
0.647715
0.644979
0.646983
0.645195
0.630139
0.600328
0.561061
0.51629
0.474285
0.4525
0.458602
0.488632
0.821895
0.825189
0.828727
0.831878
0.834577
0.836638
0.837526
0.836428
0.832265
0.823634
0.808966
0.787115
0.75861
0.727075
0.698683
0.678105
0.664952
0.655126
0.647455
0.644915
0.646263
0.642562
0.625348
0.594103
0.553282
0.507368
0.469248
0.456074
0.470041
0.502024
0.820789
0.82401
0.82755
0.830825
0.833759
0.836136
0.837386
0.836773
0.833182
0.825167
0.811052
0.789491
0.760793
0.728585
0.699386
0.678258
0.664916
0.654973
0.647233
0.644762
0.645426
0.639811
0.62043
0.587051
0.544046
0.498324
0.465852
0.46107
0.481026
0.51231
0.819801
0.822901
0.826407
0.829749
0.832857
0.835585
0.837312
0.837113
0.834048
0.826615
0.81303
0.791752
0.762864
0.729976
0.699943
0.678221
0.66464
0.654613
0.646875
0.64436
0.644382
0.637221
0.615532
0.5793
0.534087
0.490018
0.464385
0.467331
0.491365
0.51941
0.818945
0.821862
0.825353
0.828768
0.831894
0.834683
0.836806
0.83724
0.834755
0.827938
0.814953
0.794016
0.765003
0.731529
0.70076
0.67853
0.664732
0.654355
0.646579
0.64399
0.642717
0.63325
0.608662
0.569874
0.524332
0.48269
0.464175
0.474835
0.500608
0.524731
0.818213
0.820827
0.824333
0.82801
0.831444
0.834467
0.836748
0.837447
0.835438
0.829064
0.8165
0.795706
0.766411
0.732254
0.700739
0.678156
0.664406
0.653997
0.646212
0.644022
0.64258
0.631419
0.604249
0.562544
0.514584
0.476361
0.464527
0.480941
0.508361
0.529048
0.817591
0.819599
0.822619
0.826187
0.829812
0.833225
0.836033
0.837446
0.836134
0.830675
0.818971
0.798845
0.769465
0.734517
0.70189
0.678392
0.664113
0.653351
0.645341
0.642902
0.640348
0.626157
0.59385
0.547998
0.500527
0.472242
0.470841
0.491133
0.51757
0.53344
0.357961
0.359191
0.384472
0.407898
0.383928
0.35111
0.350657
0.366826
0.386578
0.409049
0.432178
0.454257
0.47464
0.493192
0.509908
0.524884
0.538284
0.550285
0.561061
0.570774
0.579569
0.587575
0.594908
0.601662
0.607981
0.614086
0.620405
0.627322
0.63488
0.631984
0.357994
0.359906
0.370377
0.38158
0.36742
0.331224
0.320807
0.337278
0.360893
0.386782
0.413285
0.438218
0.460847
0.48119
0.49937
0.515548
0.529926
0.542723
0.554151
0.564399
0.57363
0.581983
0.589578
0.596508
0.602857
0.608658
0.614
0.618395
0.623717
0.625982
0.352856
0.35592
0.334614
0.325425
0.320325
0.300732
0.285382
0.297776
0.325833
0.35516
0.386162
0.415425
0.441538
0.464588
0.484989
0.50305
0.519011
0.533126
0.545657
0.556836
0.566859
0.575887
0.584056
0.591472
0.598227
0.60434
0.609992
0.614904
0.62013
0.625361
0.321386
0.32376
0.278031
0.253304
0.247435
0.243425
0.237746
0.249406
0.281095
0.318891
0.355537
0.390853
0.422369
0.449463
0.472878
0.493319
0.511203
0.526861
0.540626
0.552803
0.563644
0.573356
0.582112
0.590051
0.597308
0.603954
0.610153
0.615842
0.621124
0.62613
0.261186
0.265256
0.215856
0.184376
0.174227
0.173817
0.177961
0.192593
0.225779
0.271287
0.317227
0.360229
0.398804
0.431543
0.459027
0.48244
0.502605
0.520044
0.535193
0.548443
0.560122
0.570495
0.579779
0.588146
0.595746
0.602679
0.609044
0.614904
0.620226
0.62518
0.186773
0.19561
0.15575
0.123493
0.108981
0.106518
0.114221
0.132093
0.164193
0.211965
0.267125
0.319582
0.366872
0.407221
0.440532
0.468098
0.491264
0.51096
0.527839
0.542419
0.55512
0.566281
0.576173
0.585012
0.592974
0.600197
0.606785
0.612854
0.618424
0.623676
0.116938
0.130972
0.102508
0.0710679
0.0529025
0.0473838
0.0542245
0.0732615
0.104158
0.149243
0.206918
0.268706
0.325863
0.375515
0.416714
0.450229
0.477622
0.500331
0.519418
0.53565
0.549603
0.561716
0.572336
0.581737
0.590138
0.597716
0.604605
0.610929
0.616726
0.622192
0.0682158
0.0824909
0.0607947
0.0294035
0.00819481
-0.000769241
0.00258854
0.0203516
0.0499546
0.0913508
0.14614
0.210685
0.276468
0.336243
0.386954
0.428325
0.461593
0.488452
0.510438
0.528722
0.544149
0.557336
0.568746
0.578729
0.58756
0.595456
0.602582
0.609088
0.615027
0.620617
0.049841
0.0573704
0.0363893
0.00341038
-0.0214675
-0.035388
-0.0359287
-0.0220316
0.00475487
0.0425256
0.0923693
0.154366
0.223245
0.290882
0.351228
0.401717
0.442439
0.474843
0.50074
0.521711
0.538958
0.553379
0.565631
0.576186
0.585395
0.593532
0.600807
0.607402
0.613394
0.619027
0.0669327
0.058407
0.0334909
-0.00313808
-0.0328062
-0.0515493
-0.0570739
-0.0492722
-0.0273857
0.00610904
0.0507051
0.107468
0.174434
0.245261
0.312738
0.371885
0.420767
0.459751
0.490568
0.514991
0.534527
0.550416
0.563589
0.574697
0.584211
0.592486
0.599787
0.606335
0.612241
0.617766
0.11713
0.0896566
0.0555687
0.0117528
-0.0250232
-0.0500512
-0.0611069
-0.0590836
-0.0433956
-0.0151031
0.0242785
0.0753232
0.137726
0.207392
0.277788
0.342794
0.398912
0.444461
0.480811
0.509371
0.531682
0.549311
0.563504
0.575141
0.584852
0.593106
0.600248
0.60655
0.612163
0.617365
0.194149
0.14954
0.103545
0.0501642
0.00413528
-0.0295467
-0.0482208
-0.0519198
-0.0420399
-0.0192737
0.0148897
0.0607343
0.118029
0.184294
0.254684
0.323273
0.383675
0.433545
0.474359
0.506799
0.531913
0.55132
0.566506
0.578567
0.588305
0.596322
0.603058
0.608852
0.613907
0.618514
0.286095
0.231025
0.174075
0.111313
0.0553773
0.0119019
-0.0159451
-0.0274474
-0.0240977
-0.00687944
0.0230648
0.0648699
0.117656
0.179806
0.247885
0.316484
0.378657
0.431762
0.475474
0.510523
0.537687
0.558404
0.57421
0.586351
0.59578
0.603225
0.609221
0.614174
0.618345
0.622031
0.381072
0.32417
0.260602
0.190742
0.126216
0.0733754
0.0362242
0.0160974
0.0122289
0.0233157
0.0483314
0.0863373
0.135944
0.194967
0.26049
0.326249
0.387274
0.441421
0.487003
0.5235
0.551631
0.572798
0.588513
0.600109
0.608665
0.615021
0.619799
0.623465
0.626339
0.628711
0.473381
0.417893
0.352007
0.279048
0.209298
0.149533
0.104503
0.0764747
0.0656343
0.0711087
0.0915562
0.125633
0.171673
0.22772
0.290634
0.353956
0.412876
0.465727
0.511034
0.547536
0.575535
0.596194
0.610964
0.621237
0.628204
0.632807
0.635759
0.637586
0.638661
0.639266
0.545893
0.497237
0.434113
0.362661
0.291952
0.228936
0.178865
0.145137
0.129151
0.129714
0.146278
0.177144
0.220279
0.273368
0.33272
0.3927
0.449447
0.50084
0.544949
0.580826
0.608337
0.628141
0.64154
0.649973
0.654756
0.656968
0.657443
0.656802
0.655487
0.653809
0.586296
0.549623
0.494019
0.42796
0.359814
0.296706
0.244341
0.207111
0.187105
0.184092
0.197544
0.225823
0.26665
0.317122
0.373378
0.430975
0.486428
0.537101
0.580837
0.616539
0.644109
0.664019
0.676937
0.684088
0.686914
0.686702
0.684456
0.680953
0.676763
0.672322
0.598329
0.572414
0.526209
0.467449
0.403612
0.341926
0.288649
0.248468
0.224677
0.218233
0.228363
0.253468
0.291943
0.340348
0.394947
0.451905
0.507841
0.559861
0.605601
0.643505
0.67311
0.694803
0.708717
0.716818
0.719235
0.717478
0.712931
0.706699
0.699578
0.692272
0.582487
0.568769
0.531797
0.480451
0.420897
0.360506
0.305611
0.261448
0.23277
0.223262
0.229345
0.250581
0.287003
0.333595
0.38726
0.444299
0.501586
0.5563
0.606131
0.648635
0.682916
0.708865
0.727039
0.738592
0.744176
0.743889
0.738956
0.731061
0.72143
0.711323
0.54551
0.544728
0.514299
0.468545
0.411407
0.350465
0.291945
0.241805
0.207001
0.193217
0.196981
0.212279
0.242108
0.286173
0.338434