/*--------------------------------*- C++ -*----------------------------------*\
  =========                 |
  \\      /  F ield         | OpenFOAM: The Open Source CFD Toolbox
   \\    /   O peration     | Website:  https://openfoam.org
    \\  /    A nd           | Version:  11
     \\/     M anipulation  |
\*---------------------------------------------------------------------------*/
FoamFile
{
    format      ascii;
    class       surfaceScalarField;
    location    "10";
    object      phi;
}
// * * * * * * * * * * * * * * * * * * * * * * * * * * * * * * * * * * * * * //

dimensions      [0 3 -1 0 0 0 0];

internalField   nonuniform List<scalar> 
24840
(
1.53202e-05
1.31071e-08
1.53031e-05
1.71681e-08
1.52876e-05
1.54311e-08
1.52732e-05
1.44138e-08
1.52595e-05
1.37446e-08
1.52466e-05
1.28354e-08
1.5235e-05
1.16261e-08
1.52249e-05
1.01473e-08
1.52166e-05
8.2949e-09
1.52106e-05
6.00978e-09
1.52073e-05
3.2532e-09
1.52074e-05
-8.5822e-11
1.52116e-05
-4.22371e-09
1.5221e-05
-9.36179e-09
1.52367e-05
-1.571e-08
1.52602e-05
-2.34914e-08
1.52934e-05
-3.31927e-08
1.53386e-05
-4.52004e-08
1.53982e-05
-5.96529e-08
1.54755e-05
-7.72575e-08
1.55744e-05
-9.89372e-08
1.57002e-05
-1.25758e-07
1.5859e-05
-1.58781e-07
1.60582e-05
-1.99259e-07
1.63069e-05
-2.48639e-07
1.66152e-05
-3.08344e-07
1.69965e-05
-3.8132e-07
1.74608e-05
-4.64294e-07
1.80482e-05
-5.87342e-07
-6.00322e-07
1.86485e-05
1.53395e-05
6.96032e-09
1.53442e-05
1.24735e-08
1.53489e-05
1.06841e-08
1.5354e-05
9.35571e-09
1.53596e-05
8.09838e-09
1.53662e-05
6.24773e-09
1.53739e-05
3.934e-09
1.5383e-05
1.07322e-09
1.53938e-05
-2.4766e-09
1.54066e-05
-6.8069e-09
1.54218e-05
-1.20186e-08
1.54401e-05
-1.8361e-08
1.5462e-05
-2.61274e-08
1.54883e-05
-3.56619e-08
1.55199e-05
-4.72843e-08
1.5558e-05
-6.16184e-08
1.56039e-05
-7.90214e-08
1.56591e-05
-1.00413e-07
1.57268e-05
-1.27371e-07
1.58105e-05
-1.6093e-07
1.59137e-05
-2.02183e-07
1.60408e-05
-2.52821e-07
1.61969e-05
-3.14936e-07
1.63885e-05
-3.90881e-07
1.66234e-05
-4.83536e-07
1.69114e-05
-5.9634e-07
1.72642e-05
-7.34118e-07
1.76962e-05
-8.96264e-07
1.82236e-05
-1.11472e-06
-1.24329e-06
1.88665e-05
1.53364e-05
3.89802e-09
1.53407e-05
8.18136e-09
1.53444e-05
6.94124e-09
1.53489e-05
4.85829e-09
1.53542e-05
2.79168e-09
1.53605e-05
9.79192e-12
1.53677e-05
-3.27675e-09
1.53763e-05
-7.54038e-09
1.53865e-05
-1.27168e-08
1.53987e-05
-1.89979e-08
1.54133e-05
-2.66059e-08
1.54308e-05
-3.5858e-08
1.54518e-05
-4.71543e-08
1.54772e-05
-6.09886e-08
1.55078e-05
-7.79277e-08
1.5545e-05
-9.87655e-08
1.55903e-05
-1.24345e-07
1.56457e-05
-1.55855e-07
1.57134e-05
-1.95063e-07
1.57961e-05
-2.43587e-07
1.58972e-05
-3.03277e-07
1.6021e-05
-3.76681e-07
1.61729e-05
-4.66775e-07
1.63591e-05
-5.77126e-07
1.65877e-05
-7.12136e-07
1.68683e-05
-8.76912e-07
1.72129e-05
-1.07871e-06
1.76349e-05
-1.31827e-06
1.81527e-05
-1.63253e-06
-1.88471e-06
1.87941e-05
1.53352e-05
2.0063e-09
1.5339e-05
4.42399e-09
1.53427e-05
3.25614e-09
1.53468e-05
7.32866e-10
1.53519e-05
-2.26219e-09
1.53577e-05
-5.87201e-09
1.53648e-05
-1.03004e-08
1.53731e-05
-1.5866e-08
1.5383e-05
-2.2625e-08
1.53948e-05
-3.08006e-08
1.54089e-05
-4.07168e-08
1.54258e-05
-5.27757e-08
1.54462e-05
-6.74863e-08
1.54707e-05
-8.54886e-08
1.55003e-05
-1.07561e-07
1.55362e-05
-1.34709e-07
1.558e-05
-1.68125e-07
1.56335e-05
-2.09327e-07
1.56988e-05
-2.60334e-07
1.57785e-05
-3.23316e-07
1.5876e-05
-4.00841e-07
1.59956e-05
-4.96209e-07
1.61421e-05
-6.13316e-07
1.63219e-05
-7.56905e-07
1.65426e-05
-9.32863e-07
1.68138e-05
-1.14804e-06
1.7147e-05
-1.41191e-06
1.75567e-05
-1.72799e-06
1.80586e-05
-2.13451e-06
-2.51355e-06
1.86875e-05
1.53346e-05
7.3427e-10
1.53376e-05
1.4353e-09
1.5341e-05
-1.31052e-10
1.53449e-05
-3.19755e-09
1.53497e-05
-7.01275e-09
1.53553e-05
-1.15299e-08
1.53621e-05
-1.7054e-08
1.53701e-05
-2.38617e-08
1.53796e-05
-3.21245e-08
1.53909e-05
-4.21151e-08
1.54044e-05
-5.42319e-08
1.54206e-05
-6.89649e-08
1.544e-05
-8.69297e-08
1.54635e-05
-1.08908e-07
1.54918e-05
-1.3587e-07
1.55261e-05
-1.69036e-07
1.55679e-05
-2.09895e-07
1.56188e-05
-2.60286e-07
1.5681e-05
-3.22528e-07
1.5757e-05
-3.99305e-07
1.585e-05
-4.93822e-07
1.59639e-05
-6.10077e-07
1.61034e-05
-7.52899e-07
1.62747e-05
-9.28178e-07
1.64851e-05
-1.14322e-06
1.67437e-05
-1.40665e-06
1.70618e-05
-1.73004e-06
1.74542e-05
-2.12037e-06
1.79353e-05
-2.61563e-06
-3.1199e-06
1.85417e-05
1.53343e-05
-1.97479e-10
1.53367e-05
-1.00866e-09
1.53398e-05
-3.26171e-09
1.53436e-05
-6.9175e-09
1.5348e-05
-1.14843e-08
1.53534e-05
-1.68947e-08
1.53598e-05
-2.34431e-08
1.53674e-05
-3.1432e-08
1.53764e-05
-4.11155e-08
1.53871e-05
-5.28227e-08
1.53998e-05
-6.70128e-08
1.54151e-05
-8.42609e-08
1.54335e-05
-1.05287e-07
1.54556e-05
-1.31006e-07
1.54823e-05
-1.62561e-07
1.55146e-05
-2.0138e-07
1.55539e-05
-2.49213e-07
1.56019e-05
-3.082e-07
1.56603e-05
-3.80984e-07
1.57317e-05
-4.70707e-07
1.5819e-05
-5.81152e-07
1.5926e-05
-7.16994e-07
1.6057e-05
-8.83941e-07
1.62178e-05
-1.08897e-06
1.64153e-05
-1.34076e-06
1.66584e-05
-1.64967e-06
1.69577e-05
-2.02935e-06
1.73278e-05
-2.49051e-06
1.77826e-05
-3.07047e-06
-3.69735e-06
1.83601e-05
1.53341e-05
-9.41482e-10
1.53361e-05
-3.03836e-09
1.5339e-05
-6.10465e-09
1.53424e-05
-1.03663e-08
1.53466e-05
-1.56341e-08
1.53516e-05
-2.18938e-08
1.53575e-05
-2.94121e-08
1.53646e-05
-3.85158e-08
1.5373e-05
-4.95234e-08
1.5383e-05
-6.28239e-08
1.53949e-05
-7.89358e-08
1.54092e-05
-9.85128e-08
1.54263e-05
-1.22373e-07
1.54468e-05
-1.51552e-07
1.54716e-05
-1.87354e-07
1.55016e-05
-2.31396e-07
1.55381e-05
-2.85663e-07
1.55825e-05
-3.52574e-07
1.56366e-05
-4.35083e-07
1.57026e-05
-5.36749e-07
1.57833e-05
-6.6188e-07
1.58821e-05
-8.15784e-07
1.60031e-05
-1.00497e-06
1.61516e-05
-1.23745e-06
1.6334e-05
-1.52317e-06
1.65586e-05
-1.87419e-06
1.68354e-05
-2.30619e-06
1.71786e-05
-2.83369e-06
1.76015e-05
-3.49338e-06
-4.23884e-06
1.8143e-05
1.53339e-05
-1.55e-09
1.53357e-05
-4.75474e-09
1.53382e-05
-8.64175e-09
1.53414e-05
-1.35293e-08
1.53452e-05
-1.94635e-08
1.53498e-05
-2.65124e-08
1.53553e-05
-3.49294e-08
1.53619e-05
-4.50591e-08
1.53696e-05
-5.72755e-08
1.53788e-05
-7.20266e-08
1.53898e-05
-8.98875e-08
1.54029e-05
-1.11582e-07
1.54185e-05
-1.38017e-07
1.54373e-05
-1.7034e-07
1.54599e-05
-2.09994e-07
1.54873e-05
-2.5877e-07
1.55205e-05
-3.18862e-07
1.55609e-05
-3.92939e-07
1.561e-05
-4.84245e-07
1.567e-05
-5.96712e-07
1.57432e-05
-7.35118e-07
1.58328e-05
-9.05339e-07
1.59424e-05
-1.11462e-06
1.60768e-05
-1.37188e-06
1.6242e-05
-1.68828e-06
1.64452e-05
-2.07745e-06
1.6696e-05
-2.55701e-06
1.70076e-05
-3.14529e-06
1.73928e-05
-3.87852e-06
-4.73661e-06
1.78905e-05
1.53338e-05
-2.05617e-09
1.53353e-05
-6.22407e-09
1.53376e-05
-1.08851e-08
1.53404e-05
-1.63941e-08
1.53439e-05
-2.29523e-08
1.53481e-05
-3.07156e-08
1.53531e-05
-3.99451e-08
1.53591e-05
-5.09999e-08
1.53661e-05
-6.42991e-08
1.53744e-05
-8.03444e-08
1.53843e-05
-9.97633e-08
1.53961e-05
-1.23341e-07
1.54101e-05
-1.52064e-07
1.54269e-05
-1.87177e-07
1.54472e-05
-2.30246e-07
1.54716e-05
-2.83215e-07
1.55012e-05
-3.48461e-07
1.55372e-05
-4.28872e-07
1.55809e-05
-5.27953e-07
1.56341e-05
-6.49958e-07
1.56991e-05
-8.00074e-07
1.57784e-05
-9.84674e-07
1.58754e-05
-1.21163e-06
1.59942e-05
-1.4907e-06
1.61401e-05
-1.83409e-06
1.63195e-05
-2.25687e-06
1.6541e-05
-2.77849e-06
1.68165e-05
-3.42087e-06
1.7158e-05
-4.22002e-06
-5.18231e-06
1.76037e-05
1.53338e-05
-2.48466e-09
1.5335e-05
-7.48557e-09
1.5337e-05
-1.2852e-08
1.53396e-05
-1.89504e-08
1.53427e-05
-2.60807e-08
1.53464e-05
-3.44775e-08
1.53509e-05
-4.44233e-08
1.53562e-05
-5.62909e-08
1.53624e-05
-7.05352e-08
1.53698e-05
-8.77043e-08
1.53785e-05
-1.08473e-07
1.53889e-05
-1.3368e-07
1.54012e-05
-1.64377e-07
1.54159e-05
-2.01896e-07
1.54336e-05
-2.47908e-07
1.54548e-05
-3.04485e-07
1.54805e-05
-3.7416e-07
1.55117e-05
-4.60008e-07
1.55495e-05
-5.65755e-07
1.55954e-05
-6.95927e-07
1.56514e-05
-8.5605e-07
1.57196e-05
-1.05292e-06
1.58029e-05
-1.29493e-06
1.59048e-05
-1.59254e-06
1.60295e-05
-1.95884e-06
1.61828e-05
-2.41016e-06
1.63719e-05
-2.96756e-06
1.66073e-05
-3.65627e-06
1.68994e-05
-4.51216e-06
-5.5673e-06
1.72844e-05
1.53337e-05
-2.84931e-09
1.53348e-05
-8.56467e-09
1.53365e-05
-1.45576e-08
1.53387e-05
-2.11935e-08
1.53415e-05
-2.88338e-08
1.53448e-05
-3.77779e-08
1.53487e-05
-4.83349e-08
1.53533e-05
-6.08921e-08
1.53587e-05
-7.59321e-08
1.5365e-05
-9.40415e-08
1.53725e-05
-1.15936e-07
1.53813e-05
-1.42498e-07
1.53918e-05
-1.74837e-07
1.54042e-05
-2.14353e-07
1.54191e-05
-2.62804e-07
1.5437e-05
-3.22367e-07
1.54586e-05
-3.95701e-07
1.54846e-05
-4.86031e-07
1.55161e-05
-5.97263e-07
1.55543e-05
-7.3414e-07
1.56007e-05
-9.02455e-07
1.56571e-05
-1.10933e-06
1.57258e-05
-1.3636e-06
1.58095e-05
-1.67622e-06
1.59116e-05
-2.06103e-06
1.60368e-05
-2.53535e-06
1.61908e-05
-3.12156e-06
1.63823e-05
-3.84773e-06
1.66197e-05
-4.74962e-06
-5.88307e-06
1.69355e-05
1.53336e-05
-3.15792e-09
1.53346e-05
-9.47933e-09
1.5336e-05
-1.60151e-08
1.53379e-05
-2.31226e-08
1.53403e-05
-3.12016e-08
1.53431e-05
-4.06005e-08
1.53465e-05
-5.16562e-08
1.53503e-05
-6.47706e-08
1.53549e-05
-8.04474e-08
1.53601e-05
-9.93037e-08
1.53663e-05
-1.22088e-07
1.53735e-05
-1.49719e-07
1.5382e-05
-1.83349e-07
1.53921e-05
-2.24431e-07
1.54041e-05
-2.74792e-07
1.54184e-05
-3.36687e-07
1.54356e-05
-4.12872e-07
1.54562e-05
-5.06685e-07
1.54811e-05
-6.22163e-07
1.55112e-05
-7.64211e-07
1.55475e-05
-9.38815e-07
1.55915e-05
-1.15333e-06
1.56448e-05
-1.41688e-06
1.57094e-05
-1.74081e-06
1.57879e-05
-2.13945e-06
1.58833e-05
-2.63083e-06
1.60001e-05
-3.23829e-06
1.61444e-05
-3.9921e-06
1.63226e-05
-4.92775e-06
-6.12178e-06
1.65613e-05
1.53336e-05
-3.41555e-09
1.53344e-05
-1.02429e-08
1.53356e-05
-1.72359e-08
1.53372e-05
-2.47403e-08
1.53392e-05
-3.31779e-08
1.53415e-05
-4.29337e-08
1.53442e-05
-5.43699e-08
1.53474e-05
-6.7902e-08
1.5351e-05
-8.40492e-08
1.53551e-05
-1.0345e-07
1.53599e-05
-1.26879e-07
1.53655e-05
-1.5528e-07
1.53719e-05
-1.89837e-07
1.53796e-05
-2.3204e-07
1.53885e-05
-2.83761e-07
1.53991e-05
-3.47311e-07
1.54118e-05
-4.25512e-07
1.54269e-05
-5.21772e-07
1.54449e-05
-6.40217e-07
1.54666e-05
-7.8585e-07
1.54925e-05
-9.64775e-07
1.55237e-05
-1.18449e-06
1.55611e-05
-1.45426e-06
1.56059e-05
-1.78566e-06
1.56597e-05
-2.19326e-06
1.57243e-05
-2.69547e-06
1.58022e-05
-3.31615e-06
1.58971e-05
-4.08701e-06
1.60122e-05
-5.04287e-06
-6.27685e-06
1.61673e-05
1.53335e-05
-3.62611e-09
1.53342e-05
-1.08662e-08
1.53352e-05
-1.82311e-08
1.53365e-05
-2.60515e-08
1.53381e-05
-3.47611e-08
1.53399e-05
-4.47712e-08
1.5342e-05
-5.64653e-08
1.53444e-05
-7.02702e-08
1.5347e-05
-8.67152e-08
1.535e-05
-1.06453e-07
1.53534e-05
-1.30274e-07
1.53573e-05
-1.59139e-07
1.53617e-05
-1.94248e-07
1.53668e-05
-2.37114e-07
1.53726e-05
-2.89634e-07
1.53795e-05
-3.54148e-07
1.53875e-05
-4.33508e-07
1.53969e-05
-5.31161e-07
1.54079e-05
-6.51267e-07
1.54209e-05
-7.98869e-07
1.54363e-05
-9.80109e-07
1.54543e-05
-1.20252e-06
1.54754e-05
-1.47541e-06
1.55001e-05
-1.81035e-06
1.55288e-05
-2.22194e-06
1.55619e-05
-2.72861e-06
1.56e-05
-3.3542e-06
1.5644e-05
-4.13099e-06
1.56937e-05
-5.09262e-06
-6.3436e-06
1.57605e-05
1.53335e-05
-3.79303e-09
1.5334e-05
-1.13592e-08
1.53348e-05
-1.90119e-08
1.53358e-05
-2.70642e-08
1.5337e-05
-3.59541e-08
1.53383e-05
-4.61118e-08
1.53398e-05
-5.79379e-08
1.53414e-05
-7.18672e-08
1.53431e-05
-8.84336e-08
1.5345e-05
-1.08296e-07
1.53469e-05
-1.32252e-07
1.53491e-05
-1.61269e-07
1.53514e-05
-1.96552e-07
1.53539e-05
-2.39619e-07
1.53566e-05
-2.92369e-07
1.53596e-05
-3.57146e-07
1.53629e-05
-4.36804e-07
1.53665e-05
-5.34782e-07
1.53705e-05
-6.55233e-07
1.53748e-05
-8.03177e-07
1.53794e-05
-9.84719e-07
1.53842e-05
-1.20733e-06
1.5389e-05
-1.48021e-06
1.53934e-05
-1.81477e-06
1.53969e-05
-2.22537e-06
1.53984e-05
-2.7301e-06
1.53964e-05
-3.35224e-06
1.53891e-05
-4.12369e-06
1.53726e-05
-5.07616e-06
-6.31981e-06
1.53489e-05
1.53335e-05
-3.91986e-09
1.53338e-05
-1.17318e-08
1.53344e-05
-1.95913e-08
1.53351e-05
-2.77895e-08
1.5336e-05
-3.6764e-08
1.53368e-05
-4.69597e-08
1.53377e-05
-5.87901e-08
1.53385e-05
-7.26936e-08
1.53392e-05
-8.92028e-08
1.53399e-05
-1.08976e-07
1.53405e-05
-1.32809e-07
1.53409e-05
-1.61666e-07
1.53411e-05
-1.96743e-07
1.5341e-05
-2.39545e-07
1.53406e-05
-2.91956e-07
1.53397e-05
-3.56298e-07
1.53383e-05
-4.35391e-07
1.53362e-05
-5.32633e-07
1.53331e-05
-6.52119e-07
1.53287e-05
-7.98788e-07
1.53226e-05
-9.78633e-07
1.53142e-05
-1.19896e-06
1.53028e-05
-1.46875e-06
1.52871e-05
-1.79909e-06
1.52655e-05
-2.20382e-06
1.52358e-05
-2.70035e-06
1.51944e-05
-3.31085e-06
1.51366e-05
-4.06588e-06
1.50549e-05
-4.99444e-06
-6.20624e-06
1.49413e-05
1.53334e-05
-4.01061e-09
1.53337e-05
-1.19957e-08
1.53341e-05
-1.99842e-08
1.53345e-05
-2.82415e-08
1.5335e-05
-3.72023e-08
1.53353e-05
-4.73244e-08
1.53356e-05
-5.90309e-08
1.53356e-05
-7.27581e-08
1.53355e-05
-8.90313e-08
1.5335e-05
-1.08502e-07
1.53341e-05
-1.31955e-07
1.53328e-05
-1.60341e-07
1.53309e-05
-1.94835e-07
1.53283e-05
-2.36914e-07
1.53248e-05
-2.88423e-07
1.53201e-05
-3.51638e-07
1.5314e-05
-4.29315e-07
1.53062e-05
-5.24774e-07
1.5296e-05
-6.42006e-07
1.52831e-05
-7.85813e-07
1.52664e-05
-9.62006e-07
1.52451e-05
-1.17765e-06
1.52177e-05
-1.44136e-06
1.51824e-05
-1.76374e-06
1.51365e-05
-2.15792e-06
1.50764e-05
-2.64028e-06
1.49969e-05
-3.23137e-06
1.48906e-05
-3.95951e-06
1.47463e-05
-4.85022e-06
-6.00677e-06
1.45469e-05
1.53334e-05
-4.07016e-09
1.53336e-05
-1.21644e-08
1.53338e-05
-2.02089e-08
1.5334e-05
-2.84377e-08
1.53341e-05
-3.72843e-08
1.5334e-05
-4.72208e-08
1.53336e-05
-5.86759e-08
1.53329e-05
-7.20775e-08
1.53318e-05
-8.79379e-08
1.53302e-05
-1.06895e-07
1.5328e-05
-1.29716e-07
1.5325e-05
-1.57327e-07
1.5321e-05
-1.90868e-07
1.53159e-05
-2.31772e-07
1.53093e-05
-2.81829e-07
1.53009e-05
-3.4324e-07
1.52902e-05
-4.18671e-07
1.52768e-05
-5.11328e-07
1.52598e-05
-6.25051e-07
1.52385e-05
-7.64458e-07
1.52116e-05
-9.35112e-07
1.51777e-05
-1.14374e-06
1.51348e-05
-1.39853e-06
1.50805e-05
-1.70943e-06
1.50113e-05
-2.08866e-06
1.49223e-05
-2.55129e-06
1.48068e-05
-3.11587e-06
1.46549e-05
-3.80763e-06
1.44527e-05
-4.648e-06
-5.72847e-06
1.41744e-05
1.53334e-05
-4.10466e-09
1.53335e-05
-1.22555e-08
1.53335e-05
-2.02877e-08
1.53335e-05
-2.83994e-08
1.53332e-05
-3.70292e-08
1.53327e-05
-4.66687e-08
1.53318e-05
-5.77473e-08
1.53304e-05
-7.06766e-08
1.53284e-05
-8.59508e-08
1.53257e-05
-1.04189e-07
1.53221e-05
-1.26133e-07
1.53174e-05
-1.52672e-07
1.53115e-05
-1.84901e-07
1.53039e-05
-2.24194e-07
1.52943e-05
-2.72265e-07
1.52823e-05
-3.3122e-07
1.52672e-05
-4.03605e-07
1.52484e-05
-4.92476e-07
1.52248e-05
-6.01488e-07
1.51954e-05
-7.35021e-07
1.51586e-05
-8.98336e-07
1.51126e-05
-1.09776e-06
1.5055e-05
-1.34094e-06
1.49827e-05
-1.63707e-06
1.48913e-05
-1.99733e-06
1.47753e-05
-2.43524e-06
1.46264e-05
-2.96701e-06
1.4433e-05
-3.61423e-06
1.41788e-05
-4.39381e-06
-5.38115e-06
1.38315e-05
1.53334e-05
-4.12223e-09
1.53334e-05
-1.22915e-08
1.53333e-05
-2.02481e-08
1.53331e-05
-2.81509e-08
1.53325e-05
-3.64595e-08
1.53316e-05
-4.5693e-08
1.53301e-05
-5.62734e-08
1.5328e-05
-6.85875e-08
1.53252e-05
-8.31076e-08
1.53214e-05
-1.00429e-07
1.53165e-05
-1.21259e-07
1.53103e-05
-1.46443e-07
1.53024e-05
-1.77016e-07
1.52925e-05
-2.1428e-07
1.52801e-05
-2.59857e-07
1.52646e-05
-3.15732e-07
1.52453e-05
-3.84307e-07
1.52213e-05
-4.68457e-07
1.51914e-05
-5.71616e-07
1.51543e-05
-6.97885e-07
1.51081e-05
-8.52168e-07
1.50507e-05
-1.04034e-06
1.49792e-05
-1.26942e-06
1.48899e-05
-1.54781e-06
1.4778e-05
-1.88547e-06
1.46371e-05
-2.29429e-06
1.4458e-05
-2.78796e-06
1.42279e-05
-3.38405e-06
1.39289e-05
-4.09485e-06
-4.97677e-06
1.35245e-05
1.53333e-05
-4.13409e-09
1.53334e-05
-1.23022e-08
1.53332e-05
-2.01236e-08
1.53328e-05
-2.77196e-08
1.53319e-05
-3.56009e-08
1.53306e-05
-4.43235e-08
1.53286e-05
-5.42886e-08
1.53259e-05
-6.58496e-08
1.53222e-05
-7.9455e-08
1.53174e-05
-9.5671e-08
1.53114e-05
-1.15164e-07
1.53036e-05
-1.38722e-07
1.52939e-05
-1.67315e-07
1.52818e-05
-2.02156e-07
1.52667e-05
-2.44756e-07
1.52479e-05
-2.96965e-07
1.52246e-05
-3.61012e-07
1.51957e-05
-4.39565e-07
1.51599e-05
-5.35802e-07
1.51156e-05
-6.53508e-07
1.50606e-05
-7.97192e-07
1.49925e-05
-9.72221e-07
1.4908e-05
-1.18496e-06
1.48031e-05
-1.44291e-06
1.46725e-05
-1.75483e-06
1.45091e-05
-2.13087e-06
1.43033e-05
-2.58221e-06
1.40415e-05
-3.12227e-06
1.37057e-05
-3.759e-06
-4.52853e-06
1.32574e-05
1.53334e-05
-4.15625e-09
1.53334e-05
-1.233e-08
1.53332e-05
-1.9954e-08
1.53326e-05
-2.71302e-08
1.53315e-05
-3.4479e-08
1.53298e-05
-4.25974e-08
1.53273e-05
-5.18379e-08
1.5324e-05
-6.25116e-08
1.53196e-05
-7.5047e-08
1.53139e-05
-8.99797e-08
1.53067e-05
-1.07926e-07
1.52975e-05
-1.29608e-07
1.52861e-05
-1.55918e-07
1.5272e-05
-1.87969e-07
1.52543e-05
-2.27146e-07
1.52325e-05
-2.75141e-07
1.52055e-05
-3.33995e-07
1.51721e-05
-4.0614e-07
1.51308e-05
-4.9447e-07
1.50797e-05
-6.02423e-07
1.50165e-05
-7.34075e-07
1.49386e-05
-8.94252e-07
1.48422e-05
-1.08863e-06
1.47231e-05
-1.32381e-06
1.45756e-05
-1.60731e-06
1.43923e-05
-1.94757e-06
1.41635e-05
-2.35338e-06
1.38754e-05
-2.83423e-06
1.35107e-05
-3.39428e-06
-4.04987e-06
1.30321e-05
1.53334e-05
-4.21376e-09
1.53335e-05
-1.24319e-08
1.53333e-05
-1.97846e-08
1.53326e-05
-2.64164e-08
1.53313e-05
-3.31321e-08
1.53292e-05
-4.05509e-08
1.53263e-05
-4.89553e-08
1.53224e-05
-5.86184e-08
1.53173e-05
-6.99475e-08
1.53108e-05
-8.34363e-08
1.53025e-05
-9.96417e-08
1.52921e-05
-1.19216e-07
1.52792e-05
-1.42963e-07
1.52631e-05
-1.71887e-07
1.52432e-05
-2.07233e-07
1.52186e-05
-2.50518e-07
1.51881e-05
-3.03571e-07
1.51506e-05
-3.6857e-07
1.51042e-05
-4.48098e-07
1.5047e-05
-5.45218e-07
1.49765e-05
-6.63548e-07
1.48896e-05
-8.07352e-07
1.47825e-05
-9.81597e-07
1.46507e-05
-1.19199e-06
1.44883e-05
-1.44486e-06
1.42877e-05
-1.74701e-06
1.40394e-05
-2.10508e-06
1.37302e-05
-2.52507e-06
1.33443e-05
-3.00831e-06
-3.55336e-06
1.28478e-05
1.53335e-05
-4.34682e-09
1.53337e-05
-1.26914e-08
1.53336e-05
-1.96641e-08
1.53328e-05
-2.56023e-08
1.53313e-05
-3.15941e-08
1.53289e-05
-3.82285e-08
1.53257e-05
-4.56907e-08
1.53213e-05
-5.42267e-08
1.53156e-05
-6.4223e-08
1.53082e-05
-7.61209e-08
1.5299e-05
-9.04112e-08
1.52875e-05
-1.0767e-07
1.52731e-05
-1.28605e-07
1.52553e-05
-1.541e-07
1.52333e-05
-1.85248e-07
1.52062e-05
-2.23377e-07
1.51727e-05
-2.70088e-07
1.51314e-05
-3.27282e-07
1.50805e-05
-3.97212e-07
1.50179e-05
-4.82541e-07
1.49407e-05
-5.86412e-07
1.48459e-05
-7.1251e-07
1.47294e-05
-8.65097e-07
1.45864e-05
-1.04902e-06
1.4411e-05
-1.26947e-06
1.41958e-05
-1.53175e-06
1.39314e-05
-1.84071e-06
1.36057e-05
-2.19943e-06
1.32052e-05
-2.60772e-06
-3.04983e-06
1.27016e-05
1.53336e-05
-4.62963e-09
1.53342e-05
-1.32243e-08
1.53341e-05
-1.96248e-08
1.53332e-05
-2.47136e-08
1.53315e-05
-2.9917e-08
1.5329e-05
-3.56837e-08
1.53254e-05
-4.20982e-08
1.53206e-05
-4.94018e-08
1.53143e-05
-5.79543e-08
1.53063e-05
-6.81296e-08
1.52963e-05
-8.03498e-08
1.52837e-05
-9.51084e-08
1.52681e-05
-1.13012e-07
1.52488e-05
-1.34814e-07
1.5225e-05
-1.61442e-07
1.51957e-05
-1.94026e-07
1.51595e-05
-2.3392e-07
1.5115e-05
-2.82734e-07
1.50601e-05
-3.42371e-07
1.49927e-05
-4.1508e-07
1.49097e-05
-5.03508e-07
1.4808e-05
-6.10753e-07
1.46833e-05
-7.40388e-07
1.45307e-05
-8.96452e-07
1.43443e-05
-1.0831e-06
1.41168e-05
-1.30423e-06
1.38395e-05
-1.56335e-06
1.35013e-05
-1.86128e-06
1.30915e-05
-2.19788e-06
-2.5476e-06
1.25893e-05
1.53339e-05
-5.20607e-09
1.53349e-05
-1.42077e-08
1.53349e-05
-1.96625e-08
1.5334e-05
-2.37598e-08
1.53322e-05
-2.81345e-08
1.53295e-05
-3.29471e-08
1.53256e-05
-3.82203e-08
1.53204e-05
-4.42057e-08
1.53137e-05
-5.1221e-08
1.53051e-05
-5.95578e-08
1.52943e-05
-6.95759e-08
1.52809e-05
-8.16803e-08
1.52642e-05
-9.63664e-08
1.52437e-05
-1.14251e-07
1.52183e-05
-1.36089e-07
1.51871e-05
-1.62799e-07
1.51487e-05
-1.95477e-07
1.51013e-05
-2.35426e-07
1.50432e-05
-2.84186e-07
1.49717e-05
-3.43577e-07
1.48839e-05
-4.15737e-07
1.47763e-05
-5.03175e-07
1.46447e-05
-6.08787e-07
1.44842e-05
-7.35917e-07
1.42888e-05
-8.87748e-07
1.40515e-05
-1.0669e-06
1.37642e-05
-1.27603e-06
1.34171e-05
-1.51418e-06
1.30028e-05
-1.78361e-06
-2.05178e-06
1.2507e-05
1.53345e-05
-6.32916e-09
1.53361e-05
-1.58795e-08
1.53363e-05
-1.9794e-08
1.53353e-05
-2.28406e-08
1.53335e-05
-2.63195e-08
1.53306e-05
-3.00529e-08
1.53265e-05
-3.40996e-08
1.5321e-05
-3.87026e-08
1.53139e-05
-4.4111e-08
1.53049e-05
-5.05101e-08
1.52935e-05
-5.82179e-08
1.52794e-05
-6.75416e-08
1.52619e-05
-7.8861e-08
1.52403e-05
-9.26496e-08
1.52136e-05
-1.09484e-07
1.51809e-05
-1.3006e-07
1.51406e-05
-1.55209e-07
1.50911e-05
-1.85916e-07
1.50303e-05
-2.2335e-07
1.49556e-05
-2.68887e-07
1.4864e-05
-3.24149e-07
1.47519e-05
-3.91056e-07
1.4615e-05
-4.71842e-07
1.44484e-05
-5.694e-07
1.42467e-05
-6.85995e-07
1.40028e-05
-8.2301e-07
1.37095e-05
-9.8275e-07
1.33577e-05
-1.16238e-06
1.29441e-05
-1.36998e-06
-1.56337e-06
1.24557e-05
1.53355e-05
-8.49253e-09
1.53378e-05
-1.81684e-08
1.53379e-05
-1.99395e-08
1.53372e-05
-2.20808e-08
1.53354e-05
-2.45275e-08
1.53324e-05
-2.70557e-08
1.53281e-05
-2.98179e-08
1.53224e-05
-3.2982e-08
1.5315e-05
-3.67326e-08
1.53056e-05
-4.11101e-08
1.52938e-05
-4.64303e-08
1.52792e-05
-5.28808e-08
1.5261e-05
-6.07202e-08
1.52387e-05
-7.02793e-08
1.52111e-05
-8.19537e-08
1.51773e-05
-9.62121e-08
1.51357e-05
-1.13614e-07
1.50846e-05
-1.3483e-07
1.50219e-05
-1.60659e-07
1.49451e-05
-1.9205e-07
1.4851e-05
-2.30132e-07
1.47362e-05
-2.76247e-07
1.45964e-05
-3.31985e-07
1.4427e-05
-4.00068e-07
1.42226e-05
-4.81575e-07
1.39762e-05
-5.7662e-07
1.36808e-05
-6.87363e-07
1.33275e-05
-8.09073e-07
1.29138e-05
-9.56278e-07
-1.06557e-06
1.2416e-05
1.53392e-05
-1.43661e-08
1.53413e-05
-2.03075e-08
1.5341e-05
-1.96408e-08
1.53397e-05
-2.07367e-08
1.53373e-05
-2.21225e-08
1.53337e-05
-2.34371e-08
1.53287e-05
-2.48553e-08
1.53222e-05
-2.64842e-08
1.53139e-05
-2.84336e-08
1.53035e-05
-3.06816e-08
1.52905e-05
-3.34455e-08
1.52744e-05
-3.68137e-08
1.52547e-05
-4.09251e-08
1.52303e-05
-4.5963e-08
1.52005e-05
-5.21457e-08
1.51641e-05
-5.97337e-08
1.51195e-05
-6.90393e-08
1.50651e-05
-8.04379e-08
1.49988e-05
-9.4378e-08
1.49181e-05
-1.11393e-07
1.48201e-05
-1.32117e-07
1.47012e-05
-1.57277e-07
1.45568e-05
-1.87674e-07
1.43801e-05
-2.2331e-07
1.4164e-05
-2.65475e-07
1.39031e-05
-3.1569e-07
1.35893e-05
-3.73635e-07
1.3218e-05
-4.37752e-07
1.27764e-05
-5.1465e-07
-5.05199e-07
1.2216e-05
1.5319e-05
1.52987e-05
1.5279e-05
1.52583e-05
1.52362e-05
1.52127e-05
1.51879e-05
1.51614e-05
1.5133e-05
1.51023e-05
1.50688e-05
1.5032e-05
1.49911e-05
1.49451e-05
1.4893e-05
1.48332e-05
1.47642e-05
1.46838e-05
1.45894e-05
1.4478e-05
1.43459e-05
1.41886e-05
1.40009e-05
1.37776e-05
1.35121e-05
1.31964e-05
1.28228e-05
1.23851e-05
1.18704e-05
1.13652e-05
1.84127e-05
-8.60781e-06
8.84362e-06
1.82e-05
-8.79154e-06
9.00424e-06
1.79441e-05
-8.97337e-06
9.22928e-06
1.76486e-05
-9.14477e-06
9.44027e-06
1.73209e-05
-9.31601e-06
9.64372e-06
1.69684e-05
-9.4926e-06
9.84503e-06
1.65958e-05
-9.67655e-06
1.00491e-05
1.62057e-05
-9.86896e-06
1.02591e-05
1.57995e-05
-1.00708e-05
1.0477e-05
1.53773e-05
-1.02825e-05
1.07047e-05
1.49385e-05
-1.05044e-05
1.09432e-05
1.4482e-05
-1.07367e-05
1.11932e-05
1.40067e-05
-1.09803e-05
1.14556e-05
1.35114e-05
-1.12361e-05
1.17313e-05
1.29952e-05
-1.15057e-05
1.20219e-05
1.24569e-05
-1.17909e-05
1.23292e-05
1.1895e-05
-1.2094e-05
1.26559e-05
1.13076e-05
-1.24177e-05
1.30051e-05
1.06925e-05
-1.27654e-05
1.33805e-05
1.00468e-05
-1.31411e-05
1.37868e-05
9.36657e-06
-1.35497e-05
1.42299e-05
8.64693e-06
-1.39975e-05
1.47172e-05
7.88148e-06
-1.44923e-05
1.52577e-05
7.06181e-06
-1.50439e-05
1.58636e-05
6.17574e-06
-1.5664e-05
1.65501e-05
5.21026e-06
-1.63701e-05
1.73356e-05
4.1468e-06
-1.71784e-05
1.82418e-05
2.90771e-06
-1.81433e-05
1.93824e-05
1.63609e-06
-1.91221e-05
2.03937e-05
-2.08054e-05
2.24415e-05
1.86082e-05
-8.34943e-06
1.83075e-05
-8.49085e-06
1.79747e-05
-8.64061e-06
1.76228e-05
-8.79282e-06
1.72574e-05
-8.95062e-06
1.6881e-05
-9.11621e-06
1.64941e-05
-9.28968e-06
1.6096e-05
-9.47086e-06
1.56852e-05
-9.65992e-06
1.52599e-05
-9.85715e-06
1.48185e-05
-1.0063e-05
1.43598e-05
-1.02781e-05
1.38828e-05
-1.05033e-05
1.33867e-05
-1.074e-05
1.28705e-05
-1.09895e-05
1.2333e-05
-1.12534e-05
1.17727e-05
-1.15337e-05
1.11876e-05
-1.18326e-05
1.05753e-05
-1.21531e-05
9.93284e-06
-1.24986e-05
9.25629e-06
-1.28731e-05
8.54075e-06
-1.3282e-05
7.77984e-06
-1.37314e-05
6.96524e-06
-1.42293e-05
6.086e-06
-1.47848e-05
5.12806e-06
-1.54122e-05
4.07108e-06
-1.61214e-05
2.87826e-06
-1.69505e-05
1.58512e-06
-1.78289e-05
-1.92203e-05
1.84844e-05
-8.03973e-06
1.81573e-05
-8.16373e-06
1.78152e-05
-8.29847e-06
1.74633e-05
-8.441e-06
1.71027e-05
-8.59e-06
1.67316e-05
-8.74513e-06
1.63483e-05
-8.9064e-06
1.59515e-05
-9.07403e-06
1.554e-05
-9.24846e-06
1.51131e-05
-9.43025e-06
1.46702e-05
-9.62004e-06
1.42107e-05
-9.81854e-06
1.3734e-05
-1.00266e-05
1.32392e-05
-1.02453e-05
1.27253e-05
-1.04756e-05
1.21909e-05
-1.0719e-05
1.16342e-05
-1.0977e-05
1.10534e-05
-1.12518e-05
1.04458e-05
-1.15455e-05
9.80833e-06
-1.18611e-05
9.13716e-06
-1.2202e-05
8.42731e-06
-1.25722e-05
7.67247e-06
-1.29765e-05
6.86451e-06
-1.34213e-05
5.99289e-06
-1.39131e-05
5.04382e-06
-1.44631e-05
3.99888e-06
-1.50765e-05
2.83106e-06
-1.57827e-05
1.5379e-06
-1.65358e-05
-1.76824e-05
1.83651e-05
-7.71731e-06
1.80318e-05
-7.83052e-06
1.76867e-05
-7.95335e-06
1.7331e-05
-8.08529e-06
1.69646e-05
-8.22363e-06
1.65865e-05
-8.36698e-06
1.61957e-05
-8.51565e-06
1.5792e-05
-8.67027e-06
1.53749e-05
-8.83133e-06
1.49439e-05
-8.99927e-06
1.44984e-05
-9.17457e-06
1.40377e-05
-9.35781e-06
1.35607e-05
-9.5497e-06
1.30665e-05
-9.75106e-06
1.25538e-05
-9.96286e-06
1.20212e-05
-1.01863e-05
1.14668e-05
-1.04227e-05
1.08888e-05
-1.06738e-05
1.02846e-05
-1.09413e-05
9.65108e-06
-1.12276e-05
8.98435e-06
-1.15353e-05
8.27959e-06
-1.18674e-05
7.53066e-06
-1.22276e-05
6.7298e-06
-1.26205e-05
5.86704e-06
-1.30504e-05
4.92956e-06
-1.35256e-05
3.90061e-06
-1.40475e-05
2.7585e-06
-1.46406e-05
1.48551e-06
-1.52628e-05
-1.61969e-05
1.8209e-05
-7.3846e-06
1.78668e-05
-7.48841e-06
1.75141e-05
-7.60061e-06
1.71512e-05
-7.72242e-06
1.67782e-05
-7.85062e-06
1.63945e-05
-7.98322e-06
1.59993e-05
-8.1205e-06
1.55923e-05
-8.26325e-06
1.51728e-05
-8.41187e-06
1.47403e-05
-8.56667e-06
1.42937e-05
-8.72805e-06
1.38325e-05
-8.89653e-06
1.33555e-05
-9.07275e-06
1.28618e-05
-9.2574e-06
1.23503e-05
-9.45131e-06
1.18194e-05
-9.65542e-06
1.12675e-05
-9.87083e-06
1.06926e-05
-1.00988e-05
1.0092e-05
-1.03407e-05
9.46274e-06
-1.05984e-05
8.80104e-06
-1.08736e-05
8.10218e-06
-1.11685e-05
7.36034e-06
-1.14857e-05
6.56816e-06
-1.18283e-05
5.7164e-06
-1.21986e-05
4.79331e-06
-1.26025e-05
3.78381e-06
-1.3038e-05
2.66893e-06
-1.35257e-05
1.42666e-06
-1.40205e-05
-1.47702e-05
1.8019e-05
-7.04351e-06
1.76695e-05
-7.13889e-06
1.73105e-05
-7.24159e-06
1.6942e-05
-7.354e-06
1.6564e-05
-7.4726e-06
1.61758e-05
-7.59499e-06
1.57767e-05
-7.72144e-06
1.53663e-05
-7.8528e-06
1.49439e-05
-7.98949e-06
1.45089e-05
-8.13171e-06
1.40607e-05
-8.27981e-06
1.35984e-05
-8.43423e-06
1.31211e-05
-8.59549e-06
1.26279e-05
-8.76415e-06
1.21174e-05
-8.94084e-06
1.15883e-05
-9.1263e-06
1.10388e-05
-9.32133e-06
1.04668e-05
-9.52685e-06
9.87e-06
-9.74391e-06
9.24527e-06
-9.97364e-06
8.58903e-06
-1.02173e-05
7.8968e-06
-1.04763e-05
7.16311e-06
-1.07521e-05
6.38115e-06
-1.10463e-05
5.54246e-06
-1.13599e-05
4.63645e-06
-1.16965e-05
3.64963e-06
-1.20512e-05
2.56547e-06
-1.24415e-05
1.36159e-06
-1.28166e-05
-1.34086e-05
1.77944e-05
-6.69496e-06
1.74382e-05
-6.78263e-06
1.70732e-05
-6.87662e-06
1.66994e-05
-6.98018e-06
1.63164e-05
-7.08963e-06
1.59237e-05
-7.20234e-06
1.55208e-05
-7.31855e-06
1.51072e-05
-7.43916e-06
1.46823e-05
-7.56456e-06
1.42455e-05
-7.69489e-06
1.3796e-05
-7.83038e-06
1.33332e-05
-7.97139e-06
1.2856e-05
-8.11833e-06
1.23635e-05
-8.27161e-06
1.18544e-05
-8.43172e-06
1.13272e-05
-8.59915e-06
1.07804e-05
-8.77448e-06
1.02118e-05
-8.95831e-06
9.61922e-06
-9.1513e-06
8.99969e-06
-9.35411e-06
8.3498e-06
-9.56741e-06
7.66537e-06
-9.79188e-06
6.94133e-06
-1.0028e-05
6.17148e-06
-1.02765e-05
5.34822e-06
-1.05367e-05
4.46209e-06
-1.08104e-05
3.50135e-06
-1.10904e-05
2.45168e-06
-1.13918e-05
1.29275e-06
-1.16577e-05
-1.21159e-05
1.75352e-05
-6.33967e-06
1.71729e-05
-6.42028e-06
1.68026e-05
-6.50627e-06
1.64239e-05
-6.60152e-06
1.60366e-05
-6.7023e-06
1.56401e-05
-6.80586e-06
1.5234e-05
-6.91242e-06
1.48177e-05
-7.02287e-06
1.43907e-05
-7.13758e-06
1.39524e-05
-7.25659e-06
1.35021e-05
-7.38005e-06
1.30389e-05
-7.50826e-06
1.25621e-05
-7.64149e-06
1.20705e-05
-7.78005e-06
1.15631e-05
-7.92423e-06
1.10383e-05
-8.07436e-06
1.04946e-05
-8.23076e-06
9.93e-06
-8.39376e-06
9.34234e-06
-8.56364e-06
8.72889e-06
-8.74066e-06
8.08644e-06
-8.92497e-06
7.41116e-06
-9.1166e-06
6.69844e-06
-9.3153e-06
5.9427e-06
-9.52074e-06
5.13725e-06
-9.73122e-06
4.27378e-06
-9.94694e-06
3.3423e-06
-1.0159e-05
2.33066e-06
-1.03802e-05
1.22165e-06
-1.05487e-05
-1.08942e-05
1.72424e-05
-5.97837e-06
1.68747e-05
-6.0525e-06
1.64995e-05
-6.13115e-06
1.61166e-05
-6.21859e-06
1.57255e-05
-6.31118e-06
1.53257e-05
-6.4061e-06
1.49168e-05
-6.50355e-06
1.44984e-05
-6.60441e-06
1.40698e-05
-6.70898e-06
1.36305e-05
-6.81725e-06
1.31797e-05
-6.92931e-06
1.27168e-05
-7.04533e-06
1.22408e-05
-7.16551e-06
1.17508e-05
-7.29001e-06
1.12455e-05
-7.41899e-06
1.07237e-05
-7.55258e-06
1.01839e-05
-7.6909e-06
9.62411e-06
-7.834e-06
9.04235e-06
-7.98188e-06
8.4361e-06
-8.13441e-06
7.80242e-06
-8.29129e-06
7.13784e-06
-8.45202e-06
6.43824e-06
-8.61571e-06
5.69871e-06
-8.7812e-06
4.91343e-06
-8.94594e-06
4.07528e-06
-9.10878e-06
3.17599e-06
-9.25967e-06
2.20537e-06
-9.40958e-06
1.14982e-06
-9.49313e-06
-9.74442e-06
1.69178e-05
-5.61177e-06
1.65453e-05
-5.67999e-06
1.61661e-05
-5.75192e-06
1.57795e-05
-5.83204e-06
1.53852e-05
-5.91689e-06
1.49828e-05
-6.00369e-06
1.45718e-05
-6.09257e-06
1.41518e-05
-6.18439e-06
1.37222e-05
-6.27939e-06
1.32825e-05
-6.37751e-06
1.28319e-05
-6.47875e-06
1.23698e-05
-6.58322e-06
1.18953e-05
-6.69101e-06
1.14075e-05
-6.80217e-06
1.09052e-05
-6.9167e-06
1.03872e-05
-7.0346e-06
9.85205e-06
-7.15577e-06
9.29809e-06
-7.28004e-06
8.72336e-06
-7.40715e-06
8.12559e-06
-7.53664e-06
7.50214e-06
-7.66783e-06