/*--------------------------------*- C++ -*----------------------------------*\
  =========                 |
  \\      /  F ield         | OpenFOAM: The Open Source CFD Toolbox
   \\    /   O peration     | Website:  https://openfoam.org
    \\  /    A nd           | Version:  11
     \\/     M anipulation  |
\*---------------------------------------------------------------------------*/
FoamFile
{
    format      ascii;
    class       surfaceScalarField;
    location    "10";
    object      phi;
}
// * * * * * * * * * * * * * * * * * * * * * * * * * * * * * * * * * * * * * //

dimensions      [0 3 -1 0 0 0 0];

internalField   nonuniform List<scalar> 
24840
(
1.57972e-05
1.37276e-08
1.57785e-05
1.87194e-08
1.5761e-05
1.74936e-08
1.57436e-05
1.73832e-08
1.5726e-05
1.76649e-08
1.57082e-05
1.77301e-08
1.56906e-05
1.76694e-08
1.5673e-05
1.75748e-08
1.56556e-05
1.745e-08
1.56383e-05
1.72832e-08
1.56212e-05
1.70672e-08
1.56044e-05
1.67941e-08
1.5588e-05
1.64478e-08
1.5572e-05
1.6006e-08
1.55565e-05
1.5447e-08
1.55418e-05
1.47451e-08
1.55279e-05
1.38785e-08
1.5515e-05
1.28425e-08
1.55035e-05
1.15779e-08
1.54935e-05
9.96743e-09
1.54856e-05
7.91051e-09
1.54802e-05
5.42081e-09
1.54778e-05
2.36378e-09
1.54793e-05
-1.54613e-09
1.54859e-05
-6.55619e-09
1.54988e-05
-1.28582e-08
1.55202e-05
-2.14078e-08
1.55528e-05
-3.2643e-08
1.5606e-05
-5.32005e-08
-1.23698e-07
1.57297e-05
1.5817e-05
7.6957e-09
1.58206e-05
1.51382e-08
1.5823e-05
1.50745e-08
1.5825e-05
1.53423e-08
1.58269e-05
1.57612e-08
1.58288e-05
1.58459e-08
1.58308e-05
1.57409e-08
1.58328e-05
1.55687e-08
1.58349e-05
1.53288e-08
1.58372e-05
1.50083e-08
1.58396e-05
1.4595e-08
1.58424e-05
1.40742e-08
1.58454e-05
1.34142e-08
1.58488e-05
1.25701e-08
1.58528e-05
1.15039e-08
1.58573e-05
1.01669e-08
1.58627e-05
8.52896e-09
1.5869e-05
6.56029e-09
1.58764e-05
4.1623e-09
1.58852e-05
1.16597e-09
1.58958e-05
-2.66472e-09
1.59085e-05
-7.28951e-09
1.59239e-05
-1.30303e-08
1.59426e-05
-2.02574e-08
1.59653e-05
-2.92409e-08
1.59933e-05
-4.08726e-08
1.60269e-05
-5.5027e-08
1.60703e-05
-7.60186e-08
1.61166e-05
-9.95452e-08
-1.30631e-07
1.61236e-05
1.58136e-05
5.06846e-09
1.58169e-05
1.18431e-08
1.58188e-05
1.31274e-08
1.58208e-05
1.33444e-08
1.58228e-05
1.38031e-08
1.58247e-05
1.39371e-08
1.58267e-05
1.3778e-08
1.58287e-05
1.34982e-08
1.58309e-05
1.31322e-08
1.58333e-05
1.26746e-08
1.58358e-05
1.20995e-08
1.58385e-05
1.13803e-08
1.58414e-05
1.04687e-08
1.58447e-05
9.29234e-09
1.58484e-05
7.77049e-09
1.58527e-05
5.87079e-09
1.58577e-05
3.51944e-09
1.58636e-05
6.4345e-10
1.58706e-05
-2.79761e-09
1.58789e-05
-7.11925e-09
1.58887e-05
-1.24819e-08
1.59005e-05
-1.90624e-08
1.59147e-05
-2.72329e-08
1.59319e-05
-3.74767e-08
1.59529e-05
-5.0294e-08
1.59787e-05
-6.65993e-08
1.60107e-05
-8.70712e-08
1.6048e-05
-1.1327e-07
1.60947e-05
-1.46251e-07
-1.74256e-07
1.61383e-05
1.58125e-05
3.55849e-09
1.58152e-05
9.15436e-09
1.58171e-05
1.11994e-08
1.58188e-05
1.16121e-08
1.58207e-05
1.19782e-08
1.58225e-05
1.2088e-08
1.58244e-05
1.18815e-08
1.58264e-05
1.14941e-08
1.58285e-05
1.0998e-08
1.58308e-05
1.04029e-08
1.58332e-05
9.66832e-09
1.58359e-05
8.7562e-09
1.58387e-05
7.59239e-09
1.5842e-05
6.07953e-09
1.58456e-05
4.11417e-09
1.58498e-05
1.70853e-09
1.58546e-05
-1.35156e-09
1.58603e-05
-5.0575e-09
1.58671e-05
-9.55827e-09
1.58751e-05
-1.51087e-08
1.58846e-05
-2.1955e-08
1.58959e-05
-3.03986e-08
1.59096e-05
-4.08846e-08
1.59261e-05
-5.40093e-08
1.59463e-05
-7.04645e-08
1.59709e-05
-9.12118e-08
1.60011e-05
-1.17298e-07
1.60373e-05
-1.49524e-07
1.60825e-05
-1.91433e-07
-2.28304e-07
1.61366e-05
1.58119e-05
2.63174e-09
1.58139e-05
7.16916e-09
1.58157e-05
9.41931e-09
1.58172e-05
1.00468e-08
1.58189e-05
1.0289e-08
1.58207e-05
1.03098e-08
1.58225e-05
1.00332e-08
1.58245e-05
9.53738e-09
1.58266e-05
8.91445e-09
1.58288e-05
8.18464e-09
1.58312e-05
7.30046e-09
1.58337e-05
6.2044e-09
1.58365e-05
4.79717e-09
1.58396e-05
2.95876e-09
1.58432e-05
5.53367e-10
1.58473e-05
-2.35243e-09
1.5852e-05
-6.0467e-09
1.58574e-05
-1.05409e-08
1.58639e-05
-1.60141e-08
1.58715e-05
-2.27272e-08
1.58805e-05
-3.09892e-08
1.58913e-05
-4.11873e-08
1.59043e-05
-5.38524e-08
1.592e-05
-6.9682e-08
1.5939e-05
-8.95219e-08
1.59622e-05
-1.14427e-07
1.59907e-05
-1.4574e-07
1.60254e-05
-1.84253e-07
1.60683e-05
-2.34338e-07
-2.8338e-07
1.61234e-05
1.58116e-05
2.02276e-09
1.58131e-05
5.67642e-09
1.58147e-05
7.82059e-09
1.58162e-05
8.55532e-09
1.58177e-05
8.70665e-09
1.58194e-05
8.60578e-09
1.58212e-05
8.23386e-09
1.58231e-05
7.63352e-09
1.58252e-05
6.89079e-09
1.58273e-05
6.02976e-09
1.58296e-05
4.99937e-09
1.58321e-05
3.71715e-09
1.58348e-05
2.08137e-09
1.58378e-05
-4.74988e-11
1.58412e-05
-2.81719e-09
1.58451e-05
-6.23785e-09
1.58496e-05
-1.05206e-08
1.58548e-05
-1.57566e-08
1.58609e-05
-2.21305e-08
1.58681e-05
-2.99264e-08
1.58766e-05
-3.95022e-08
1.58867e-05
-5.13177e-08
1.58989e-05
-6.59858e-08
1.59135e-05
-8.4299e-08
1.59312e-05
-1.07238e-07
1.59528e-05
-1.3599e-07
1.59792e-05
-1.72139e-07
1.60117e-05
-2.16739e-07
1.60518e-05
-2.74518e-07
-3.36067e-07
1.61045e-05
1.58114e-05
1.58848e-09
1.58126e-05
4.52231e-09
1.5814e-05
6.4195e-09
1.58154e-05
7.15496e-09
1.58168e-05
7.22979e-09
1.58184e-05
6.99559e-09
1.58202e-05
6.50711e-09
1.5822e-05
5.79858e-09
1.5824e-05
4.93981e-09
1.5826e-05
3.95434e-09
1.58282e-05
2.7871e-09
1.58306e-05
1.32943e-09
1.58332e-05
-5.21108e-10
1.58361e-05
-2.93223e-09
1.58393e-05
-6.03906e-09
1.5843e-05
-9.92033e-09
1.58472e-05
-1.47463e-08
1.58521e-05
-2.06567e-08
1.58579e-05
-2.78505e-08
1.58646e-05
-3.66318e-08
1.58725e-05
-4.7401e-08
1.58818e-05
-6.06809e-08
1.5893e-05
-7.71574e-08
1.59064e-05
-9.77091e-08
1.59226e-05
-1.23434e-07
1.59423e-05
-1.55659e-07
1.59663e-05
-1.96175e-07
1.5996e-05
-2.46426e-07
1.60327e-05
-3.11249e-07
-3.8453e-07
1.60812e-05
1.58113e-05
1.25739e-09
1.58122e-05
3.60286e-09
1.58134e-05
5.2001e-09
1.58147e-05
5.85104e-09
1.58161e-05
5.83725e-09
1.58177e-05
5.4671e-09
1.58193e-05
4.84995e-09
1.58211e-05
4.02938e-09
1.5823e-05
3.05886e-09
1.5825e-05
1.95398e-09
1.58271e-05
6.57215e-10
1.58294e-05
-9.52828e-10
1.58319e-05
-3.00328e-09
1.58346e-05
-5.66399e-09
1.58376e-05
-9.08255e-09
1.58411e-05
-1.33719e-08
1.5845e-05
-1.86911e-08
1.58496e-05
-2.52046e-08
1.58549e-05
-3.31296e-08
1.5861e-05
-4.27884e-08
1.58682e-05
-5.46173e-08
1.58767e-05
-6.91899e-08
1.58868e-05
-8.72543e-08
1.58989e-05
-1.09765e-07
1.59134e-05
-1.3792e-07
1.59309e-05
-1.73184e-07
1.59523e-05
-2.17526e-07
1.59786e-05
-2.72798e-07
1.60112e-05
-3.43822e-07
-4.2765e-07
1.60543e-05
1.58112e-05
9.91625e-10
1.5812e-05
2.846e-09
1.58131e-05
4.13156e-09
1.58143e-05
4.64022e-09
1.58156e-05
4.51859e-09
1.5817e-05
4.01543e-09
1.58186e-05
3.26769e-09
1.58203e-05
2.33419e-09
1.58221e-05
1.25765e-09
1.5824e-05
4.3426e-11
1.58261e-05
-1.37311e-09
1.58282e-05
-3.12034e-09
1.58306e-05
-5.34824e-09
1.58331e-05
-8.22977e-09
1.5836e-05
-1.19263e-08
1.58392e-05
-1.65719e-08
1.58428e-05
-2.23247e-08
1.5847e-05
-2.93641e-08
1.58518e-05
-3.79239e-08
1.58573e-05
-4.83424e-08
1.58638e-05
-6.10837e-08
1.58714e-05
-7.67623e-08
1.58803e-05
-9.61769e-08
1.58909e-05
-1.20344e-07
1.59035e-05
-1.50544e-07
1.59187e-05
-1.88358e-07
1.5937e-05
-2.359e-07
1.59596e-05
-2.95406e-07
1.59874e-05
-3.71595e-07
-4.6451e-07
1.60243e-05
1.58112e-05
7.69133e-10
1.58118e-05
2.20237e-09
1.58128e-05
3.18279e-09
1.58139e-05
3.51532e-09
1.58152e-05
3.26824e-09
1.58165e-05
2.6351e-09
1.5818e-05
1.75991e-09
1.58197e-05
7.15256e-10
1.58214e-05
-4.61411e-10
1.58232e-05
-1.77522e-09
1.58251e-05
-3.29853e-09
1.58272e-05
-5.16735e-09
1.58294e-05
-7.54764e-09
1.58318e-05
-1.06197e-08
1.58344e-05
-1.45551e-08
1.58373e-05
-1.95028e-08
1.58406e-05
-2.56242e-08
1.58444e-05
-3.31078e-08
1.58486e-05
-4.22001e-08
1.58536e-05
-5.32522e-08
1.58592e-05
-6.6749e-08
1.58658e-05
-8.33348e-08
1.58735e-05
-1.03846e-07
1.58825e-05
-1.29344e-07
1.58931e-05
-1.61172e-07
1.59057e-05
-2.00998e-07
1.59209e-05
-2.51046e-07
1.59393e-05
-3.1387e-07
1.59618e-05
-3.94034e-07
-4.94317e-07
1.59916e-05
1.58112e-05
5.76005e-10
1.58117e-05
1.63812e-09
1.58126e-05
2.32666e-09
1.58136e-05
2.46577e-09
1.58148e-05
2.08024e-09
1.58161e-05
1.3197e-09
1.58176e-05
3.23523e-10
1.58191e-05
-8.26558e-10
1.58207e-05
-2.09523e-09
1.58225e-05
-3.49697e-09
1.58243e-05
-5.11243e-09
1.58262e-05
-7.08496e-09
1.58282e-05
-9.59205e-09
1.58304e-05
-1.2822e-08
1.58328e-05
-1.69541e-08
1.58355e-05
-2.21481e-08
1.58384e-05
-2.85689e-08
1.58417e-05
-3.64106e-08
1.58455e-05
-4.59282e-08
1.58497e-05
-5.74817e-08
1.58545e-05
-7.15694e-08
1.586e-05
-8.88548e-08
1.58664e-05
-1.10198e-07
1.58737e-05
-1.36688e-07
1.58823e-05
-1.69704e-07
1.58922e-05
-2.1097e-07
1.5904e-05
-2.62771e-07
1.5918e-05
-3.27901e-07
1.59347e-05
-4.10708e-07
-5.16367e-07
1.59567e-05
1.58111e-05
4.02793e-10
1.58116e-05
1.1291e-09
1.58124e-05
1.5401e-09
1.58134e-05
1.47924e-09
1.58146e-05
9.482e-10
1.58158e-05
6.3999e-11
1.58172e-05
-1.04458e-09
1.58186e-05
-2.29144e-09
1.58202e-05
-3.64215e-09
1.58218e-05
-5.11899e-09
1.58235e-05
-6.81076e-09
1.58253e-05
-8.86755e-09
1.58272e-05
-1.14751e-08
1.58292e-05
-1.48287e-08
1.58313e-05
-1.91133e-08
1.58337e-05
-2.44958e-08
1.58363e-05
-3.11441e-08
1.58391e-05
-3.92548e-08
1.58423e-05
-4.90874e-08
1.58458e-05
-6.10064e-08
1.58497e-05
-7.55158e-08
1.58542e-05
-9.32876e-08
1.58592e-05
-1.15191e-07
1.58648e-05
-1.42324e-07
1.58712e-05
-1.76075e-07
1.58784e-05
-2.18185e-07
1.58866e-05
-2.70947e-07
1.5896e-05
-3.37303e-07
1.59066e-05
-4.21319e-07
-5.30125e-07
1.59203e-05
1.58111e-05
2.42538e-10
1.58116e-05
6.57373e-10
1.58123e-05
8.03409e-10
1.58133e-05
5.42592e-10
1.58144e-05
-1.34456e-10
1.58156e-05
-1.13646e-09
1.58169e-05
-2.34743e-09
1.58182e-05
-3.68077e-09
1.58197e-05
-5.10227e-09
1.58212e-05
-6.64034e-09
1.58228e-05
-8.39138e-09
1.58245e-05
-1.05115e-08
1.58262e-05
-1.31922e-08
1.5828e-05
-1.66335e-08
1.58299e-05
-2.10244e-08
1.58319e-05
-2.65361e-08
1.58341e-05
-3.33381e-08
1.58365e-05
-4.1627e-08
1.58391e-05
-5.16629e-08
1.58419e-05
-6.38095e-08
1.58449e-05
-7.85697e-08
1.58483e-05
-9.66132e-08
1.58519e-05
-1.18804e-07
1.58558e-05
-1.46229e-07
1.586e-05
-1.80258e-07
1.58644e-05
-2.22608e-07
1.58689e-05
-2.75523e-07
1.58736e-05
-3.41987e-07
1.5878e-05
-4.25718e-07
-5.35247e-07
1.58832e-05
1.58111e-05
8.9614e-11
1.58116e-05
2.09294e-10
1.58123e-05
1.00983e-10
1.58132e-05
-3.55717e-10
1.58142e-05
-1.17565e-09
1.58154e-05
-2.28802e-09
1.58166e-05
-3.58997e-09
1.58179e-05
-4.99707e-09
1.58193e-05
-6.47609e-09
1.58207e-05
-8.06054e-09
1.58222e-05
-9.85313e-09
1.58237e-05
-1.20146e-08
1.58252e-05
-1.474e-08
1.58268e-05
-1.82322e-08
1.58285e-05
-2.26823e-08
1.58302e-05
-2.82635e-08
1.5832e-05
-3.51448e-08
1.58339e-05
-4.35206e-08
1.58359e-05
-5.36477e-08
1.5838e-05
-6.58845e-08
1.58401e-05
-8.07254e-08
1.58423e-05
-9.88277e-08
1.58446e-05
-1.21036e-07
1.58467e-05
-1.48407e-07
1.58488e-05
-1.82264e-07
1.58504e-05
-2.24258e-07
1.58514e-05
-2.76528e-07
1.58514e-05
-3.41984e-07
1.58496e-05
-4.23929e-07
-5.31655e-07
1.5846e-05
1.58111e-05
-6.0658e-11
1.58116e-05
-2.25773e-10
1.58122e-05
-5.8026e-10
1.58131e-05
-1.22777e-09
1.58141e-05
-2.18524e-09
1.58152e-05
-3.39832e-09
1.58164e-05
-4.77757e-09
1.58177e-05
-6.2435e-09
1.58189e-05
-7.7651e-09
1.58203e-05
-9.38002e-09
1.58216e-05
-1.11957e-08
1.5823e-05
-1.33759e-08
1.58243e-05
-1.6117e-08
1.58257e-05
-1.9623e-08
1.58271e-05
-2.40851e-08
1.58286e-05
-2.96761e-08
1.583e-05
-3.65626e-08
1.58314e-05
-4.49346e-08
1.58328e-05
-5.5042e-08
1.58341e-05
-6.72332e-08
1.58354e-05
-8.1988e-08
1.58365e-05
-9.99415e-08
1.58374e-05
-1.21905e-07
1.58379e-05
-1.48889e-07
1.58377e-05
-1.82142e-07
1.58367e-05
-2.23212e-07
1.58342e-05
-2.74072e-07
1.58297e-05
-3.37448e-07
1.58219e-05
-4.1616e-07
-5.19568e-07
1.58098e-05
1.58111e-05
-2.10433e-10
1.58115e-05
-6.57019e-10
1.58122e-05
-1.25508e-09
1.58131e-05
-2.08804e-09
1.58141e-05
-3.1736e-09
1.58151e-05
-4.47401e-09
1.58163e-05
-5.91508e-09
1.58175e-05
-7.42385e-09
1.58187e-05
-8.97181e-09
1.58199e-05
-1.06001e-08
1.58211e-05
-1.24197e-08
1.58223e-05
-1.45957e-08
1.58235e-05
-1.7324e-08
1.58247e-05
-2.08071e-08
1.58259e-05
-2.52344e-08
1.5827e-05
-3.07761e-08
1.5828e-05
-3.75946e-08
1.58289e-05
-4.58731e-08
1.58298e-05
-5.58522e-08
1.58304e-05
-6.78661e-08
1.58308e-05
-8.23737e-08
1.58308e-05
-9.99799e-08
1.58304e-05
-1.21452e-07
1.58292e-05
-1.47734e-07
1.5827e-05
-1.7998e-07
1.58234e-05
-2.19598e-07
1.58177e-05
-2.68344e-07
1.58089e-05
-3.28654e-07
1.57956e-05
-4.0281e-07
-4.99536e-07
1.57755e-05
1.58111e-05
-3.61263e-10
1.58116e-05
-1.09606e-09
1.58122e-05
-1.93908e-09
1.58131e-05
-2.94986e-09
1.58141e-05
-4.14978e-09
1.58151e-05
-5.5217e-09
1.58162e-05
-7.00826e-09
1.58173e-05
-8.54285e-09
1.58185e-05
-1.00996e-08
1.58196e-05
-1.17232e-08
1.58207e-05
-1.35272e-08
1.58218e-05
-1.56763e-08
1.58228e-05
-1.83635e-08
1.58238e-05
-2.17876e-08
1.58247e-05
-2.61341e-08
1.58255e-05
-3.15685e-08
1.58261e-05
-3.82474e-08
1.58266e-05
-4.63455e-08
1.58269e-05
-5.60914e-08
1.58268e-05
-6.78018e-08
1.58263e-05
-8.19094e-08
1.58253e-05
-9.89815e-08
1.58236e-05
-1.19731e-07
1.58209e-05
-1.45023e-07
1.58168e-05
-1.75896e-07
1.58108e-05
-2.1359e-07
1.58021e-05
-2.59605e-07
1.57894e-05
-3.15991e-07
1.5771e-05
-3.84455e-07
-4.72436e-07
1.57439e-05
1.58111e-05
-5.17397e-10
1.58116e-05
-1.55599e-09
1.58123e-05
-2.64689e-09
1.58132e-05
-3.82554e-09
1.58141e-05
-5.12295e-09
1.58152e-05
-6.54876e-09
1.58162e-05
-8.06349e-09
1.58173e-05
-9.60578e-09
1.58183e-05
-1.11527e-08
1.58194e-05
-1.27531e-08
1.58204e-05
-1.45221e-08
1.58213e-05
-1.66217e-08
1.58222e-05
-1.924e-08
1.5823e-05
-2.25697e-08
1.58236e-05
-2.67905e-08
1.58241e-05
-3.20614e-08
1.58244e-05
-3.85316e-08
1.58244e-05
-4.6366e-08
1.58241e-05
-5.5779e-08
1.58234e-05
-6.70666e-08
1.58221e-05
-8.06315e-08
1.58201e-05
-9.69971e-08
1.58172e-05
-1.16814e-07
1.5813e-05
-1.40858e-07
1.58072e-05
-1.70039e-07
1.5799e-05
-2.05406e-07
1.57876e-05
-2.48174e-07
1.57715e-05
-2.99942e-07
1.57489e-05
-3.6183e-07
-4.39442e-07
1.57159e-05
1.58111e-05
-6.85125e-10
1.58116e-05
-2.05011e-09
1.58124e-05
-3.39499e-09
1.58133e-05
-4.72852e-09
1.58143e-05
-6.10249e-09
1.58153e-05
-7.56285e-09
1.58163e-05
-9.08767e-09
1.58173e-05
-1.06185e-08
1.58183e-05
-1.21361e-08
1.58192e-05
-1.36944e-08
1.58201e-05
-1.54091e-08
1.58209e-05
-1.74371e-08
1.58217e-05
-1.99593e-08
1.58222e-05
-2.31604e-08
1.58227e-05
-2.72121e-08
1.58229e-05
-3.22658e-08
1.58228e-05
-3.84617e-08
1.58224e-05
-4.59534e-08
1.58216e-05
-5.49398e-08
1.58202e-05
-6.56938e-08
1.58181e-05
-7.85846e-08
1.58152e-05
-9.40877e-08
1.58112e-05
-1.12786e-07
1.58057e-05
-1.35359e-07
1.57982e-05
-1.62577e-07
1.57881e-05
-1.95291e-07
1.57744e-05
-2.34417e-07
1.57555e-05
-2.81062e-07
1.57294e-05
-3.3578e-07
-4.01965e-07
1.5692e-05
1.58112e-05
-8.71716e-10
1.58117e-05
-2.59587e-09
1.58125e-05
-4.20302e-09
1.58135e-05
-5.67266e-09
1.58144e-05
-7.09756e-09
1.58155e-05
-8.57201e-09
1.58165e-05
-1.00881e-08
1.58174e-05
-1.1587e-08
1.58183e-05
-1.30551e-08
1.58192e-05
-1.45525e-08
1.582e-05
-1.61939e-08
1.58207e-05
-1.8129e-08
1.58212e-05
-2.05288e-08
1.58217e-05
-2.35685e-08
1.58219e-05
-2.741e-08
1.58218e-05
-3.21956e-08
1.58214e-05
-3.80553e-08
1.58206e-05
-4.51304e-08
1.58192e-05
-5.36031e-08
1.58172e-05
-6.3722e-08
1.58145e-05
-7.58199e-08
1.58107e-05
-9.03219e-08
1.58057e-05
-1.0774e-07
1.5799e-05
-1.28654e-07
1.57901e-05
-1.53695e-07
1.57783e-05
-1.8351e-07
1.57626e-05
-2.18722e-07
1.57415e-05
-2.59945e-07
1.57129e-05
-3.07221e-07
-3.61543e-07
1.56725e-05
1.58112e-05
-1.08697e-09
1.58118e-05
-3.21734e-09
1.58127e-05
-5.09429e-09
1.58137e-05
-6.6716e-09
1.58147e-05
-8.11693e-09
1.58157e-05
-9.58491e-09
1.58167e-05
-1.10726e-08
1.58176e-05
-1.25174e-08
1.58185e-05
-1.39152e-08
1.58193e-05
-1.53334e-08
1.582e-05
-1.68834e-08
1.58205e-05
-1.87049e-08
1.5821e-05
-2.09577e-08
1.58212e-05
-2.38051e-08
1.58212e-05
-2.73979e-08
1.58209e-05
-3.18677e-08
1.58202e-05
-3.73336e-08
1.58189e-05
-4.3924e-08
1.58171e-05
-5.18036e-08
1.58146e-05
-6.11955e-08
1.58112e-05
-7.2395e-08
1.58066e-05
-8.57755e-08
1.58007e-05
-1.01778e-07
1.57929e-05
-1.20883e-07
1.57828e-05
-1.43583e-07
1.57696e-05
-1.70333e-07
1.57524e-05
-2.01485e-07
1.57296e-05
-2.37183e-07
1.56995e-05
-2.77061e-07
-3.19775e-07
1.56577e-05
1.58112e-05
-1.34527e-09
1.5812e-05
-3.94902e-09
1.5813e-05
-6.09651e-09
1.5814e-05
-7.73732e-09
1.58151e-05
-9.16873e-09
1.58161e-05
-1.0611e-08
1.58171e-05
-1.2049e-08
1.5818e-05
-1.34157e-08
1.58188e-05
-1.47222e-08
1.58195e-05
-1.60436e-08
1.58201e-05
-1.74845e-08
1.58206e-05
-1.91729e-08
1.58209e-05
-2.12556e-08
1.58209e-05
-2.38817e-08
1.58207e-05
-2.71898e-08
1.58202e-05
-3.13e-08
1.58191e-05
-3.63191e-08
1.58176e-05
-4.23625e-08
1.58154e-05
-4.95776e-08
1.58123e-05
-5.81612e-08
1.58083e-05
-6.83703e-08
1.58031e-05
-8.05275e-08
1.57963e-05
-9.50037e-08
1.57876e-05
-1.12184e-07
1.57764e-05
-1.32433e-07
1.57621e-05
-1.56027e-07
1.57437e-05
-1.83085e-07
1.57199e-05
-2.1334e-07
1.5689e-05
-2.46152e-07
-2.78089e-07
1.56473e-05
1.58113e-05
-1.6689e-09
1.58122e-05
-4.84121e-09
1.58133e-05
-7.24146e-09
1.58145e-05
-8.87889e-09
1.58156e-05
-1.0261e-08
1.58166e-05
-1.16599e-08
1.58176e-05
-1.30241e-08
1.58185e-05
-1.42878e-08
1.58192e-05
-1.54836e-08
1.58199e-05
-1.66917e-08
1.58204e-05
-1.80074e-08
1.58208e-05
-1.95442e-08
1.58209e-05
-2.1434e-08
1.58209e-05
-2.38138e-08
1.58205e-05
-2.68063e-08
1.58197e-05
-3.05157e-08
1.58184e-05
-3.50389e-08
1.58165e-05
-4.04795e-08
1.58139e-05
-4.69668e-08
1.58104e-05
-5.46709e-08
1.58059e-05
-6.38103e-08
1.58e-05
-7.46593e-08
1.57925e-05
-8.75238e-08
1.5783e-05
-1.02698e-07
1.5771e-05
-1.2043e-07
1.57559e-05
-1.40843e-07
1.57366e-05
-1.63867e-07
1.57122e-05
-1.88901e-07
1.56813e-05
-2.15213e-07
-2.37745e-07
1.56409e-05
1.58114e-05
-2.09559e-09
1.58125e-05
-5.96636e-09
1.58138e-05
-8.56011e-09
1.58151e-05
-1.0103e-08
1.58162e-05
-1.14067e-08
1.58173e-05
-1.27423e-08
1.58183e-05
-1.40011e-08
1.58191e-05
-1.51344e-08
1.58198e-05
-1.62014e-08
1.58204e-05
-1.72812e-08
1.58209e-05
-1.84569e-08
1.58212e-05
-1.98266e-08
1.58212e-05
-2.15059e-08
1.5821e-05
-2.36146e-08
1.58205e-05
-2.62602e-08
1.58195e-05
-2.95339e-08
1.5818e-05
-3.352e-08
1.58158e-05
-3.83085e-08
1.58129e-05
-4.40131e-08
1.5809e-05
-5.07775e-08
1.58039e-05
-5.87811e-08
1.57975e-05
-6.82548e-08
1.57894e-05
-7.9444e-08
1.57793e-05
-9.25596e-08
1.57666e-05
-1.0775e-07
1.57508e-05
-1.25008e-07
1.57311e-05
-1.44131e-07
1.57064e-05
-1.64258e-07
1.5676e-05
-1.84788e-07
-1.99564e-07
1.56378e-05
1.58116e-05
-2.69668e-09
1.5813e-05
-7.42922e-09
1.58145e-05
-1.0067e-08
1.58158e-05
-1.14109e-08
1.58171e-05
-1.26271e-08
1.58182e-05
-1.38761e-08
1.58192e-05
-1.49918e-08
1.582e-05
-1.59684e-08
1.58207e-05
-1.68889e-08
1.58213e-05
-1.78246e-08
1.58216e-05
-1.88452e-08
1.58218e-05
-2.00327e-08
1.58218e-05
-2.14848e-08
1.58215e-05
-2.3302e-08
1.58208e-05
-2.55754e-08
1.58197e-05
-2.83819e-08
1.5818e-05
-3.17934e-08
1.58155e-05
-3.58863e-08
1.58123e-05
-4.07609e-08
1.5808e-05
-4.65345e-08
1.58026e-05
-5.33465e-08
1.57957e-05
-6.13922e-08
1.57872e-05
-7.08632e-08
1.57765e-05
-8.18937e-08
1.57633e-05
-9.4552e-08
1.5747e-05
-1.08722e-07
1.5727e-05
-1.24128e-07
1.57024e-05
-1.39681e-07
1.56728e-05
-1.55206e-07
-1.63917e-07
1.56372e-05
1.58119e-05
-3.61361e-09
1.58138e-05
-9.38723e-09
1.58155e-05
-1.17443e-08
1.58169e-05
-1.2795e-08
1.58182e-05
-1.39255e-08
1.58194e-05
-1.50475e-08
1.58204e-05
-1.5982e-08
1.58212e-05
-1.67847e-08
1.58218e-05
-1.75476e-08
1.58223e-05
-1.83267e-08
1.58227e-05
-1.91819e-08
1.58228e-05
-2.01753e-08
1.58227e-05
-2.13862e-08
1.58223e-05
-2.28943e-08
1.58215e-05
-2.4773e-08
1.58202e-05
-2.70849e-08
1.58183e-05
-2.98904e-08
1.58157e-05
-3.32508e-08
1.58122e-05
-3.72587e-08
1.58076e-05
-4.2001e-08
1.58019e-05
-4.75772e-08
1.57946e-05
-5.41567e-08
1.57857e-05
-6.18821e-08
1.57746e-05
-7.08206e-08
1.5761e-05
-8.09811e-08
1.57444e-05
-9.21614e-08
1.57244e-05
-1.04054e-07
1.57e-05
-1.1534e-07
1.56715e-05
-1.26665e-07
-1.30075e-07
1.56377e-05
1.58125e-05
-5.11207e-09
1.58151e-05
-1.20342e-08
1.58169e-05
-1.35802e-08
1.58185e-05
-1.43324e-08
1.58199e-05
-1.53517e-08
1.58211e-05
-1.62644e-08
1.58221e-05
-1.6974e-08
1.58229e-05
-1.75884e-08
1.58236e-05
-1.81805e-08
1.5824e-05
-1.8787e-08
1.58243e-05
-1.94675e-08
1.58244e-05
-2.02587e-08
1.58242e-05
-2.12196e-08
1.58237e-05
-2.24067e-08
1.58228e-05
-2.38756e-08
1.58214e-05
-2.56714e-08
1.58194e-05
-2.78448e-08
1.58166e-05
-3.04392e-08
1.58129e-05
-3.35546e-08
1.58081e-05
-3.72291e-08
1.5802e-05
-4.15291e-08
1.57945e-05
-4.66232e-08
1.57852e-05
-5.25972e-08
1.57739e-05
-5.94588e-08
1.57601e-05
-6.71831e-08
1.57434e-05
-7.55128e-08
1.57235e-05
-8.41119e-08
1.56994e-05
-9.12538e-08
1.56721e-05
-9.94095e-08
-9.60052e-08
1.56381e-05
1.58136e-05
-7.71514e-09
1.58168e-05
-1.52879e-08
1.58187e-05
-1.54536e-08
1.58205e-05
-1.61165e-08
1.5822e-05
-1.69169e-08
1.58233e-05
-1.75247e-08
1.58243e-05
-1.79877e-08
1.58251e-05
-1.84021e-08
1.58258e-05
-1.88085e-08
1.58262e-05
-1.92342e-08
1.58265e-05
-1.97289e-08
1.58265e-05
-2.03101e-08
1.58263e-05
-2.10107e-08
1.58258e-05
-2.18621e-08
1.58248e-05
-2.29051e-08
1.58233e-05
-2.4166e-08
1.58211e-05
-2.56904e-08
1.58182e-05
-2.74844e-08
1.58143e-05
-2.96984e-08
1.58094e-05
-3.22959e-08
1.58031e-05
-3.52775e-08
1.57954e-05
-3.88552e-08
1.57858e-05
-4.30729e-08
1.57743e-05
-4.78765e-08
1.57603e-05
-5.32263e-08
1.57437e-05
-5.88932e-08
1.57241e-05
-6.44976e-08
1.57005e-05
-6.76795e-08
1.56741e-05
-7.29863e-08
-5.58605e-08
1.56339e-05
1.5817e-05
-1.37594e-08
1.58206e-05
-1.88486e-08
1.58228e-05
-1.76837e-08
1.58244e-05
-1.77532e-08
1.58258e-05
-1.82338e-08
1.58268e-05
-1.8569e-08
1.58276e-05
-1.87986e-08
1.58282e-05
-1.90093e-08
1.58286e-05
-1.92223e-08
1.58288e-05
-1.94458e-08
1.58288e-05
-1.97011e-08
1.58285e-05
-2.00005e-08
1.58279e-05
-2.03606e-08
1.58268e-05
-2.07981e-08
1.58252e-05
-2.13382e-08
1.58231e-05
-2.19927e-08
1.58202e-05
-2.27903e-08
1.58164e-05
-2.37206e-08
1.58116e-05
-2.48993e-08
1.58056e-05
-2.62714e-08
1.57981e-05
-2.78232e-08
1.5789e-05
-2.97197e-08
1.57779e-05
-3.19786e-08
1.57645e-05
-3.45452e-08
1.57487e-05
-3.74066e-08
1.57302e-05
-4.0382e-08
1.5709e-05
-4.32829e-08
1.56845e-05
-4.32225e-08
1.56538e-05
-4.22526e-08
8.46969e-09
1.55895e-05
1.57972e-05
1.57784e-05
1.57607e-05
1.57429e-05
1.57247e-05
1.57061e-05
1.56873e-05
1.56683e-05
1.56491e-05
1.56296e-05
1.56099e-05
1.55899e-05
1.55696e-05
1.55488e-05
1.55274e-05
1.55055e-05
1.54827e-05
1.54589e-05
1.5434e-05
1.54078e-05
1.53799e-05
1.53502e-05
1.53182e-05
1.52837e-05
1.52463e-05
1.52059e-05
1.51626e-05
1.51194e-05
1.50772e-05
1.50856e-05
1.54385e-05
-9.01672e-06
9.30788e-06
1.51017e-05
-9.09592e-06
9.43278e-06
1.47103e-05
-9.15088e-06
9.54224e-06
1.42746e-05
-9.1809e-06
9.61663e-06
1.38144e-05
-9.20675e-06
9.66692e-06
1.33429e-05
-9.23531e-06
9.70682e-06
1.28654e-05
-9.26624e-06
9.74379e-06
1.23844e-05
-9.29953e-06
9.78051e-06
1.19012e-05
-9.33534e-06
9.81856e-06
1.1416e-05
-9.37363e-06
9.85884e-06
1.09285e-05
-9.41414e-06
9.9016e-06
1.04385e-05
-9.45679e-06
9.94679e-06
9.94577e-06
-9.50179e-06
9.99452e-06
9.45023e-06
-9.54955e-06
1.00451e-05
8.95179e-06
-9.60058e-06
1.0099e-05
8.4503e-06
-9.65549e-06
1.0157e-05
7.94554e-06
-9.71506e-06
1.02198e-05
7.4372e-06
-9.78032e-06
1.02887e-05
6.92488e-06
-9.85264e-06
1.0365e-05
6.40802e-06
-9.9339e-06
1.04508e-05
5.8859e-06
-1.00267e-05
1.05488e-05
5.35719e-06
-1.0135e-05
1.06638e-05
4.82135e-06
-1.02638e-05
1.07997e-05
4.27263e-06
-1.04249e-05
1.09737e-05
3.71701e-06
-1.06209e-05
1.11765e-05
3.12357e-06
-1.09178e-05
1.15112e-05
2.53488e-06
-1.12317e-05
1.18204e-05
1.81926e-06
-1.20227e-05
1.27383e-05
1.09678e-06
-1.25285e-05
1.3251e-05
-1.56139e-05
1.67107e-05
1.57176e-05
-8.61079e-06
1.52647e-05
-8.64297e-06
1.47887e-05
-8.67487e-06
1.43074e-05
-8.69963e-06
1.38266e-05
-8.7259e-06
1.33462e-05
-8.75495e-06
1.28659e-05
-8.78595e-06
1.23855e-05
-8.8191e-06
1.19038e-05
-8.85372e-06
1.14201e-05
-8.88993e-06
1.09339e-05
-8.92793e-06
1.04451e-05
-8.96794e-06
9.95358e-06
-9.01028e-06
9.45936e-06
-9.05534e-06
8.96232e-06
-9.10354e-06
8.46226e-06
-9.15543e-06
7.95893e-06
-9.21173e-06
7.45199e-06
-9.27338e-06
6.94101e-06
-9.34165e-06
6.42539e-06
-9.41828e-06
5.90435e-06
-9.50568e-06
5.37666e-06
-9.60735e-06
4.84107e-06
-9.72825e-06
4.29361e-06
-9.87749e-06
3.73533e-06
-1.00626e-05
3.14523e-06
-1.03277e-05
2.54718e-06
-1.06337e-05
1.83773e-06
-1.13132e-05
1.10825e-06
-1.1799e-05
-1.45057e-05
1.5682e-05
-8.15447e-06
1.52158e-05
-8.17681e-06
1.47448e-05
-8.20384e-06
1.42747e-05
-8.22954e-06
1.38036e-05
-8.25477e-06
1.33308e-05
-8.28223e-06
1.28563e-05
-8.31136e-06
1.2379e-05
-8.34182e-06
1.1899e-05
-8.3737e-06
1.14163e-05
-8.40729e-06
1.09312e-05
-8.44281e-06
1.04437e-05
-8.4804e-06
9.95366e-06
-8.52028e-06
9.46106e-06
-8.56273e-06
8.96567e-06
-8.60815e-06
8.46728e-06
-8.65704e-06
7.96561e-06
-8.71006e-06
7.46032e-06
-8.76809e-06
6.95095e-06
-8.83229e-06
6.43689e-06
-8.90422e-06
5.91729e-06
-8.98608e-06
5.39095e-06
-9.08102e-06
4.85628e-06
-9.19357e-06
4.31012e-06
-9.33134e-06
3.75071e-06
-9.50324e-06
3.16317e-06
-9.74015e-06
2.55828e-06
-1.00288e-05
1.85353e-06
-1.06085e-05
1.11488e-06
-1.10604e-05
-1.33908e-05
1.5675e-05
-7.69286e-06
1.52109e-05
-7.71275e-06
1.47427e-05
-7.73566e-06
1.42722e-05
-7.75903e-06
1.38002e-05
-7.78278e-06
1.33261e-05
-7.80813e-06
1.285e-05
-7.83519e-06
1.23719e-05
-7.86372e-06
1.18919e-05
-7.89372e-06
1.141e-05
-7.92537e-06
1.0926e-05
-7.9588e-06
1.04397e-05
-7.99413e-06
9.95099e-06
-8.03158e-06
9.45969e-06
-8.07144e-06
8.96562e-06
-8.11408e-06
8.46855e-06
-8.15997e-06
7.9682e-06
-8.20972e-06
7.46421e-06
-8.2641e-06
6.95609e-06
-8.32417e-06
6.44319e-06
-8.39132e-06
5.92463e-06
-8.46752e-06
5.39917e-06
-8.55555e-06
4.86505e-06
-8.65945e-06
4.31939e-06
-8.78568e-06
3.75898e-06
-8.94283e-06
3.17247e-06
-9.15364e-06
2.56175e-06
-9.4181e-06
1.8607e-06
-9.90741e-06
1.11403e-06
-1.03137e-05
-1.22768e-05
1.56591e-05
-7.22858e-06
1.5193e-05
-7.24669e-06
1.47243e-05
-7.2669e-06
1.42538e-05
-7.28851e-06
1.37821e-05
-7.31113e-06
1.3309e-05
-7.33506e-06
1.28343e-05
-7.36042e-06
1.23577e-05
-7.38712e-06
1.18791e-05
-7.41518e-06
1.13985e-05
-7.44474e-06
1.09157e-05
-7.47595e-06
1.04305e-05
-7.50897e-06
9.9429e-06
-7.54399e-06
9.45275e-06
-7.58129e-06
8.95986e-06
-7.62119e-06
8.46399e-06
-7.6641e-06
7.96484e-06
-7.71056e-06
7.46201e-06
-7.76127e-06
6.95498e-06
-7.81714e-06
6.44309e-06
-7.87943e-06
5.92541e-06
-7.94983e-06
5.40064e-06
-8.03079e-06
4.86696e-06
-8.12576e-06
4.3215e-06
-8.24022e-06
3.76037e-06
-8.3817e-06
3.17406e-06
-8.56734e-06
2.55892e-06
-8.80296e-06
1.86049e-06
-9.20898e-06
1.1077e-06
-9.56093e-06
-1.11691e-05
1.56394e-05
-6.76348e-06
1.5173e-05
-6.78029e-06
1.47049e-05
-6.79878e-06
1.42353e-05
-6.81891e-06
1.37644e-05
-6.8402e-06
1.32919e-05
-6.86258e-06
1.28176e-05
-6.88615e-06
1.23415e-05
-6.91099e-06
1.18635e-05
-6.93714e-06
1.13834e-05
-6.96471e-06
1.09013e-05
-6.99384e-06
1.0417e-05
-7.02467e-06
9.9304e-06
-7.05736e-06
9.44125e-06
-7.09215e-06
8.94939e-06
-7.12932e-06
8.45453e-06
-7.16925e-06
7.95636e-06
-7.2124e-06
7.45447e-06
-7.25938e-06
6.94833e-06
-7.311e-06
6.43721e-06
-7.36832e-06
5.92017e-06
-7.43279e-06
5.39587e-06
-7.50648e-06
4.86239e-06
-7.59229e-06
4.31685e-06
-7.69468e-06
3.75502e-06
-7.81987e-06
3.16834e-06
-7.98066e-06
2.54977e-06
-8.18439e-06
1.85353e-06
-8.51273e-06
1.09622e-06
-8.80362e-06
-1.00728e-05
1.56159e-05
-6.29819e-06
1.51495e-05
-6.31386e-06
1.46816e-05
-6.33094e-06
1.42124e-05
-6.34966e-06
1.37417e-05
-6.36955e-06
1.32696e-05
-6.39042e-06
1.27958e-05
-6.41235e-06
1.23202e-05
-6.43545e-06
1.18429e-05
-6.4598e-06
1.13637e-05
-6.48548e-06
1.08824e-05
-6.51257e-06
1.0399e-05
-6.54122e-06
9.91318e-06
-6.57159e-06
9.42489e-06
-6.60386e-06
8.93388e-06
-6.6383e-06
8.43986e-06
-6.67523e-06
7.94251e-06
-6.71504e-06
7.44139e-06
-6.75826e-06
6.93594e-06
-6.80554e-06
6.42542e-06
-6.8578e-06
5.90883e-06
-6.91621e-06
5.3848e-06
-6.98245e-06
4.85136e-06
-7.05885e-06
4.30557e-06
-7.14888e-06
3.74305e-06
-7.25735e-06
3.15574e-06
-7.39335e-06
2.53466e-06
-7.56331e-06
1.84079e-06
-7.81887e-06
1.08038e-06
-8.04321e-06
-8.99246e-06
1.5589e-05
-5.83283e-06
1.51226e-05
-5.84749e-06
1.4655e-05
-5.86333e-06
1.4186e-05
-5.88072e-06
1.37157e-05
-5.89925e-06
1.3244e-05
-5.91865e-06
1.27706e-05
-5.939e-06
1.22956e-05
-5.96044e-06
1.18188e-05
-5.98302e-06
1.13402e-05
-6.00681e-06
1.08595e-05
-6.03191e-06
1.03767e-05
-6.05842e-06
9.89159e-06
-6.08648e-06
9.40399e-06
-6.11626e-06
8.91366e-06
-6.14798e-06
8.42033e-06
-6.1819e-06
7.92363e-06
-6.21834e-06
7.4231e-06
-6.25773e-06
6.91817e-06
-6.30061e-06
6.40806e-06
-6.34769e-06
5.89176e-06
-6.39991e-06
5.36784e-06
-6.45853e-06
4.83429e-06
-6.5253e-06
4.28813e-06
-6.60272e-06
3.72493e-06
-6.69415e-06
3.13693e-06
-6.80534e-06
2.51412e-06
-6.94051e-06
1.82286e-06
-7.12761e-06
1.0611e-06
-7.28146e-06
-7.93136e-06
1.55589e-05
-5.36749e-06
1.50926e-05
-5.38118e-06
1.46252e-05
-5.39589e-06
1.41565e-05
-5.41201e-06
1.36864e-05
-5.42919e-06
1.32149e-05
-5.44717e-06
1.27419e-05
-5.466e-06
1.22673e-05
-5.48581e-06
1.17909e-05
-5.50667e-06
1.13128e-05
-5.52863e-06
1.08326e-05
-5.55176e-06
1.03504e-05
-5.57616e-06
9.86581e-06
-5.60194e-06
9.37878e-06
-5.62923e-06
8.88902e-06
-5.65822e-06
8.39622e-06
-5.6891e-06
7.90001e-06
-5.72213e-06
7.39993e-06
-5.75765e-06
6.89536e-06
-5.79605e-06
6.38552e-06
-5.83785e-06
5.86936e-06
-5.88374e-06
5.34542e-06
-5.93459e-06
4.81166e-06
-5.99155e-06
4.26509e-06
-6.05615e-06
3.70126e-06
-6.13033e-06
3.11266e-06
-6.21674e-06
2.48887e-06
-6.31672e-06
1.80059e-06
-6.43932e-06
1.03939e-06
-6.52026e-06
-6.89197e-06
1.55262e-05
-4.90212e-06
1.50599e-05
-4.91491e-06
1.45926e-05
-4.92854e-06
1.4124e-05
-4.94345e-06
1.36542e-05
-4.95932e-06
1.31829e-05
-4.97591e-06
1.27102e-05
-4.99326e-06
1.22359e-05
-5.01149e-06
1.17599e-05
-5.03067e-06
1.12821e-05
-5.05082e-06
1.08023e-05
-5.07202e-06
1.03205e-05
-5.09432e-06
9.83636e-06
-5.11782e-06
9.34977e-06
-5.14263e-06
8.86042e-06
-5.16887e-06
8.36803e-06
-5.1967e-06
7.87218e-06
-5.22629e-06
7.37241e-06
-5.25787e-06
6.86808e-06
-5.29172e-06
6.35839e-06
-5.32816e-06
5.84225e-06
-5.36761e-06
5.3182e-06
-5.41054e-06
4.78418e-06
-5.45753e-06
4.2372e-06
-5.50917e-06
3.67285e-06
-5.56597e-06
3.08387e-06
-5.62776e-06
2.4598e-06