/*--------------------------------*- C++ -*----------------------------------*\
  =========                 |
  \\      /  F ield         | OpenFOAM: The Open Source CFD Toolbox
   \\    /   O peration     | Website:  https://openfoam.org
    \\  /    A nd           | Version:  11
     \\/     M anipulation  |
\*---------------------------------------------------------------------------*/
FoamFile
{
    format      ascii;
    class       surfaceScalarField;
    location    "10";
    object      phi;
}
// * * * * * * * * * * * * * * * * * * * * * * * * * * * * * * * * * * * * * //

dimensions      [0 3 -1 0 0 0 0];

internalField   nonuniform List<scalar> 
24840
(
1.92404e-05
7.77272e-09
1.92312e-05
9.12616e-09
1.92235e-05
7.70076e-09
1.92176e-05
5.91347e-09
1.92139e-05
3.70838e-09
1.92128e-05
1.09941e-09
1.92148e-05
-2.03185e-09
1.92205e-05
-5.67362e-09
1.92302e-05
-9.64665e-09
1.92442e-05
-1.40173e-08
1.92631e-05
-1.88964e-08
1.92873e-05
-2.42713e-08
1.93176e-05
-3.02405e-08
1.93545e-05
-3.69282e-08
1.9399e-05
-4.44855e-08
1.94521e-05
-5.30994e-08
1.95151e-05
-6.29966e-08
1.95895e-05
-7.44454e-08
1.96773e-05
-8.77569e-08
1.97806e-05
-1.03284e-07
1.9902e-05
-1.21421e-07
2.00446e-05
-1.42588e-07
2.02118e-05
-1.67189e-07
2.04075e-05
-1.95667e-07
2.0636e-05
-2.2856e-07
2.09019e-05
-2.65932e-07
2.12108e-05
-3.08858e-07
2.15625e-05
-3.51678e-07
2.19784e-05
-4.15957e-07
-3.92352e-07
2.23708e-05
1.92522e-05
3.72249e-09
1.92561e-05
5.21071e-09
1.92604e-05
3.36594e-09
1.92661e-05
2.369e-10
1.92736e-05
-3.79355e-09
1.92835e-05
-8.7911e-09
1.92964e-05
-1.49234e-08
1.93128e-05
-2.20638e-08
1.93332e-05
-3.00635e-08
1.9358e-05
-3.88521e-08
1.93877e-05
-4.85319e-08
1.94227e-05
-5.92525e-08
1.94635e-05
-7.11267e-08
1.95109e-05
-8.42967e-08
1.95654e-05
-9.89635e-08
1.96277e-05
-1.15424e-07
1.96988e-05
-1.341e-07
1.97799e-05
-1.55546e-07
1.98726e-05
-1.8042e-07
1.99788e-05
-2.09462e-07
2.01008e-05
-2.43475e-07
2.02415e-05
-2.83315e-07
2.04042e-05
-3.29877e-07
2.05926e-05
-3.84082e-07
2.0811e-05
-4.46894e-07
2.10639e-05
-5.18847e-07
2.13565e-05
-6.01481e-07
2.16936e-05
-6.88809e-07
2.20834e-05
-8.05739e-07
-8.30811e-07
2.25219e-05
1.92503e-05
1.58943e-09
1.92534e-05
2.05024e-09
1.92573e-05
-5.56974e-10
1.92628e-05
-5.18508e-09
1.92702e-05
-1.126e-08
1.92802e-05
-1.87287e-08
1.9293e-05
-2.77158e-08
1.93091e-05
-3.81487e-08
1.93289e-05
-4.99072e-08
1.9353e-05
-6.2934e-08
1.93817e-05
-7.72944e-08
1.94156e-05
-9.31245e-08
1.94551e-05
-1.10586e-07
1.95007e-05
-1.29899e-07
1.95531e-05
-1.51377e-07
1.96131e-05
-1.75469e-07
1.96818e-05
-2.02789e-07
1.97604e-05
-2.34122e-07
1.98504e-05
-2.70409e-07
1.99536e-05
-3.12721e-07
2.00724e-05
-3.6225e-07
2.02094e-05
-4.20298e-07
2.03678e-05
-4.88269e-07
2.05513e-05
-5.67628e-07
2.07644e-05
-6.59923e-07
2.10117e-05
-7.662e-07
2.1299e-05
-8.88801e-07
2.16319e-05
-1.02162e-06
2.20173e-05
-1.19114e-06
-1.2777e-06
2.24641e-05
1.92493e-05
3.95374e-10
1.92519e-05
-5.45942e-10
1.92556e-05
-4.19048e-09
1.92607e-05
-1.028e-08
1.92677e-05
-1.8335e-08
1.92772e-05
-2.82292e-08
1.92895e-05
-4.00175e-08
1.9305e-05
-5.36599e-08
1.93242e-05
-6.90589e-08
1.93474e-05
-8.61665e-08
1.93752e-05
-1.0503e-07
1.94078e-05
-1.2577e-07
1.94458e-05
-1.48575e-07
1.94896e-05
-1.73737e-07
1.95399e-05
-2.01694e-07
1.95975e-05
-2.33057e-07
1.96634e-05
-2.68633e-07
1.97387e-05
-3.09432e-07
1.98249e-05
-3.56655e-07
1.99239e-05
-4.11692e-07
2.00378e-05
-4.76117e-07
2.01692e-05
-5.51687e-07
2.03212e-05
-6.40335e-07
2.04977e-05
-7.44127e-07
2.07031e-05
-8.65275e-07
2.09424e-05
-1.00554e-06
2.12216e-05
-1.16801e-06
2.15476e-05
-1.34757e-06
2.19265e-05
-1.57004e-06
-1.72444e-06
2.23732e-05
1.92489e-05
-4.03461e-10
1.9251e-05
-2.5776e-09
1.92542e-05
-7.43052e-09
1.92589e-05
-1.49847e-08
1.92655e-05
-2.49624e-08
1.92745e-05
-3.72074e-08
1.92862e-05
-5.1705e-08
1.9301e-05
-6.84221e-08
1.93192e-05
-8.72854e-08
1.93413e-05
-1.08253e-07
1.93676e-05
-1.3136e-07
1.93986e-05
-1.56732e-07
1.94346e-05
-1.8459e-07
1.94761e-05
-2.15293e-07
1.95238e-05
-2.49378e-07
1.95784e-05
-2.87593e-07
1.96406e-05
-3.30921e-07
1.97118e-05
-3.80588e-07
1.97932e-05
-4.38061e-07
1.98866e-05
-5.0505e-07
1.9994e-05
-5.83512e-07
2.01179e-05
-6.75664e-07
2.02616e-05
-7.83984e-07
2.04286e-05
-9.11179e-07
2.06236e-05
-1.0602e-06
2.08517e-05
-1.23371e-06
2.11194e-05
-1.43565e-06
2.14343e-05
-1.66252e-06
2.18031e-05
-1.9388e-06
-2.16434e-06
2.2243e-05
1.92487e-05
-9.87261e-10
1.92504e-05
-4.22491e-09
1.92533e-05
-1.03236e-08
1.92576e-05
-1.93437e-08
1.92638e-05
-3.11494e-08
1.92722e-05
-4.56029e-08
1.92831e-05
-6.26529e-08
1.9297e-05
-8.22625e-08
1.93141e-05
-1.04374e-07
1.93348e-05
-1.28947e-07
1.93594e-05
-1.56014e-07
1.93884e-05
-1.85697e-07
1.9422e-05
-2.18246e-07
1.94608e-05
-2.54074e-07
1.95053e-05
-2.93812e-07
1.9556e-05
-3.38335e-07
1.96139e-05
-3.88795e-07
1.96799e-05
-4.4662e-07
1.97554e-05
-5.13528e-07
1.98419e-05
-5.91531e-07
1.99413e-05
-6.82958e-07
2.00561e-05
-7.90478e-07
2.01893e-05
-9.17125e-07
2.03444e-05
-1.06629e-06
2.05259e-05
-1.24175e-06
2.07394e-05
-1.44719e-06
2.09914e-05
-1.68765e-06
2.12906e-05
-1.96171e-06
2.16443e-05
-2.29254e-06
-2.59324e-06
2.20732e-05
1.92486e-05
-1.42254e-09
1.925e-05
-5.62579e-09
1.92525e-05
-1.28965e-08
1.92565e-05
-2.33126e-08
1.92622e-05
-3.68211e-08
1.92699e-05
-5.3318e-08
1.928e-05
-7.27353e-08
1.92927e-05
-9.5024e-08
1.93085e-05
-1.20128e-07
1.93276e-05
-1.48011e-07
1.93502e-05
-1.78695e-07
1.93769e-05
-2.12311e-07
1.94077e-05
-2.49129e-07
1.94433e-05
-2.89614e-07
1.94839e-05
-3.34472e-07
1.95303e-05
-3.84692e-07
1.95831e-05
-4.41569e-07
1.96432e-05
-5.06716e-07
1.97117e-05
-5.82083e-07
1.97902e-05
-6.69966e-07
1.98802e-05
-7.73046e-07
1.99842e-05
-8.94431e-07
2.01048e-05
-1.03771e-06
2.02455e-05
-1.20697e-06
2.04106e-05
-1.40689e-06
2.06057e-05
-1.64233e-06
2.08377e-05
-1.91958e-06
2.11158e-05
-2.23986e-06
2.14485e-05
-2.62523e-06
-3.0049e-06
2.18602e-05
1.92485e-05
-1.77505e-09
1.92497e-05
-6.82188e-09
1.92519e-05
-1.51571e-08
1.92555e-05
-2.68673e-08
1.92606e-05
-4.19396e-08
1.92676e-05
-6.02963e-08
1.92767e-05
-8.18634e-08
1.92883e-05
-1.0658e-07
1.93025e-05
-1.34387e-07
1.93198e-05
-1.65243e-07
1.93402e-05
-1.9917e-07
1.93642e-05
-2.36297e-07
1.9392e-05
-2.76913e-07
1.94239e-05
-3.2152e-07
1.94603e-05
-3.7089e-07
1.95017e-05
-4.26103e-07
1.95488e-05
-4.88582e-07
1.96021e-05
-5.60103e-07
1.96629e-05
-6.42817e-07
1.97322e-05
-7.39275e-07
1.98116e-05
-8.52478e-07
1.99031e-05
-9.85941e-07
2.00092e-05
-1.14378e-06
2.0133e-05
-1.33079e-06
2.02787e-05
-1.55255e-06
2.04516e-05
-1.81522e-06
2.06586e-05
-2.12657e-06
2.09096e-05
-2.49086e-06
2.12137e-05
-2.92938e-06
-3.39058e-06
2.15994e-05
1.92484e-05
-2.07012e-09
1.92494e-05
-7.83925e-09
1.92514e-05
-1.71203e-08
1.92545e-05
-2.99955e-08
1.92591e-05
-4.64687e-08
1.92652e-05
-6.64786e-08
1.92733e-05
-8.99507e-08
1.92836e-05
-1.16814e-07
1.92962e-05
-1.47e-07
1.93114e-05
-1.80463e-07
1.93294e-05
-2.17218e-07
1.93505e-05
-2.57393e-07
1.93749e-05
-3.01287e-07
1.94028e-05
-3.49431e-07
1.94346e-05
-4.02647e-07
1.94706e-05
-4.6209e-07
1.95113e-05
-5.29282e-07
1.95573e-05
-6.06131e-07
1.96094e-05
-6.94957e-07
1.96687e-05
-7.98525e-07
1.97363e-05
-9.20108e-07
1.9814e-05
-1.06358e-06
1.99037e-05
-1.23354e-06
2.00084e-05
-1.43543e-06
2.01316e-05
-1.67575e-06
2.02783e-05
-1.96197e-06
2.04552e-05
-2.30345e-06
2.06722e-05
-2.70787e-06
2.09389e-05
-3.1961e-06
-3.73875e-06
2.12871e-05
1.92484e-05
-2.31743e-09
1.92492e-05
-8.69723e-09
1.92509e-05
-1.87962e-08
1.92536e-05
-3.26868e-08
1.92575e-05
-5.03779e-08
1.92629e-05
-7.18165e-08
1.92698e-05
-9.69273e-08
1.92786e-05
-1.2563e-07
1.92895e-05
-1.57845e-07
1.93025e-05
-1.9352e-07
1.9318e-05
-2.32658e-07
1.9336e-05
-2.75385e-07
1.93567e-05
-3.22003e-07
1.93803e-05
-3.73061e-07
1.94071e-05
-4.29411e-07
1.94373e-05
-4.92263e-07
1.94712e-05
-5.63211e-07
1.95093e-05
-6.44262e-07
1.95522e-05
-7.37862e-07
1.96006e-05
-8.46938e-07
1.96555e-05
-9.74976e-07
1.97181e-05
-1.12614e-06
1.97899e-05
-1.30542e-06
1.98733e-05
-1.51883e-06
1.99713e-05
-1.7737e-06
2.00881e-05
-2.07874e-06
2.02296e-05
-2.44495e-06
2.04053e-05
-2.88356e-06
2.06245e-05
-3.41534e-06
-4.03517e-06
2.09209e-05
1.92483e-05
-2.52184e-09
1.9249e-05
-9.40782e-09
1.92504e-05
-2.01913e-08
1.92527e-05
-3.49346e-08
1.9256e-05
-5.36451e-08
1.92604e-05
-7.62718e-08
1.92662e-05
-1.02737e-07
1.92735e-05
-1.32951e-07
1.92825e-05
-1.66825e-07
1.92933e-05
-2.04292e-07
1.9306e-05
-2.45347e-07
1.93207e-05
-2.90104e-07
1.93376e-05
-3.38862e-07
1.93567e-05
-3.92177e-07
1.93782e-05
-4.50916e-07
1.94022e-05
-5.16319e-07
1.9429e-05
-5.90022e-07
1.94589e-05
-6.74092e-07
1.94921e-05
-7.71053e-07
1.95291e-05
-8.83932e-07
1.95704e-05
-1.01635e-06
1.9617e-05
-1.17267e-06
1.96697e-05
-1.35816e-06
1.97302e-05
-1.57928e-06
1.98005e-05
-1.844e-06
1.98838e-05
-2.1621e-06
1.99849e-05
-2.54607e-06
2.01119e-05
-3.01055e-06
2.0273e-05
-3.5764e-06
-4.2634e-06
2.05012e-05
1.92483e-05
-2.68636e-09
1.92489e-05
-9.97884e-09
1.925e-05
-2.13111e-08
1.92518e-05
-3.67358e-08
1.92544e-05
-5.62552e-08
1.92579e-05
-7.98166e-08
1.92625e-05
-1.07338e-07
1.92683e-05
-1.38721e-07
1.92754e-05
-1.73864e-07
1.92838e-05
-2.12688e-07
1.92936e-05
-2.55174e-07
1.93049e-05
-3.01421e-07
1.93178e-05
-3.5172e-07
1.93322e-05
-4.06617e-07
1.93483e-05
-4.66981e-07
1.9366e-05
-5.34055e-07
1.93855e-05
-6.09487e-07
1.94067e-05
-6.95362e-07
1.94299e-05
-7.94226e-07
1.94551e-05
-9.09141e-07
1.94825e-05
-1.04378e-06
1.95124e-05
-1.20256e-06
1.95452e-05
-1.39092e-06
1.95815e-05
-1.61554e-06
1.96223e-05
-1.88482e-06
1.96695e-05
-2.20928e-06
1.97259e-05
-2.60254e-06
1.97975e-05
-3.0821e-06
1.989e-05
-3.66892e-06
-4.40603e-06
2.00326e-05
1.92483e-05
-2.81334e-09
1.92487e-05
-1.04164e-08
1.92495e-05
-2.21612e-08
1.92509e-05
-3.80906e-08
1.92528e-05
-5.82007e-08
1.92555e-05
-8.24341e-08
1.92588e-05
-1.10703e-07
1.9263e-05
-1.42901e-07
1.92681e-05
-1.78915e-07
1.9274e-05
-2.18649e-07
1.92809e-05
-2.6207e-07
1.92888e-05
-3.09259e-07
1.92975e-05
-3.60489e-07
1.93072e-05
-4.16287e-07
1.93177e-05
-4.77507e-07
1.9329e-05
-5.45369e-07
1.9341e-05
-6.21502e-07
1.93537e-05
-7.07964e-07
1.93667e-05
-8.07268e-07
1.938e-05
-9.22434e-07
1.93933e-05
-1.05708e-06
1.94063e-05
-1.2156e-06
1.94188e-05
-1.40335e-06
1.94302e-05
-1.62704e-06
1.94406e-05
-1.89516e-06
1.94498e-05
-2.21853e-06
1.94586e-05
-2.61132e-06
1.94694e-05
-3.09292e-06
1.94846e-05
-3.68407e-06
-4.44673e-06
1.95253e-05
1.92482e-05
-2.90493e-09
1.92485e-05
-1.07264e-08
1.92491e-05
-2.2748e-08
1.925e-05
-3.90034e-08
1.92513e-05
-5.94812e-08
1.9253e-05
-8.41184e-08
1.92551e-05
-1.12821e-07
1.92577e-05
-1.45474e-07
1.92607e-05
-1.81953e-07
1.92642e-05
-2.22146e-07
1.92682e-05
-2.66003e-07
1.92725e-05
-3.13584e-07
1.92771e-05
-3.65137e-07
1.9282e-05
-4.21162e-07
1.9287e-05
-4.82476e-07
1.92919e-05
-5.50259e-07
1.92964e-05
-6.26085e-07
1.93004e-05
-7.11943e-07
1.93034e-05
-8.10258e-07
1.93049e-05
-9.2393e-07
1.93043e-05
-1.05643e-06
1.93006e-05
-1.21195e-06
1.92929e-05
-1.39563e-06
1.92798e-05
-1.61391e-06
1.92596e-05
-1.87499e-06
1.92305e-05
-2.18942e-06
1.91903e-05
-2.57117e-06
1.91376e-05
-3.04018e-06
1.90697e-05
-3.61617e-06
-4.37306e-06
1.8996e-05
1.92482e-05
-2.96347e-09
1.92484e-05
-1.09146e-08
1.92487e-05
-2.30799e-08
1.92492e-05
-3.94827e-08
1.92498e-05
-6.01039e-08
1.92506e-05
-8.48746e-08
1.92514e-05
-1.13695e-07
1.92524e-05
-1.46442e-07
1.92534e-05
-1.82979e-07
1.92545e-05
-2.23182e-07
1.92554e-05
-2.66979e-07
1.92563e-05
-3.1441e-07
1.92568e-05
-3.6569e-07
1.92569e-05
-4.21282e-07
1.92564e-05
-4.81954e-07
1.9255e-05
-5.48822e-07
1.92523e-05
-6.23378e-07
1.92478e-05
-7.075e-07
1.9241e-05
-8.03467e-07
1.92311e-05
-9.13992e-07
1.9217e-05
-1.04229e-06
1.91973e-05
-1.19224e-06
1.91702e-05
-1.36855e-06
1.91334e-05
-1.5771e-06
1.90838e-05
-1.8254e-06
1.90175e-05
-2.12314e-06
1.89295e-05
-2.48314e-06
1.88136e-05
-2.9243e-06
1.86616e-05
-3.46422e-06
-4.1796e-06
1.84682e-05
1.92482e-05
-2.99062e-09
1.92482e-05
-1.099e-08
1.92483e-05
-2.31688e-08
1.92484e-05
-3.95422e-08
1.92484e-05
-6.00835e-08
1.92482e-05
-8.47181e-08
1.92479e-05
-1.13341e-07
1.92472e-05
-1.45823e-07
1.92463e-05
-1.82018e-07
1.92449e-05
-2.21787e-07
1.92429e-05
-2.6504e-07
1.92403e-05
-3.11791e-07
1.92369e-05
-3.62222e-07
1.92323e-05
-4.16751e-07
1.92264e-05
-4.76082e-07
1.92189e-05
-5.4125e-07
1.92091e-05
-6.13637e-07
1.91966e-05
-6.94975e-07
1.91805e-05
-7.8735e-07
1.91597e-05
-8.9322e-07
1.91329e-05
-1.01547e-06
1.90982e-05
-1.1575e-06
1.90531e-05
-1.32344e-06
1.89943e-05
-1.51836e-06
1.89176e-05
-1.74866e-06
1.8817e-05
-2.02255e-06
1.86847e-05
-2.35083e-06
1.851e-05
-2.74962e-06
1.82789e-05
-3.23312e-06
-3.87069e-06
1.797e-05
1.92481e-05
-2.99164e-09
1.92481e-05
-1.09573e-08
1.9248e-05
-2.3026e-08
1.92476e-05
-3.92002e-08
1.9247e-05
-5.94428e-08
1.92459e-05
-8.36762e-08
1.92444e-05
-1.11793e-07
1.92422e-05
-1.43658e-07
1.92393e-05
-1.79118e-07
1.92356e-05
-2.18021e-07
1.92308e-05
-2.60261e-07
1.92248e-05
-3.05826e-07
1.92174e-05
-3.5486e-07
1.92084e-05
-4.0773e-07
1.91974e-05
-4.6507e-07
1.9184e-05
-5.27816e-07
1.91676e-05
-5.97218e-07
1.91474e-05
-6.74836e-07
1.91226e-05
-7.62523e-07
1.90918e-05
-8.62426e-07
1.90534e-05
-9.77016e-07
1.9005e-05
-1.10915e-06
1.89438e-05
-1.2622e-06
1.88656e-05
-1.44021e-06
1.87651e-05
-1.64813e-06
1.86348e-05
-1.89221e-06
1.84643e-05
-2.18038e-06
1.82392e-05
-2.52449e-06
1.79402e-05
-2.93411e-06
-3.46181e-06
1.75313e-05
1.92481e-05
-2.96622e-09
1.9248e-05
-1.08313e-08
1.92476e-05
-2.26721e-08
1.92469e-05
-3.84792e-08
1.92457e-05
-5.821e-08
1.92438e-05
-8.17841e-08
1.92411e-05
-1.09094e-07
1.92374e-05
-1.40001e-07
1.92327e-05
-1.74347e-07
1.92266e-05
-2.11971e-07
1.92191e-05
-2.5275e-07
1.92099e-05
-2.96648e-07
1.91988e-05
-3.43773e-07
1.91855e-05
-3.94435e-07
1.91697e-05
-4.49189e-07
1.91507e-05
-5.08866e-07
1.91281e-05
-5.74569e-07
1.91009e-05
-6.47661e-07
1.90681e-05
-7.29735e-07
1.90283e-05
-8.22592e-07
1.89795e-05
-9.28241e-07
1.89192e-05
-1.04892e-06
1.88442e-05
-1.18714e-06
1.87498e-05
-1.34578e-06
1.86297e-05
-1.52812e-06
1.84756e-05
-1.73805e-06
1.82753e-05
-1.98011e-06
1.80116e-05
-2.26078e-06
1.76616e-05
-2.58414e-06
-2.97892e-06
1.71788e-05
1.92481e-05
-2.92075e-09
1.92479e-05
-1.06218e-08
1.92473e-05
-2.21257e-08
1.92463e-05
-3.74087e-08
1.92445e-05
-5.64223e-08
1.92418e-05
-7.90878e-08
1.9238e-05
-1.053e-07
1.92329e-05
-1.34923e-07
1.92264e-05
-1.67793e-07
1.92181e-05
-2.03744e-07
1.9208e-05
-2.42641e-07
1.91958e-05
-2.84425e-07
1.91812e-05
-3.29168e-07
1.91639e-05
-3.77122e-07
1.91434e-05
-4.28763e-07
1.91194e-05
-4.84807e-07
1.9091e-05
-5.46203e-07
1.90575e-05
-6.14105e-07
1.90176e-05
-6.89833e-07
1.89698e-05
-7.74824e-07
1.89122e-05
-8.706e-07
1.8842e-05
-9.78747e-07
1.87557e-05
-1.10088e-06
1.86486e-05
-1.23863e-06
1.8514e-05
-1.39353e-06
1.83429e-05
-1.56696e-06
1.81226e-05
-1.75985e-06
1.78347e-05
-1.97281e-06
1.74548e-05
-2.20424e-06
-2.45556e-06
1.69314e-05
1.92481e-05
-2.85956e-09
1.92478e-05
-1.03446e-08
1.92471e-05
-2.14123e-08
1.92457e-05
-3.60228e-08
1.92434e-05
-5.4123e-08
1.92399e-05
-7.56415e-08
1.92351e-05
-1.00481e-07
1.92287e-05
-1.28509e-07
1.92205e-05
-1.59561e-07
1.92102e-05
-1.9347e-07
1.91977e-05
-2.30093e-07
1.91826e-05
-2.69351e-07
1.91647e-05
-3.11283e-07
1.91437e-05
-3.56085e-07
1.91191e-05
-4.04153e-07
1.90903e-05
-4.56088e-07
1.90568e-05
-5.12682e-07
1.90176e-05
-5.74882e-07
1.89715e-05
-6.43729e-07
1.8917e-05
-7.203e-07
1.8852e-05
-8.05637e-07
1.87739e-05
-9.00679e-07
1.86792e-05
-1.00617e-06
1.85631e-05
-1.12252e-06
1.84191e-05
-1.24956e-06
1.82384e-05
-1.38623e-06
1.80086e-05
-1.53003e-06
1.77116e-05
-1.67586e-06
1.73244e-05
-1.817e-06
-1.92817e-06
1.6797e-05
1.92481e-05
-2.78847e-09
1.92477e-05
-1.00189e-08
1.92469e-05
-2.05632e-08
1.92452e-05
-3.43618e-08
1.92425e-05
-5.13617e-08
1.92383e-05
-7.15072e-08
1.92326e-05
-9.47145e-08
1.92249e-05
-1.20856e-07
1.92151e-05
-1.49771e-07
1.92029e-05
-1.81296e-07
1.91881e-05
-2.15285e-07
1.91704e-05
-2.51644e-07
1.91495e-05
-2.90383e-07
1.91251e-05
-3.31646e-07
1.90967e-05
-3.75751e-07
1.90638e-05
-4.23188e-07
1.90257e-05
-4.74598e-07
1.89816e-05
-5.30726e-07
1.89302e-05
-5.92354e-07
1.88701e-05
-6.60214e-07
1.87994e-05
-7.34899e-07
1.87154e-05
-8.16755e-07
1.8615e-05
-9.05724e-07
1.84936e-05
-1.00112e-06
1.83453e-05
-1.10126e-06
1.8162e-05
-1.20295e-06
1.79327e-05
-1.30071e-06
1.76414e-05
-1.38458e-06
1.72682e-05
-1.44386e-06
-1.43111e-06
1.67712e-05
1.92481e-05
-2.71504e-09
1.92477e-05
-9.67e-09
1.92468e-05
-1.96173e-08
1.92449e-05
-3.24721e-08
1.92417e-05
-4.81934e-08
1.9237e-05
-6.67539e-08
1.92303e-05
-8.80873e-08
1.92215e-05
-1.12072e-07
1.92103e-05
-1.38557e-07
1.91964e-05
-1.67385e-07
1.91795e-05
-1.98413e-07
1.91594e-05
-2.3154e-07
1.91358e-05
-2.6675e-07
1.91083e-05
-3.04142e-07
1.90765e-05
-3.43962e-07
1.90399e-05
-3.86596e-07
1.89979e-05
-4.32546e-07
1.89495e-05
-4.82373e-07
1.88938e-05
-5.36621e-07
1.88293e-05
-5.95718e-07
1.87543e-05
-6.59863e-07
1.86664e-05
-7.28889e-07
1.85627e-05
-8.02066e-07
1.84394e-05
-8.77809e-07
1.82914e-05
-9.53219e-07
1.81118e-05
-1.0234e-06
1.78918e-05
-1.08068e-06
1.76187e-05
-1.11149e-06
1.72775e-05
-1.10265e-06
-9.91659e-07
1.6838e-05
1.92481e-05
-2.6494e-09
1.92477e-05
-9.33348e-09
1.92467e-05
-1.86242e-08
1.92447e-05
-3.04064e-08
1.92412e-05
-4.4678e-08
1.92359e-05
-6.14567e-08
1.92285e-05
-8.06939e-08
1.92187e-05
-1.02275e-07
1.92062e-05
-1.2606e-07
1.91907e-05
-1.51909e-07
1.9172e-05
-1.79686e-07
1.91497e-05
-2.09289e-07
1.91236e-05
-2.40681e-07
1.90934e-05
-2.73925e-07
1.90587e-05
-3.09201e-07
1.90189e-05
-3.46805e-07
1.89734e-05
-3.87113e-07
1.89216e-05
-4.30527e-07
1.88624e-05
-4.77389e-07
1.87945e-05
-5.27875e-07
1.87165e-05
-5.81861e-07
1.86264e-05
-6.38777e-07
1.85217e-05
-6.97385e-07
1.83994e-05
-7.55446e-07
1.82554e-05
-8.09216e-07
1.80846e-05
-8.52682e-07
1.78808e-05
-8.76818e-07
1.76353e-05
-8.65992e-07
1.73387e-05
-8.06056e-07
-6.27491e-07
1.69745e-05
1.92481e-05
-2.60576e-09
1.92478e-05
-9.06312e-09
1.92468e-05
-1.76472e-08
1.92447e-05
-2.82226e-08
1.92409e-05
-4.08811e-08
1.92351e-05
-5.56982e-08
1.9227e-05
-7.26359e-08
1.92164e-05
-9.15858e-08
1.92027e-05
-1.12429e-07
1.91859e-05
-1.35047e-07
1.91655e-05
-1.59318e-07
1.91413e-05
-1.85144e-07
1.91131e-05
-2.12476e-07
1.90806e-05
-2.41345e-07
1.90432e-05
-2.71879e-07
1.90007e-05
-3.04292e-07
1.89525e-05
-3.38856e-07
1.88978e-05
-3.75843e-07
1.88358e-05
-4.1544e-07
1.87656e-05
-4.57626e-07
1.86858e-05
-5.02037e-07
1.85948e-05
-5.47824e-07
1.84909e-05
-5.93429e-07
1.83716e-05
-6.36236e-07
1.82345e-05
-6.72061e-07
1.80762e-05
-6.94377e-07
1.78931e-05
-6.93695e-07
1.76809e-05
-6.53845e-07
1.74359e-05
-5.61084e-07
-3.467e-07
1.71552e-05
1.92481e-05
-2.61574e-09
1.9248e-05
-8.93619e-09
1.92471e-05
-1.6759e-08
1.92449e-05
-2.59846e-08
1.92409e-05
-3.68719e-08
1.92348e-05
-4.95678e-08
1.92261e-05
-6.40236e-08
1.92147e-05
-8.014e-08
1.92001e-05
-9.78281e-08
1.9182e-05
-1.16996e-07
1.91603e-05
-1.37541e-07
1.91345e-05
-1.59374e-07
1.91045e-05
-1.82442e-07
1.90699e-05
-2.06755e-07
1.90304e-05
-2.32396e-07
1.89856e-05
-2.59512e-07
1.8935e-05
-2.8829e-07
1.88781e-05
-3.18907e-07
1.88141e-05
-3.51442e-07
1.87422e-05
-3.85747e-07
1.86615e-05
-4.21297e-07
1.85708e-05
-4.5709e-07
1.84688e-05
-4.91442e-07
1.83542e-05
-5.2164e-07
1.82256e-05
-5.43462e-07
1.80816e-05
-5.50445e-07
1.79214e-05
-5.33456e-07
1.77447e-05
-4.77133e-07
1.75528e-05
-3.69219e-07
-1.48291e-07
1.73544e-05
1.92483e-05
-2.74969e-09
1.92484e-05
-9.10571e-09
1.92477e-05
-1.60289e-08
1.92455e-05
-2.37398e-08
1.92413e-05
-3.27236e-08
1.92349e-05
-4.31466e-08
1.92258e-05
-5.4948e-08
1.92137e-05
-6.80509e-08
1.91983e-05
-8.24014e-08
1.91792e-05
-9.79348e-08
1.91563e-05
-1.14571e-07
1.91291e-05
-1.32236e-07
1.90976e-05
-1.50882e-07
1.90613e-05
-1.70502e-07
1.90201e-05
-1.91143e-07
1.89735e-05
-2.129e-07
1.89211e-05
-2.35891e-07
1.88624e-05
-2.60233e-07
1.87969e-05
-2.85963e-07
1.8724e-05
-3.12862e-07
1.8643e-05
-3.40317e-07
1.85532e-05
-3.67287e-07
1.84539e-05
-3.92156e-07
1.83447e-05
-4.12382e-07
1.82253e-05
-4.24065e-07
1.80962e-05
-4.21305e-07
1.79587e-05
-3.96024e-07
1.78163e-05
-3.34686e-07
1.76743e-05
-2.27289e-07
-2.41972e-08
1.75503e-05
1.92485e-05
-3.14923e-09
1.92492e-05
-9.79974e-09
1.92488e-05
-1.55838e-08
1.92466e-05
-2.15787e-08
1.92424e-05
-2.85364e-08
1.92358e-05
-3.65518e-08
1.92264e-05
-4.55424e-08
1.92139e-05
-5.54732e-08
1.91978e-05
-6.63277e-08
1.91779e-05
-7.80682e-08
1.9154e-05
-9.06418e-08
1.91257e-05
-1.03997e-07
1.9093e-05
-1.18097e-07
1.90554e-05
-1.32927e-07
1.90127e-05
-1.48504e-07
1.89647e-05
-1.64875e-07
1.89109e-05
-1.82103e-07
1.8851e-05
-2.00283e-07
1.87845e-05
-2.19478e-07
1.87111e-05
-2.39475e-07
1.86304e-05
-2.59616e-07
1.8542e-05
-2.78907e-07
1.84458e-05
-2.95969e-07
1.83421e-05
-3.08671e-07
1.82318e-05
-3.13746e-07
1.81167e-05
-3.06211e-07
1.80003e-05
-2.79574e-07
1.78883e-05
-2.22683e-07
1.77897e-05
-1.28736e-07
3.84673e-08
1.7727e-05
1.92492e-05
-4.26324e-09
1.92505e-05
-1.10579e-08
1.92503e-05
-1.54243e-08
1.92484e-05
-1.95866e-08
1.92442e-05
-2.43958e-08
1.92375e-05
-2.98527e-08
1.92279e-05
-3.59058e-08
1.9215e-05
-4.25626e-08
1.91985e-05
-4.98247e-08
1.91781e-05
-5.76774e-08
1.91535e-05
-6.61007e-08
1.91246e-05
-7.50723e-08
1.90911e-05
-8.45687e-08
1.90527e-05
-9.45695e-08
1.90093e-05
-1.05068e-07
1.89605e-05
-1.16075e-07
1.8906e-05
-1.27624e-07
1.88456e-05
-1.39831e-07
1.87789e-05
-1.52828e-07
1.87059e-05
-1.66424e-07
1.86262e-05
-1.79934e-07
1.85398e-05
-1.92508e-07
1.8447e-05
-2.0316e-07
1.83486e-05
-2.10359e-07
1.82466e-05
-2.11689e-07
1.81437e-05
-2.03362e-07
1.80449e-05
-1.80747e-07
1.79572e-05
-1.34995e-07
1.78936e-05
-6.51556e-08
6.03773e-08
1.78717e-05
1.92521e-05
-8.27045e-09
1.92538e-05
-1.2767e-08
1.92529e-05
-1.44728e-08
1.92501e-05
-1.6808e-08
1.92453e-05
-1.95453e-08
1.92379e-05
-2.24863e-08
1.92277e-05
-2.56712e-08
1.92142e-05
-2.91309e-08
1.91973e-05
-3.28548e-08
1.91764e-05
-3.68262e-08
1.91514e-05
-4.10381e-08
1.91218e-05
-4.54943e-08
1.90874e-05
-5.02091e-08
1.90481e-05
-5.52105e-08
1.90035e-05
-6.05363e-08
1.89537e-05
-6.62243e-08
1.88983e-05
-7.22938e-08
1.88372e-05
-7.86932e-08
1.87697e-05
-8.52827e-08
1.86952e-05
-9.19354e-08
1.86138e-05
-9.85472e-08
1.8526e-05
-1.04766e-07
1.84328e-05
-1.09892e-07
1.83353e-05
-1.12879e-07
1.82359e-05
-1.12268e-07
1.81385e-05
-1.05961e-07
1.80489e-05
-9.1171e-08
1.79764e-05
-6.24742e-08
1.793e-05
-1.87616e-08
6.7088e-08
1.79233e-05
1.92399e-05
1.92271e-05
1.92126e-05
1.91958e-05
1.91763e-05
1.91538e-05
1.91281e-05
1.9099e-05
1.90661e-05
1.90293e-05
1.89883e-05
1.89428e-05
1.88926e-05
1.88373e-05
1.87768e-05
1.87106e-05
1.86383e-05
1.85596e-05
1.84743e-05
1.83824e-05
1.82838e-05
1.81791e-05
1.80692e-05
1.79563e-05
1.7844e-05
1.77381e-05
1.76469e-05
1.75844e-05
1.75657e-05
1.76328e-05
2.19102e-05
-1.03734e-05
1.0834e-05
2.14542e-05
-1.04924e-05
1.09484e-05
2.09746e-05
-1.06075e-05
1.10871e-05
2.04678e-05
-1.07137e-05
1.12205e-05
1.99384e-05
-1.0818e-05
1.13473e-05
1.93913e-05
-1.09236e-05
1.14707e-05
1.88299e-05
-1.10314e-05
1.15929e-05
1.82566e-05
-1.11422e-05
1.17155e-05
1.76731e-05
-1.12571e-05
1.18405e-05
1.70804e-05
-1.13769e-05
1.19696e-05
1.64786e-05
-1.15022e-05
1.2104e-05
1.58671e-05
-1.16333e-05
1.22448e-05
1.52453e-05
-1.17709e-05
1.23927e-05
1.46125e-05
-1.19158e-05
1.25486e-05
1.39679e-05
-1.20692e-05
1.27138e-05
1.33106e-05
-1.22326e-05
1.28899e-05
1.26393e-05
-1.24077e-05
1.30789e-05
1.19525e-05
-1.25965e-05
1.32833e-05
1.12479e-05
-1.28015e-05
1.3506e-05
1.05228e-05
-1.30256e-05
1.37507e-05
9.77348e-06
-1.32725e-05
1.40218e-05
8.99492e-06
-1.35466e-05
1.43251e-05
8.18053e-06
-1.38533e-05
1.46677e-05
7.32116e-06
-1.41998e-05
1.50592e-05
6.40387e-06
-1.45937e-05
1.5511e-05
5.41002e-06
-1.50464e-05
1.60403e-05
4.32179e-06
-1.55653e-05
1.66536e-05
3.06153e-06
-1.6178e-05
1.74382e-05
1.71249e-06
-1.67997e-05
1.81487e-05
-1.78384e-05
1.95509e-05
2.20472e-05
-9.89871e-06
2.15425e-05
-9.98767e-06
2.10141e-05
-1.00791e-05
2.04705e-05
-1.01702e-05
1.9916e-05
-1.02634e-05
1.93526e-05
-1.03602e-05
1.87817e-05
-1.04606e-05
1.82039e-05
-1.05644e-05
1.76189e-05
-1.06721e-05
1.70259e-05
-1.07839e-05
1.64239e-05
-1.09002e-05
1.58122e-05
-1.10216e-05
1.519e-05
-1.11487e-05
1.45568e-05
-1.12825e-05
1.39117e-05
-1.14241e-05
1.32537e-05
-1.15746e-05
1.25816e-05
-1.17355e-05
1.18936e-05
-1.19084e-05
1.11872e-05
-1.20952e-05
1.04597e-05
-1.22981e-05
9.70723e-06
-1.252e-05
8.92475e-06
-1.27641e-05
8.10569e-06
-1.30342e-05
7.24111e-06
-1.33353e-05
6.31885e-06
-1.36714e-05
5.32278e-06
-1.40504e-05
4.22968e-06
-1.44722e-05
3.00365e-06
-1.49519e-05
1.64751e-06
-1.54435e-05
-1.61909e-05
2.19518e-05
-9.38638e-06
2.14266e-05
-9.46247e-06
2.089e-05
-9.54249e-06
2.03462e-05
-9.62632e-06
1.97962e-05
-9.71341e-06
1.92393e-05
-9.80341e-06
1.86749e-05
-9.89616e-06
1.81023e-05
-9.99176e-06
1.75208e-05
-1.00906e-05
1.693e-05
-1.01931e-05
1.63294e-05
-1.02997e-05
1.57189e-05
-1.04111e-05
1.5098e-05
-1.05278e-05
1.44661e-05
-1.06506e-05
1.38223e-05
-1.07803e-05
1.31655e-05
-1.09179e-05
1.24943e-05
-1.10643e-05
1.18066e-05
-1.12207e-05
1.11001e-05
-1.13887e-05
1.03719e-05
-1.15699e-05
9.61812e-06
-1.17662e-05
8.83383e-06
-1.19798e-05
8.01257e-06
-1.2213e-05
7.14576e-06
-1.24684e-05
6.2221e-06
-1.27478e-05
5.22661e-06
-1.30549e-05
4.1383e-06
-1.33839e-05
2.93284e-06
-1.37465e-05
1.58311e-06
-1.40938e-05
-1.46078e-05
2.18532e-05
-8.86633e-06
2.1325e-05
-8.93427e-06
2.07883e-05
-9.00581e-06
2.02443e-05
-9.08236e-06
1.96932e-05
-9.16225e-06
1.91341e-05
-9.24435e-06
1.85667e-05
-9.32876e-06
1.79909e-05
-9.41592e-06
1.74065e-05
-9.50625e-06
1.68135e-05
-9.60009e-06
1.62116e-05
-9.69778e-06
1.56003e-05
-9.79973e-06
1.49789e-05
-9.9064e-06
1.43466e-05
-1.00183e-05
1.37023e-05
-1.0136e-05
1.30447e-05
-1.02603e-05
1.23723e-05
-1.03918e-05
1.16831e-05
-1.05316e-05
1.09749e-05
-1.06805e-05
1.02446e-05
-1.08396e-05
9.48845e-06
-1.10101e-05
8.70166e-06
-1.1193e-05
7.87807e-06
-1.13894e-05
7.00969e-06
-1.16001e-05
6.08628e-06
-1.18244e-05
5.09437e-06
-1.2063e-05
4.01653e-06
-1.23061e-05
2.83276e-06
-1.25627e-05
1.51004e-06
-1.27711e-05
-1.30978e-05
2.17167e-05
-8.34006e-06
2.11834e-05
-8.40099e-06
2.06426e-05
-8.46502e-06
2.00949e-05
-8.53459e-06
1.95402e-05
-8.60758e-06
1.89783e-05
-8.68245e-06
1.84089e-05
-8.75935e-06
1.78318e-05
-8.83886e-06
1.72468e-05
-8.92128e-06
1.66536e-05
-9.0068e-06
1.60514e-05
-9.09563e-06
1.54397e-05
-9.18806e-06
1.48178e-05
-9.28445e-06
1.41847e-05
-9.3852e-06
1.35394e-05
-9.49073e-06
1.28806e-05
-9.60153e-06
1.22069e-05
-9.71808e-06
1.15162e-05
-9.84093e-06
1.08063e-05
-9.97059e-06
1.00743e-05
-1.01076e-05
9.31647e-06
-1.02522e-05
8.52832e-06
-1.04049e-05
7.70415e-06
-1.05652e-05
6.8367e-06
-1.07326e-05
5.91693e-06
-1.09046e-05
4.93314e-06
-1.10792e-05
3.87119e-06
-1.12441e-05
2.71343e-06
-1.14049e-05
1.43179e-06
-1.14894e-05
-1.1666e-05
2.15421e-05
-7.80891e-06
2.10047e-05
-7.86361e-06
2.04606e-05
-7.92089e-06
1.99099e-05
-7.98397e-06
1.93528e-05
-8.05044e-06
1.87888e-05
-8.11846e-06
1.82176e-05
-8.18813e-06
1.76388e-05
-8.26009e-06
1.70522e-05
-8.33461e-06
1.64571e-05
-8.41177e-06
1.58532e-05
-8.4917e-06
1.52398e-05
-8.57461e-06
1.46161e-05
-8.66076e-06
1.39813e-05
-8.75038e-06
1.33343e-05
-8.84374e-06
1.26738e-05
-8.94107e-06
1.19983e-05
-9.04262e-06
1.1306e-05
-9.14858e-06
1.05945e-05
-9.2591e-06
9.86112e-06
-9.37416e-06
9.10242e-06
-9.49355e-06
8.31424e-06
-9.61669e-06
7.49145e-06
-9.74241e-06
6.62766e-06
-9.86882e-06
5.71515e-06
-9.99208e-06
4.74409e-06
-1.01081e-05
3.70327e-06
-1.02033e-05
2.57769e-06
-1.02794e-05
1.34701e-06
-1.02587e-05
-1.0319e-05
2.13245e-05
-7.27319e-06
2.07831e-05
-7.3222e-06
2.02354e-05
-7.37324e-06
1.96816e-05
-7.43014e-06
1.91214e-05
-7.49031e-06
1.85547e-05
-7.55169e-06
1.79809e-05
-7.61435e-06
1.73997e-05
-7.67894e-06
1.68108e-05
-7.74571e-06
1.62137e-05
-7.81466e-06
1.56078e-05
-7.88583e-06
1.49926e-05
-7.95933e-06
1.43671e-05
-8.03531e-06
1.37306e-05
-8.11388e-06
1.3082e-05
-8.19511e-06
1.242e-05
-8.27906e-06
1.17431e-05
-8.36575e-06
1.10496e-05
-8.45509e-06
1.03374e-05
-8.54685e-06
9.60381e-06
-8.64061e-06
8.84588e-06
-8.73561e-06
8.05984e-06
-8.83066e-06
7.24124e-06
-8.92381e-06
6.38466e-06
-9.01224e-06
5.48371e-06
-9.09113e-06
4.5305e-06
-9.15492e-06
3.51658e-06
-9.18936e-06
2.43e-06
-9.19279e-06
1.25879e-06
-9.08753e-06
-9.0602e-06
2.10593e-05
-6.73308e-06
2.05139e-05
-6.77684e-06
1.99627e-05
-6.82206e-06
1.94056e-05
-6.87304e-06
1.88425e-05
-6.92712e-06
1.82728e-05
-6.98207e-06
1.76964e-05
-7.03793e-06
1.71128e-05
-7.09534e-06
1.65216e-05
-7.15452e-06
1.59224e-05
-7.2154e-06
1.53145e-05
-7.27793e-06
1.46973e-05
-7.34215e-06
1.40701e-05
-7.4081e-06
1.3432e-05
-7.47577e-06
1.2782e-05
-7.5451e-06
1.21189e-05
-7.61598e-06
1.14414e-05
-7.68821e-06
1.07477e-05
-7.76146e-06
1.00361e-05
-7.8352e-06
9.30414e-06
-7.90866e-06
8.54919e-06
-7.98067e-06
7.76806e-06
-8.04953e-06
6.957e-06
-8.11275e-06
6.11162e-06
-8.16685e-06
5.22691e-06
-8.20642e-06
4.29687e-06
-8.22488e-06
3.31564e-06
-8.20812e-06
2.27455e-06
-8.15171e-06
1.16918e-06
-7.98215e-06
-7.89102e-06
2.07427e-05
-6.18872e-06
2.01935e-05
-6.22764e-06
1.96389e-05
-6.26745e-06
1.90786e-05
-6.31275e-06
1.85124e-05
-6.36091e-06
1.794e-05
-6.40964e-06
1.7361e-05
-6.4589e-06
1.6775e-05
-6.50934e-06
1.61816e-05
-6.56113e-06
1.55803e-05
-6.61414e-06
1.49706e-05
-6.66826e-06
1.4352e-05
-6.72346e-06
1.37235e-05
-6.77967e-06
1.30846e-05
-6.8368e-06
1.24341e-05
-6.89466e-06
1.17711e-05
-6.95299e-06
1.10943e-05
-7.01141e-06
1.04023e-05
-7.0694e-06
9.69324e-06
-7.12619e-06
8.96531e-06
-7.18073e-06
8.2162e-06
-7.23156e-06
7.44331e-06
-7.27664e-06
6.64366e-06
-7.3131e-06
5.81388e-06
-7.33708e-06
4.95031e-06
-7.34285e-06
4.04877e-06
-7.32334e-06
3.10572e-06
-7.26508e-06
2.11564e-06
-7.16163e-06
1.0801e-06
-6.94661e-06
-6.81093e-06
2.03726e-05
-5.64042e-06
1.98199e-05
-5.67489e-06
1.92621e-05
-5.70972e-06
1.8699e-05
-5.74959e-06
1.81301e-05
-5.79203e-06
1.75552e-05
-5.83474e-06
1.6974e-05
-5.87768e-06
1.6386e-05
-5.92142e-06
1.5791e-05
-5.9661e-06
1.51884e-05
-6.01156e-06
1.45778e-05
-6.05761e-06
1.39585e-05
-6.10417e-06
1.33299e-05
-6.1511e-06
1.26913e-05
-6.19821e-06
1.20419e-05
-6.24522e-06
1.13806e-05
-6.29173e-06
1.07065e-05
-6.33726e-06
1.00182e-05
-6.38111e-06
9.31432e-06
-6.42234e-06
8.59332e-06
-6.45973e-06