/*--------------------------------*- C++ -*----------------------------------*\
  =========                 |
  \\      /  F ield         | OpenFOAM: The Open Source CFD Toolbox
   \\    /   O peration     | Website:  https://openfoam.org
    \\  /    A nd           | Version:  11
     \\/     M anipulation  |
\*---------------------------------------------------------------------------*/
FoamFile
{
    format      ascii;
    class       volVectorField;
    location    "10";
    object      U;
}
// * * * * * * * * * * * * * * * * * * * * * * * * * * * * * * * * * * * * * //

dimensions      [0 1 -1 0 0 0 0];

internalField   nonuniform List<vector> 
12600
(
(0.412278 5.49558e-05 0)
(0.412174 0.000115654 0)
(0.412024 0.00011349 0)
(0.411869 0.000102642 0)
(0.411755 8.90004e-05 0)
(0.411699 7.14154e-05 0)
(0.411707 4.45542e-05 0)
(0.411788 9.31083e-06 0)
(0.411951 -2.28205e-05 0)
(0.412202 -5.23877e-05 0)
(0.412553 -8.70064e-05 0)
(0.413012 -0.000126589 0)
(0.413593 -0.000171539 0)
(0.414309 -0.000222995 0)
(0.415177 -0.000282582 0)
(0.416217 -0.00035227 0)
(0.417455 -0.000434145 0)
(0.41892 -0.000530297 0)
(0.420648 -0.000642893 0)
(0.422684 -0.000774388 0)
(0.425078 -0.000927701 0)
(0.427892 -0.00110621 0)
(0.431195 -0.00131327 0)
(0.435063 -0.00155205 0)
(0.439586 -0.0018281 0)
(0.444862 -0.00213978 0)
(0.450997 -0.00250407 0)
(0.458066 -0.00283801 0)
(0.466189 -0.00347227 0)
(0.476687 -0.00288047 0)
(0.412478 0.000114554 0)
(0.412569 0.000140494 0)
(0.412675 0.000116421 0)
(0.412785 7.63775e-05 0)
(0.412916 2.74772e-05 0)
(0.413097 -3.55423e-05 0)
(0.413339 -0.000110477 0)
(0.41365 -0.000195139 0)
(0.414043 -0.000290661 0)
(0.414527 -0.000398134 0)
(0.415107 -0.000517045 0)
(0.415797 -0.000647875 0)
(0.416607 -0.000792391 0)
(0.41755 -0.000953057 0)
(0.418639 -0.00113297 0)
(0.419887 -0.00133612 0)
(0.421311 -0.00156773 0)
(0.422936 -0.00183435 0)
(0.42479 -0.00214378 0)
(0.42691 -0.00250488 0)
(0.429344 -0.00292733 0)
(0.432146 -0.00342146 0)
(0.435381 -0.00399754 0)
(0.439124 -0.00466628 0)
(0.443462 -0.00543932 0)
(0.448488 -0.00632133 0)
(0.454307 -0.00733378 0)
(0.461039 -0.00837486 0)
(0.468765 -0.00985802 0)
(0.477776 -0.00972367 0)
(0.412474 3.28029e-05 0)
(0.412525 4.63743e-05 0)
(0.412607 7.53935e-06 0)
(0.41271 -5.91927e-05 0)
(0.412844 -0.000140837 0)
(0.413026 -0.000240324 0)
(0.413267 -0.000360793 0)
(0.413575 -0.000502019 0)
(0.413958 -0.000661385 0)
(0.414426 -0.000836716 0)
(0.41499 -0.00102939 0)
(0.41566 -0.00124252 0)
(0.416443 -0.00147859 0)
(0.417352 -0.0017401 0)
(0.418399 -0.00203053 0)
(0.419599 -0.00235536 0)
(0.420974 -0.00272285 0)
(0.422545 -0.00314402 0)
(0.424344 -0.00363214 0)
(0.426405 -0.00420209 0)
(0.428773 -0.00486996 0)
(0.4315 -0.00565298 0)
(0.434649 -0.00656933 0)
(0.438295 -0.00763792 0)
(0.442521 -0.00887848 0)
(0.447436 -0.0103032 0)
(0.45312 -0.0119424 0)
(0.459799 -0.0136993 0)
(0.467284 -0.0159785 0)
(0.476879 -0.0168734 0)
(0.412468 1.51112e-05 0)
(0.412503 1.20592e-05 0)
(0.41257 -3.58382e-05 0)
(0.412666 -0.00011912 0)
(0.412794 -0.000230111 0)
(0.412969 -0.000367943 0)
(0.4132 -0.000533659 0)
(0.413496 -0.000726112 0)
(0.413865 -0.000943314 0)
(0.414317 -0.00118447 0)
(0.414861 -0.00145052 0)
(0.415506 -0.0017433 0)
(0.416261 -0.00206547 0)
(0.417135 -0.00242131 0)
(0.418141 -0.00281724 0)
(0.419293 -0.00326213 0)
(0.420611 -0.00376748 0)
(0.422117 -0.00434748 0)
(0.423841 -0.00501903 0)
(0.425817 -0.00580159 0)
(0.428086 -0.00671717 0)
(0.430701 -0.00779024 0)
(0.433723 -0.00904756 0)
(0.437226 -0.0105174 0)
(0.441294 -0.0122299 0)
(0.44604 -0.0142068 0)
(0.451547 -0.016492 0)
(0.458072 -0.0189921 0)
(0.465384 -0.0221292 0)
(0.475012 -0.024047 0)
(0.412466 1.62024e-07 0)
(0.412491 -2.75451e-05 0)
(0.412546 -9.56848e-05 0)
(0.412631 -0.000204644 0)
(0.412752 -0.000349942 0)
(0.412917 -0.000528701 0)
(0.413136 -0.000740488 0)
(0.413417 -0.000984656 0)
(0.413769 -0.00126005 0)
(0.414199 -0.00156607 0)
(0.414716 -0.00190343 0)
(0.415328 -0.00227413 0)
(0.416043 -0.00268148 0)
(0.416872 -0.00313065 0)
(0.417826 -0.00362926 0)
(0.418917 -0.00418804 0)
(0.420164 -0.00482128 0)
(0.421589 -0.00554695 0)
(0.423216 -0.00638658 0)
(0.42508 -0.00736517 0)
(0.427221 -0.00851112 0)
(0.429688 -0.00985629 0)
(0.43254 -0.011436 0)
(0.435852 -0.0132882 0)
(0.439707 -0.015454 0)
(0.444223 -0.0179682 0)
(0.449481 -0.0208867 0)
(0.455771 -0.0241388 0)
(0.46282 -0.0281266 0)
(0.472385 -0.0311545 0)
(0.412465 -1.14904e-05 0)
(0.412484 -5.47681e-05 0)
(0.41253 -0.000143145 0)
(0.412607 -0.000276086 0)
(0.41272 -0.000450489 0)
(0.412874 -0.000664211 0)
(0.413079 -0.000916722 0)
(0.413343 -0.00120754 0)
(0.413673 -0.00153572 0)
(0.414076 -0.00190064 0)
(0.41456 -0.00230273 0)
(0.415133 -0.00274391 0)
(0.415802 -0.00322792 0)
(0.416576 -0.00376102 0)
(0.417465 -0.00435268 0)
(0.418481 -0.00501611 0)
(0.419641 -0.00576848 0)
(0.420963 -0.0066311 0)
(0.422473 -0.00762945 0)
(0.424201 -0.00879328 0)
(0.426183 -0.0101569 0)
(0.428468 -0.0117594 0)
(0.43111 -0.013645 0)
(0.434182 -0.0158624 0)
(0.437766 -0.0184654 0)
(0.441981 -0.0215044 0)
(0.44691 -0.0250508 0)
(0.452873 -0.0290638 0)
(0.459555 -0.0339246 0)
(0.46895 -0.0381268 0)
(0.412463 -1.89376e-05 0)
(0.412479 -7.92879e-05 0)
(0.412519 -0.000186947 0)
(0.412588 -0.000342714 0)
(0.412691 -0.000545553 0)
(0.412833 -0.000793818 0)
(0.413022 -0.00108648 0)
(0.413264 -0.00142275 0)
(0.413569 -0.0018017 0)
(0.41394 -0.00222274 0)
(0.414386 -0.0026863 0)
(0.414913 -0.00319445 0)
(0.415527 -0.00375138 0)
(0.416237 -0.00436414 0)
(0.417051 -0.00504342 0)
(0.417981 -0.00580413 0)
(0.419039 -0.00666582 0)
(0.420244 -0.00765291 0)
(0.421617 -0.00879482 0)
(0.423185 -0.0101262 0)
(0.424982 -0.0116872 0)
(0.42705 -0.0135242 0)
(0.429443 -0.0156904 0)
(0.432227 -0.0182456 0)
(0.435481 -0.0212572 0)
(0.439326 -0.0247936 0)
(0.44384 -0.0289449 0)
(0.449371 -0.033708 0)
(0.455567 -0.039445 0)
(0.464651 -0.0448824 0)
(0.412463 -2.52789e-05 0)
(0.412476 -9.99394e-05 0)
(0.41251 -0.000225347 0)
(0.412571 -0.000402863 0)
(0.412664 -0.000632094 0)
(0.412792 -0.000911668 0)
(0.412963 -0.00124042 0)
(0.413183 -0.00161744 0)
(0.413458 -0.0020418 0)
(0.413795 -0.00251292 0)
(0.414197 -0.00303117 0)
(0.414672 -0.0035986 0)
(0.415226 -0.00421969 0)
(0.415864 -0.00490219 0)
(0.416594 -0.00565799 0)
(0.417425 -0.00650376 0)
(0.41837 -0.00746135 0)
(0.419442 -0.00855799 0)
(0.42066 -0.0098266 0)
(0.422047 -0.0113061 0)
(0.423633 -0.013042 0)
(0.425456 -0.0150875 0)
(0.427561 -0.0175045 0)
(0.430011 -0.020364 0)
(0.432877 -0.0237483 0)
(0.436277 -0.0277457 0)
(0.440283 -0.0324683 0)
(0.445265 -0.0379588 0)
(0.450835 -0.0445645 0)
(0.459414 -0.0512939 0)
(0.412462 -3.04969e-05 0)
(0.412473 -0.00011753 0)
(0.412503 -0.000259038 0)
(0.412556 -0.000456331 0)
(0.412638 -0.000709357 0)
(0.412751 -0.00101708 0)
(0.412903 -0.00137835 0)
(0.413098 -0.0017921 0)
(0.413342 -0.0022573 0)
(0.413639 -0.00277328 0)
(0.413994 -0.00334033 0)
(0.414413 -0.00396053 0)
(0.414899 -0.00463862 0)
(0.415458 -0.0053829 0)
(0.416095 -0.00620616 0)
(0.416819 -0.00712636 0)
(0.417638 -0.0081671 0)
(0.418565 -0.00935797 0)
(0.419613 -0.0107348 0)
(0.420801 -0.0123404 0)
(0.422155 -0.0142251 0)
(0.423704 -0.0164482 0)
(0.425488 -0.0190797 0)
(0.42756 -0.0222019 0)
(0.429982 -0.0259116 0)
(0.432865 -0.0303181 0)
(0.436269 -0.0355585 0)
(0.440571 -0.041728 0)
(0.445358 -0.0491642 0)
(0.453187 -0.0572092 0)
(0.412462 -3.48523e-05 0)
(0.412471 -0.000132482 0)
(0.412496 -0.000288091 0)
(0.412542 -0.000502868 0)
(0.412612 -0.000776922 0)
(0.41271 -0.00110939 0)
(0.412841 -0.0014991 0)
(0.413009 -0.00194483 0)
(0.413219 -0.0024454 0)
(0.413474 -0.00300002 0)
(0.413779 -0.00360885 0)
(0.414136 -0.00427393 0)
(0.41455 -0.00500009 0)
(0.415024 -0.00579599 0)
(0.415563 -0.00667507 0)
(0.416172 -0.00765632 0)
(0.416857 -0.00876479 0)
(0.417627 -0.0100319 0)
(0.418492 -0.011496 0)
(0.419467 -0.0132028 0)
(0.420569 -0.0152065 0)
(0.421822 -0.0175718 0)
(0.423255 -0.0203758 0)
(0.424911 -0.0237105 0)
(0.426839 -0.0276871 0)
(0.429134 -0.0324354 0)
(0.431842 -0.0381192 0)
(0.435329 -0.0448902 0)
(0.439164 -0.0530819 0)
(0.445943 -0.062413 0)
(0.412462 -3.84739e-05 0)
(0.412469 -0.000145004 0)
(0.41249 -0.000312621 0)
(0.412528 -0.000542371 0)
(0.412587 -0.000834383 0)
(0.412669 -0.00118785 0)
(0.412778 -0.00160156 0)
(0.412918 -0.00207417 0)
(0.413092 -0.00260432 0)
(0.413303 -0.00319104 0)
(0.413554 -0.00383436 0)
(0.413847 -0.00453618 0)
(0.414184 -0.00530135 0)
(0.414569 -0.00613873 0)
(0.415004 -0.00706216 0)
(0.415491 -0.00809128 0)
(0.416035 -0.00925206 0)
(0.416641 -0.0105772 0)
(0.417314 -0.0121067 0)
(0.418064 -0.0138883 0)
(0.418901 -0.0159791 0)
(0.41984 -0.0184478 0)
(0.420899 -0.0213768 0)
(0.422108 -0.0248665 0)
(0.423498 -0.0290401 0)
(0.425144 -0.0340463 0)
(0.427071 -0.0400742 0)
(0.429608 -0.0473324 0)
(0.43232 -0.0561547 0)
(0.437707 -0.0666611 0)
(0.412461 -4.14301e-05 0)
(0.412467 -0.00015524 0)
(0.412484 -0.000332715 0)
(0.412515 -0.000574753 0)
(0.412562 -0.00088143 0)
(0.412627 -0.00125193 0)
(0.412714 -0.00168497 0)
(0.412824 -0.00217908 0)
(0.412961 -0.00273271 0)
(0.413126 -0.00334469 0)
(0.413321 -0.00401484 0)
(0.413547 -0.00474489 0)
(0.413806 -0.00553957 0)
(0.414098 -0.00640772 0)
(0.414425 -0.0073633 0)
(0.414787 -0.00842623 0)
(0.415185 -0.00962291 0)
(0.415621 -0.0109867 0)
(0.416097 -0.0125583 0)
(0.416614 -0.0143867 0)
(0.417178 -0.0165304 0)
(0.417791 -0.0190603 0)
(0.418462 -0.0220624 0)
(0.419201 -0.0256424 0)
(0.420022 -0.0299324 0)
(0.420971 -0.0350961 0)
(0.422045 -0.0413439 0)
(0.42351 -0.0489358 0)
(0.424944 -0.0582072 0)
(0.428583 -0.0696742 0)
(0.412461 -4.37665e-05 0)
(0.412466 -0.000163297 0)
(0.412478 -0.000348453 0)
(0.412502 -0.000599986 0)
(0.412537 -0.000917882 0)
(0.412585 -0.00130126 0)
(0.412649 -0.00174878 0)
(0.412729 -0.00225879 0)
(0.412828 -0.00282958 0)
(0.412946 -0.00345974 0)
(0.413084 -0.00414885 0)
(0.413241 -0.00489839 0)
(0.413419 -0.00571285 0)
(0.413617 -0.00660089 0)
(0.413834 -0.00757632 0)
(0.414068 -0.00865892 0)
(0.414318 -0.00987503 0)
(0.414582 -0.0112579 0)
(0.414858 -0.0128482 0)
(0.415141 -0.0146949 0)
(0.415427 -0.0168565 0)
(0.415712 -0.019404 0)
(0.415987 -0.0224243 0)
(0.416247 -0.0260252 0)
(0.416483 -0.0303429 0)
(0.416706 -0.0355498 0)
(0.41688 -0.0418703 0)
(0.417181 -0.0496036 0)
(0.417213 -0.0590838 0)
(0.418774 -0.0711763 0)
(0.412461 -4.55204e-05 0)
(0.412464 -0.000169266 0)
(0.412473 -0.000359927 0)
(0.412489 -0.000618106 0)
(0.412512 -0.000943679 0)
(0.412544 -0.00133568 0)
(0.412584 -0.00179267 0)
(0.412635 -0.00231286 0)
(0.412695 -0.00289434 0)
(0.412765 -0.00353548 0)
(0.412844 -0.00423556 0)
(0.412933 -0.00499577 0)
(0.41303 -0.00582027 0)
(0.413132 -0.00671731 0)
(0.413238 -0.00770029 0)
(0.413345 -0.00878851 0)
(0.413447 -0.0100077 0)
(0.41354 -0.0113903 0)
(0.413617 -0.0129761 0)
(0.413667 -0.0148126 0)
(0.41368 -0.0169569 0)
(0.413638 -0.0194779 0)
(0.413522 -0.0224604 0)
(0.413307 -0.0260102 0)
(0.41296 -0.030262 0)
(0.412451 -0.0353886 0)
(0.411712 -0.0416173 0)
(0.410801 -0.0492677 0)
(0.409362 -0.058664 0)
(0.408597 -0.0709281 0)
(0.41246 -4.67282e-05 0)
(0.412463 -0.000173242 0)
(0.412468 -0.000367247 0)
(0.412477 -0.000629204 0)
(0.412488 -0.000958865 0)
(0.412503 -0.00135517 0)
(0.412521 -0.00181658 0)
(0.412541 -0.00234116 0)
(0.412562 -0.00292683 0)
(0.412585 -0.00357171 0)
(0.412606 -0.00427479 0)
(0.412626 -0.00503691 0)
(0.412641 -0.00586176 0)
(0.412649 -0.00675709 0)
(0.412646 -0.00773562 0)
(0.412626 -0.00881577 0)
(0.412584 -0.0100222 0)
(0.412509 -0.0113859 0)
(0.412392 -0.0129447 0)
(0.412216 -0.0147437 0)
(0.411964 -0.0168367 0)
(0.411608 -0.0192885 0)
(0.411116 -0.0221788 0)
(0.410444 -0.0256065 0)
(0.409535 -0.0296985 0)
(0.408319 -0.0346186 0)
(0.40669 -0.0405832 0)
(0.404581 -0.0479081 0)
(0.401679 -0.0568924 0)
(0.398482 -0.0687805 0)
(0.41246 -4.7424e-05 0)
(0.412461 -0.000175336 0)
(0.412463 -0.000370585 0)
(0.412465 -0.000633468 0)
(0.412466 -0.000963622 0)
(0.412464 -0.0013599 0)
(0.412459 -0.00182066 0)
(0.412449 -0.00234386 0)
(0.412432 -0.00292724 0)
(0.412407 -0.00356869 0)
(0.412372 -0.00426692 0)
(0.412324 -0.00502233 0)
(0.41226 -0.00583815 0)
(0.412175 -0.00672141 0)
(0.412065 -0.00768395 0)
(0.411922 -0.00874303 0)
(0.411739 -0.00992169 0)
(0.411503 -0.011249 0)
(0.4112 -0.0127599 0)
(0.41081 -0.014496 0)
(0.410307 -0.0165063 0)
(0.409657 -0.0188494 0)
(0.408814 -0.0215964 0)
(0.407718 -0.0248357 0)
(0.406289 -0.0286794 0)
(0.40442 -0.0332722 0)
(0.40197 -0.0388051 0)
(0.398746 -0.0455627 0)
(0.394477 -0.0537996 0)
(0.388939 -0.0647219 0)
(0.41246 -4.76607e-05 0)
(0.41246 -0.000175665 0)
(0.412458 -0.000370114 0)
(0.412454 -0.000631144 0)
(0.412444 -0.000958248 0)
(0.412426 -0.00135021 0)
(0.412399 -0.00180531 0)
(0.41236 -0.00232143 0)
(0.412306 -0.00289615 0)
(0.412235 -0.00352717 0)
(0.412144 -0.00421288 0)
(0.41203 -0.00495329 0)
(0.411888 -0.00575105 0)
(0.411714 -0.00661242 0)
(0.411501 -0.00754814 0)
(0.411241 -0.00857403 0)
(0.410924 -0.0097112 0)
(0.410536 -0.0109861 0)
(0.410059 -0.0124303 0)
(0.409469 -0.0140808 0)
(0.408735 -0.0159806 0)
(0.407816 -0.0181801 0)
(0.406657 -0.0207396 0)
(0.405183 -0.0237324 0)
(0.403297 -0.0272502 0)
(0.400858 -0.0314096 0)
(0.397697 -0.0363619 0)
(0.393514 -0.0423345 0)
(0.388071 -0.0495168 0)
(0.380499 -0.058914 0)
(0.41246 -4.74803e-05 0)
(0.412459 -0.000174382 0)
(0.412454 -0.000366086 0)
(0.412444 -0.000622552 0)
(0.412423 -0.000943145 0)
(0.412391 -0.00132659 0)
(0.412342 -0.00177115 0)
(0.412275 -0.00227464 0)
(0.412185 -0.00283452 0)
(0.41207 -0.00344831 0)
(0.411926 -0.00411416 0)
(0.411748 -0.00483166 0)
(0.411532 -0.00560284 0)
(0.411272 -0.00643312 0)
(0.410961 -0.00733205 0)
(0.410591 -0.00831377 0)
(0.410148 -0.00939717 0)
(0.409618 -0.0106057 0)
(0.408981 -0.0119669 0)
(0.40821 -0.0135126 0)
(0.407269 -0.0152787 0)
(0.406114 -0.0173061 0)
(0.40468 -0.0196421 0)
(0.402886 -0.0223422 0)
(0.40062 -0.0254729 0)
(0.39772 -0.0291157 0)
(0.393995 -0.0333711 0)
(0.389071 -0.0383877 0)
(0.382733 -0.0442738 0)
(0.373636 -0.0516967 0)
(0.41246 -4.69337e-05 0)
(0.412458 -0.000171675 0)
(0.412451 -0.000358822 0)
(0.412435 -0.000608119 0)
(0.412405 -0.000918842 0)
(0.412358 -0.00128971 0)
(0.412289 -0.00171899 0)
(0.412195 -0.00220448 0)
(0.412071 -0.00274358 0)
(0.411914 -0.00333368 0)
(0.411718 -0.00397269 0)
(0.41148 -0.00465984 0)
(0.411194 -0.00539655 0)
(0.410854 -0.00618734 0)
(0.410451 -0.00704046 0)
(0.409977 -0.0079683 0)
(0.409419 -0.00898732 0)
(0.40876 -0.0101177 0)
(0.407978 -0.0113827 0)
(0.407047 -0.0128083 0)
(0.405927 -0.0144229 0)
(0.40457 -0.016257 0)
(0.402911 -0.0183438 0)
(0.400862 -0.0207192 0)
(0.398305 -0.023422 0)
(0.395068 -0.0264942 0)
(0.390952 -0.0299797 0)
(0.385546 -0.0339353 0)
(0.378657 -0.0383799 0)
(0.368686 -0.043557 0)
(0.41246 -4.61049e-05 0)
(0.412457 -0.000167757 0)
(0.412448 -0.000348662 0)
(0.412427 -0.000588337 0)
(0.412388 -0.000885978 0)
(0.412328 -0.00124036 0)
(0.41224 -0.00164983 0)
(0.412121 -0.00211221 0)
(0.411965 -0.00262489 0)
(0.411768 -0.00318518 0)
(0.411525 -0.00379084 0)
(0.41123 -0.00444075 0)
(0.410878 -0.00513577 0)
(0.410463 -0.00587951 0)
(0.409976 -0.00667894 0)
(0.409407 -0.00754457 0)
(0.408744 -0.00849037 0)
(0.407969 -0.00953314 0)
(0.407061 -0.0106918 0)
(0.40599 -0.0119864 0)
(0.40472 -0.0134374 0)
(0.4032 -0.015065 0)
(0.401366 -0.0168881 0)
(0.39913 -0.0189226 0)
(0.396375 -0.0211793 0)
(0.392934 -0.0236602 0)
(0.388609 -0.0263521 0)
(0.382999 -0.0292176 0)
(0.375931 -0.0321895 0)
(0.365791 -0.035066 0)
(0.412459 -4.50787e-05 0)
(0.412456 -0.0001629 0)
(0.412446 -0.000336056 0)
(0.41242 -0.0005638 0)
(0.412374 -0.000845295 0)
(0.412302 -0.00117948 0)
(0.412197 -0.00156485 0)
(0.412055 -0.00199931 0)
(0.411869 -0.00248027 0)
(0.411635 -0.00300505 0)
(0.411347 -0.0035713 0)
(0.411 -0.00417767 0)
(0.410588 -0.00482449 0)
(0.410104 -0.00551452 0)
(0.40954 -0.00625344 0)
(0.408886 -0.00704997 0)
(0.408128 -0.00791557 0)
(0.407252 -0.00886374 0)
(0.406234 -0.00990904 0)
(0.405047 -0.0110659 0)
(0.403655 -0.0123472 0)
(0.402011 -0.0137633 0)
(0.400052 -0.0153192 0)
(0.397696 -0.0170124 0)
(0.394836 -0.0188277 0)
(0.391317 -0.0207299 0)
(0.386962 -0.022654 0)
(0.381414 -0.024477 0)
(0.374525 -0.0260588 0)
(0.364877 -0.0267979 0)
(0.412459 -4.39662e-05 0)
(0.412456 -0.000157452 0)
(0.412445 -0.00032155 0)
(0.412416 -0.000535196 0)
(0.412364 -0.00079763 0)
(0.41228 -0.0011081 0)
(0.41216 -0.00146536 0)
(0.411996 -0.00186741 0)
(0.411783 -0.00231176 0)
(0.411515 -0.0027958 0)
(0.411187 -0.00331719 0)
(0.410792 -0.00387437 0)
(0.410325 -0.00446722 0)
(0.409779 -0.00509774 0)
(0.409145 -0.00577039 0)
(0.408416 -0.00649218 0)
(0.407576 -0.00727223 0)
(0.406612 -0.00812096 0)
(0.405502 -0.0090489 0)
(0.404221 -0.0100652 0)
(0.402735 -0.0111762 0)
(0.401002 -0.0123829 0)
(0.398964 -0.0136788 0)
(0.396551 -0.0150452 0)
(0.39367 -0.0164445 0)
(0.390189 -0.0178109 0)
(0.385962 -0.0190375 0)
(0.380704 -0.0199328 0)
(0.374302 -0.020305 0)
(0.365676 -0.0192491 0)
(0.412459 -4.29174e-05 0)
(0.412457 -0.000151885 0)
(0.412445 -0.000305824 0)
(0.412414 -0.000503319 0)
(0.412356 -0.000743932 0)
(0.412264 -0.00102741 0)
(0.412129 -0.00135279 0)
(0.411947 -0.00171824 0)
(0.411709 -0.00212142 0)
(0.411411 -0.00255995 0)
(0.411046 -0.00303158 0)
(0.410608 -0.00353467 0)
(0.410092 -0.00406875 0)
(0.409491 -0.00463509 0)
(0.408797 -0.00523709 0)
(0.408 -0.00588015 0)
(0.407091 -0.00657126 0)
(0.406052 -0.00731806 0)
(0.404868 -0.00812754 0)
(0.403513 -0.0090044 0)
(0.401958 -0.00994907 0)
(0.400167 -0.0109554 0)
(0.398093 -0.0120071 0)
(0.395676 -0.0130731 0)
(0.392843 -0.0140993 0)
(0.389494 -0.014997 0)
(0.385521 -0.0156307 0)
(0.380727 -0.0157632 0)
(0.375038 -0.0151752 0)
(0.367792 -0.012783 0)
(0.41246 -4.21447e-05 0)
(0.412457 -0.000146872 0)
(0.412447 -0.000289721 0)
(0.412416 -0.000469011 0)
(0.412354 -0.00068523 0)
(0.412254 -0.000938789 0)
(0.412107 -0.00122895 0)
(0.411908 -0.00155397 0)
(0.411649 -0.00191179 0)
(0.411324 -0.00230028 0)
(0.410926 -0.00271741 0)
(0.410451 -0.00316156 0)
(0.409891 -0.00363206 0)
(0.409242 -0.00412966 0)
(0.408495 -0.00465681 0)
(0.407642 -0.00521758 0)
(0.406672 -0.00581711 0)
(0.405573 -0.00646071 0)
(0.404328 -0.00715252 0)
(0.402918 -0.00789361 0)
(0.401317 -0.00867987 0)
(0.399496 -0.00949965 0)
(0.397418 -0.0103301 0)
(0.395039 -0.0111317 0)
(0.392308 -0.0118401 0)
(0.389159 -0.0123534 0)
(0.385525 -0.0125216 0)
(0.381307 -0.0120865 0)
(0.376467 -0.0108243 0)
(0.370767 -0.00760335 0)
(0.41246 -4.20589e-05 0)
(0.41246 -0.000143361 0)
(0.412452 -0.000274295 0)
(0.412422 -0.000433123 0)
(0.412358 -0.000622214 0)
(0.412251 -0.000843173 0)
(0.412095 -0.00109536 0)
(0.411881 -0.00137713 0)
(0.411604 -0.00168675 0)
(0.411256 -0.00202242 0)
(0.41083 -0.00238234 0)
(0.410322 -0.00276493 0)
(0.409726 -0.00316936 0)
(0.409035 -0.00359593 0)
(0.408243 -0.0040463 0)
(0.407343 -0.00452335 0)
(0.406324 -0.00503071 0)
(0.405176 -0.00557188 0)
(0.403884 -0.0061489 0)
(0.402433 -0.00676023 0)
(0.400804 -0.00739857 0)
(0.398974 -0.0080488 0)
(0.396917 -0.00868454 0)
(0.394605 -0.00926248 0)
(0.392009 -0.00971444 0)
(0.389099 -0.00993511 0)
(0.385851 -0.00977376 0)
(0.382251 -0.00897482 0)
(0.378306 -0.00732882 0)
(0.374144 -0.00377299 0)
(0.412461 -4.34585e-05 0)
(0.412464 -0.000143102 0)
(0.412462 -0.00026116 0)
(0.412436 -0.000397247 0)
(0.41237 -0.00055616 0)
(0.412258 -0.000740671 0)
(0.412094 -0.000950313 0)
(0.411869 -0.00118374 0)
(0.411576 -0.0014398 0)
(0.411208 -0.00171729 0)
(0.410759 -0.00201479 0)
(0.410223 -0.00233094 0)
(0.409596 -0.00266494 0)
(0.408871 -0.00301677 0)
(0.408042 -0.00338744 0)
(0.407103 -0.00377884 0)
(0.406045 -0.00419334 0)
(0.404858 -0.00463313 0)
(0.403531 -0.00509899 0)
(0.402053 -0.00558797 0)
(0.400409 -0.0060909 0)
(0.398584 -0.00659104 0)
(0.396564 -0.0070614 0)
(0.394335 -0.00745922 0)
(0.391889 -0.00771867 0)
(0.38923 -0.00773963 0)
(0.386371 -0.00738283 0)
(0.383376 -0.00641491 0)
(0.38029 -0.00465655 0)
(0.377522 -0.00119983 0)
(0.412463 -4.74234e-05 0)
(0.412474 -0.000147478 0)
(0.412482 -0.000251913 0)
(0.412461 -0.000365626 0)
(0.412396 -0.000495975 0)
(0.412281 -0.000645732 0)
(0.412111 -0.000814268 0)
(0.411877 -0.00100054 0)
(0.411572 -0.00120382 0)
(0.411189 -0.00142333 0)
(0.410721 -0.00165804 0)
(0.410163 -0.00190697 0)
(0.409511 -0.00216944 0)
(0.408758 -0.00244533 0)
(0.4079 -0.00273522 0)
(0.406931 -0.00304033 0)
(0.405843 -0.00336226 0)
(0.404627 -0.00370259 0)
(0.403275 -0.00406153 0)
(0.40178 -0.00443508 0)
(0.400133 -0.00481325 0)
(0.398325 -0.00518013 0)
(0.396351 -0.00551146 0)
(0.394211 -0.00576907 0)
(0.391917 -0.00589473 0)
(0.3895 -0.00580042 0)
(0.387007 -0.00536793 0)
(0.384556 -0.00439861 0)
(0.382229 -0.0027581 0)
(0.380619 0.000268151 0)
(0.412467 -5.98009e-05 0)
(0.412492 -0.000154786 0)
(0.412513 -0.000231871 0)
(0.412499 -0.000311922 0)
(0.412436 -0.000404882 0)
(0.412319 -0.00051162 0)
(0.412145 -0.00063118 0)
(0.411905 -0.000763346 0)
(0.411592 -0.000908062 0)
(0.411198 -0.00106493 0)
(0.410718 -0.00123334 0)
(0.410146 -0.00141264 0)
(0.409479 -0.00160226 0)
(0.40871 -0.00180179 0)
(0.407835 -0.00201113 0)
(0.406849 -0.00223047 0)
(0.405744 -0.00246029 0)
(0.404515 -0.0027026 0)
(0.403156 -0.00296023 0)
(0.401662 -0.00323026 0)
(0.400028 -0.00350041 0)
(0.398252 -0.0037545 0)
(0.396333 -0.00397372 0)
(0.394285 -0.00412912 0)
(0.392134 -0.00417499 0)
(0.389931 -0.00404001 0)
(0.387752 -0.00363451 0)
(0.385741 -0.00279541 0)
(0.38404 -0.00144605 0)
(0.383213 0.000895928 0)
(0.412473 -0.000105531 0)
(0.412566 -0.000222199 0)
(0.412584 -0.000280391 0)
(0.412548 -0.000331362 0)
(0.412465 -0.000390909 0)
(0.412333 -0.000458152 0)
(0.412146 -0.000531741 0)
(0.411895 -0.00061187 0)
(0.411571 -0.000698797 0)
(0.411168 -0.000792512 0)
(0.410678 -0.000892954 0)
(0.410094 -0.00100006 0)
(0.40941 -0.00111372 0)
(0.408621 -0.00123383 0)
(0.407724 -0.00136048 0)
(0.406714 -0.00149399 0)
(0.405588 -0.00163481 0)
(0.404344 -0.0017835 0)
(0.402971 -0.00194016 0)
(0.401453 -0.00210249 0)
(0.399782 -0.00226421 0)
(0.39797 -0.00241533 0)
(0.39603 -0.00254177 0)
(0.393985 -0.00262222 0)
(0.39187 -0.00262467 0)
(0.389746 -0.00250098 0)
(0.387727 -0.00218869 0)
(0.385931 -0.00157356 0)
(0.384657 -0.000612991 0)
(0.383819 0.00117245 0)
(0.412274 -7.05889e-05 0)
(0.412136 -0.000144973 0)
(0.411885 -0.000172183 0)
(0.411544 -0.000194584 0)
(0.411146 -0.000220341 0)
(0.410694 -0.000248252 0)
(0.41018 -0.000277665 0)
(0.409595 -0.000308687 0)
(0.408932 -0.000341202 0)
(0.408187 -0.000374851 0)
(0.407354 -0.00040939 0)
(0.406428 -0.000444946 0)
(0.405404 -0.000482099 0)
(0.404277 -0.000521787 0)
(0.403039 -0.000565018 0)
(0.401683 -0.000612649 0)
(0.400201 -0.00066516 0)
(0.398586 -0.000721371 0)
(0.396832 -0.000777975 0)
(0.394935 -0.000832779 0)
(0.392896 -0.000886302 0)
(0.390718 -0.000937114 0)
(0.388416 -0.000978943 0)
(0.386022 -0.001002 0)
(0.383596 -0.000993731 0)
(0.381236 -0.000935545 0)
(0.379088 -0.000807816 0)
(0.377384 -0.000547739 0)
(0.376445 -0.000189123 0)
(0.376109 0.000614925 0)
(0.480086 -0.00599233 -1.1609e-19)
(0.48396 -0.00902982 -1.16515e-19)
(0.487371 -0.0127746 -1.65919e-18)
(0.490064 -0.0169194 -4.78273e-19)
(0.492403 -0.021355 4.85227e-19)
(0.494547 -0.0260355 0)
(0.496519 -0.0309649 0)
(0.498356 -0.036174 5.02327e-19)
(0.50012 -0.0416964 -5.10772e-19)
(0.501862 -0.0475617 -1.03115e-18)
(0.503604 -0.0538004 1.04932e-18)
(0.505351 -0.0604506 0)
(0.507101 -0.0675613 -1.07239e-18)
(0.508852 -0.0751942 1.09259e-18)
(0.510608 -0.0834268 0)
(0.512375 -0.0923545 2.23089e-18)
(0.514162 -0.102094 1.1255e-18)
(0.515974 -0.112788 1.13161e-18)
(0.517817 -0.124615 1.14667e-18)
(0.519689 -0.137798 1.14646e-18)
(0.521586 -0.152622 -1.15849e-18)
(0.523496 -0.169454 3.51495e-18)
(0.525382 -0.188773 0)
(0.527209 -0.211205 -2.29728e-18)
(0.528817 -0.237617 1.10912e-18)
(0.530084 -0.269159 -2.24194e-18)
(0.530656 -0.306927 -3.13893e-18)
(0.528534 -0.356938 0)
(0.529206 -0.402304 0)
(0.505023 -0.519858 -2.58739e-19)
(0.483883 -0.0138228 -1.89305e-18)
(0.486369 -0.0172679 0)
(0.488413 -0.0213485 0)
(0.490043 -0.0256865 -1.96149e-18)
(0.491526 -0.0302057 1.98775e-18)
(0.492985 -0.034937 2.01463e-18)
(0.494427 -0.0399296 -5.09056e-19)
(0.495855 -0.0452186 5.178e-19)
(0.497284 -0.0508265 1.57764e-18)
(0.498716 -0.0567756 2.66411e-18)
(0.500135 -0.0630981 -1.07655e-18)
(0.501525 -0.0698386 2.1994e-18)
(0.502874 -0.0770538 1.113e-18)
(0.504179 -0.0848122 1.13686e-18)
(0.505441 -0.0931953 1.14612e-18)
(0.506657 -0.1023 2.32698e-18)
(0.507823 -0.112243 0)
(0.508924 -0.123168 -1.18432e-18)
(0.509943 -0.135252 -1.21201e-18)
(0.510849 -0.148717 0)
(0.511601 -0.163843 1.21818e-18)
(0.512137 -0.180985 1.24782e-18)
(0.512358 -0.200603 -2.50759e-18)
(0.512139 -0.223283 0)
(0.511193 -0.249832 1.2008e-18)
(0.509298 -0.281232 1.22834e-18)
(0.505646 -0.318782 -2.39745e-18)
(0.498937 -0.366004 1.03768e-18)
(0.492489 -0.413237 -1.07715e-18)
(0.461706 -0.519108 3.70557e-19)
(0.482235 -0.0212585 1.92786e-18)
(0.483856 -0.0246114 0)
(0.485258 -0.0285811 -2.47004e-19)
(0.486594 -0.0328582 4.26478e-18)
(0.487937 -0.0373744 -1.52423e-18)
(0.48929 -0.0421437 -3.09196e-18)
(0.490619 -0.0471888 2.62196e-18)
(0.491899 -0.0525249 -5.30228e-19)
(0.493124 -0.0581715 -1.6124e-18)
(0.494287 -0.0641604 -5.35313e-19)
(0.495378 -0.0705355 5.56865e-19)
(0.496392 -0.0773487 -3.38025e-18)
(0.497329 -0.0846588 2.29466e-18)
(0.498185 -0.092533 -3.49312e-18)
(0.498951 -0.10105 0)
(0.499613 -0.110306 -2.39801e-18)
(0.500146 -0.120415 0)
(0.500519 -0.131521 0)
(0.500692 -0.143798 2.50613e-18)
(0.500607 -0.157462 0)
(0.500188 -0.172782 0)
(0.499329 -0.190098 -2.59534e-18)
(0.497867 -0.209841 2.61442e-18)
(0.495599 -0.232554 0)
(0.492133 -0.258969 0)
(0.487137 -0.289939 -2.59469e-18)
(0.479498 -0.326747 1.11714e-18)
(0.468439 -0.371444 -7.05458e-19)
(0.454552 -0.419611 -6.30501e-19)
(0.418429 -0.5137 0)
(0.480216 -0.0289201 -6.14787e-20)
(0.481509 -0.0323651 -6.22437e-20)
(0.482617 -0.0363897 1.9043e-18)
(0.483758 -0.0407094 -4.11282e-18)
(0.4849 -0.0452585 2.61171e-19)
(0.485978 -0.050048 5.29113e-19)
(0.486971 -0.0551049 -5.27585e-19)
(0.487878 -0.0604557 0)
(0.488706 -0.0661313 2.78425e-18)
(0.489454 -0.0721697 -5.08551e-18)
(0.490116 -0.0786138 2.30632e-18)
(0.490685 -0.0855113 1.16664e-18)
(0.491148 -0.0929163 -3.5801e-18)
(0.491487 -0.100893 0)
(0.49168 -0.109521 0)
(0.491696 -0.118895 2.52312e-18)
(0.491496 -0.129128 2.5705e-18)
(0.491034 -0.140361 1.29555e-18)
(0.490247 -0.15276 -1.02597e-20)
(0.489052 -0.166532 -1.35273e-18)
(0.487337 -0.18193 0)
(0.484953 -0.199267 0)
(0.481684 -0.218937 -1.46592e-18)
(0.477254 -0.241425 -4.36117e-18)
(0.471186 -0.267377 0)
(0.463055 -0.297499 -1.55816e-18)
(0.451521 -0.332952 2.78653e-18)
(0.436252 -0.374941 -5.21651e-18)
(0.415198 -0.421888 7.40883e-19)
(0.375397 -0.504033 0)
(0.477348 -0.0364756 0)
(0.478295 -0.0399532 2.05073e-18)
(0.479035 -0.0439688 -1.81499e-18)
(0.479856 -0.0482759 1.84295e-18)
(0.48068 -0.0528253 2.67907e-19)
(0.481416 -0.0576317 -2.72823e-19)
(0.482051 -0.0627214 -2.21133e-18)
(0.482599 -0.0681195 0)
(0.48306 -0.0738533 1.63235e-20)
(0.483421 -0.0799557 2.32896e-18)
(0.483666 -0.086466 -2.96552e-18)
(0.483777 -0.0934303 3.04398e-18)
(0.483732 -0.100903 3.07796e-18)
(0.483504 -0.108951 -6.31044e-19)
(0.483062 -0.117652 3.87025e-18)
(0.482366 -0.127098 -2.59017e-18)
(0.481366 -0.137398 -2.6822e-18)
(0.479997 -0.148685 -1.37072e-18)
(0.478177 -0.161115 0)
(0.475796 -0.174878 0)
(0.472713 -0.190207 0)
(0.468737 -0.207383 1.4831e-18)
(0.463607 -0.226755 4.57049e-18)
(0.456989 -0.24874 1.52206e-18)
(0.44834 -0.273887 3.17891e-18)
(0.437158 -0.302761 -1.79222e-18)
(0.421967 -0.336367 3.4076e-18)
(0.402706 -0.375303 -2.3837e-19)
(0.375235 -0.419636 2.7426e-18)
(0.333131 -0.49023 4.42111e-18)
(0.473629 -0.0439132 -2.07188e-18)
(0.474244 -0.0474354 -2.09572e-18)
(0.474629 -0.0514718 -2.14414e-18)
(0.475133 -0.0558015 0)
(0.475646 -0.0603803 0)
(0.476047 -0.0652195 -2.25795e-18)
(0.476322 -0.070342 0)
(0.476488 -0.0757713 1.76044e-18)
(0.47654 -0.0815346 -4.16194e-18)
(0.476456 -0.0876655 2.43629e-18)
(0.476215 -0.0942042 1.86863e-18)
(0.475794 -0.101198 -5.04912e-18)
(0.475167 -0.108699 1.34616e-21)
(0.474301 -0.116773 -1.99262e-18)
(0.473155 -0.125493 3.65584e-20)
(0.471678 -0.134944 -2.73663e-18)
(0.469806 -0.14523 -4.56713e-20)
(0.467458 -0.15647 2.91787e-18)
(0.464532 -0.16881 -1.51621e-18)
(0.460896 -0.182419 -1.52349e-18)
(0.456379 -0.197504 3.16392e-18)
(0.45076 -0.214308 0)
(0.44374 -0.233129 -3.25614e-18)
(0.434938 -0.254312 0)
(0.423768 -0.2783 -3.58868e-18)
(0.409667 -0.305522 3.54668e-18)
(0.391098 -0.336795 2.13089e-19)
(0.36815 -0.372262 3.76408e-18)
(0.335226 -0.412818 -4.85862e-18)
(0.291715 -0.47243 1.54052e-18)
(0.468975 -0.051151 2.05184e-18)
(0.469245 -0.0547156 -6.756e-20)
(0.469256 -0.0587668 2.60811e-18)
(0.469415 -0.063105 8.45391e-19)
(0.469581 -0.0676908 0)
(0.469607 -0.0725355 2.31738e-18)
(0.469477 -0.0776621 1.78454e-18)
(0.469213 -0.0830947 -3.01438e-18)
(0.468807 -0.0888605 1.21645e-18)
(0.468233 -0.0949924 -1.24109e-18)
(0.467462 -0.101529 -2.56412e-18)
(0.466468 -0.108513 2.62123e-18)
(0.465216 -0.115996 -6.84852e-19)
(0.463665 -0.124035 2.05377e-18)
(0.461766 -0.132701 -6.76153e-19)
(0.459456 -0.142071 -7.27082e-19)
(0.456658 -0.152239 4.46695e-18)
(0.453278 -0.163313 -4.5916e-18)
(0.449197 -0.17542 3.12684e-18)
(0.444264 -0.188709 8.36313e-19)
(0.438287 -0.203354 -2.47828e-18)
(0.431018 -0.219558 1.76608e-18)
(0.42213 -0.237561 0)
(0.411209 -0.257634 -9.33301e-19)
(0.39765 -0.280114 4.79728e-18)
(0.38084 -0.305298 0)
(0.359259 -0.333795 -7.42483e-18)
(0.333055 -0.365414 1.13559e-18)
(0.295777 -0.401351 0)
(0.251853 -0.450739 -4.84629e-18)
(0.463288 -0.058057 -1.09875e-18)
(0.463195 -0.0616555 -1.39465e-19)
(0.462813 -0.0657073 -8.58788e-19)
(0.462601 -0.0700359 -1.30016e-18)
(0.462395 -0.074608 2.95568e-19)
(0.462018 -0.0794352 -3.01744e-19)
(0.461454 -0.0845397 -1.22618e-18)
(0.460727 -0.0899447 -1.26683e-18)
(0.45983 -0.0956756 1.28022e-18)
(0.458729 -0.101763 -6.50919e-19)
(0.457389 -0.108242 -6.74468e-19)
(0.455778 -0.115153 0)