/*--------------------------------*- C++ -*----------------------------------*\
  =========                 |
  \\      /  F ield         | OpenFOAM: The Open Source CFD Toolbox
   \\    /   O peration     | Website:  https://openfoam.org
    \\  /    A nd           | Version:  11
     \\/     M anipulation  |
\*---------------------------------------------------------------------------*/
FoamFile
{
    format      ascii;
    class       volVectorField;
    location    "10";
    object      U;
}
// * * * * * * * * * * * * * * * * * * * * * * * * * * * * * * * * * * * * * //

dimensions      [0 1 -1 0 0 0 0];

internalField   nonuniform List<vector> 
12600
(
(0.399659 0.00010275 0)
(0.399411 0.000174181 0)
(0.39904 0.000178155 0)
(0.39863 0.000176039 0)
(0.398246 0.000175002 0)
(0.397897 0.00017124 0)
(0.397579 0.000165273 0)
(0.397295 0.000156648 0)
(0.397052 0.000145206 0)
(0.396863 0.00013099 0)
(0.396739 0.000114334 0)
(0.396694 9.35967e-05 0)
(0.396746 6.68329e-05 0)
(0.396918 2.76643e-05 0)
(0.397238 -1.96189e-05 0)
(0.397741 -7.53282e-05 0)
(0.39847 -0.000140878 0)
(0.39948 -0.000224178 0)
(0.400832 -0.000325893 0)
(0.4026 -0.000450601 0)
(0.404877 -0.000604309 0)
(0.407781 -0.000791595 0)
(0.411457 -0.00102041 0)
(0.416086 -0.00130147 0)
(0.421881 -0.0016474 0)
(0.429097 -0.00206695 0)
(0.438019 -0.0025883 0)
(0.449004 -0.00313937 0)
(0.462419 -0.00414741 0)
(0.481122 -0.00362243 0)
(0.400037 0.000146927 0)
(0.400182 0.000250968 0)
(0.400366 0.00022264 0)
(0.400483 0.000199539 0)
(0.400607 0.000182248 0)
(0.400764 0.000161494 0)
(0.400951 0.000135504 0)
(0.40117 0.000105859 0)
(0.401427 7.03312e-05 0)
(0.401732 2.58922e-05 0)
(0.402096 -2.8544e-05 0)
(0.402531 -9.52702e-05 0)
(0.403052 -0.000176398 0)
(0.403676 -0.000274684 0)
(0.404428 -0.000394904 0)
(0.405326 -0.000543288 0)
(0.406426 -0.000726895 0)
(0.407723 -0.000953557 0)
(0.409309 -0.00123421 0)
(0.411263 -0.00158023 0)
(0.413687 -0.00200463 0)
(0.41667 -0.00252618 0)
(0.420335 -0.0031672 0)
(0.424837 -0.00395263 0)
(0.430359 -0.00491086 0)
(0.43713 -0.00607359 0)
(0.445425 -0.00749157 0)
(0.455596 -0.0091364 0)
(0.468005 -0.011455 0)
(0.483273 -0.0122774 0)
(0.400024 7.19046e-05 0)
(0.400113 0.000116307 0)
(0.400236 9.12978e-05 0)
(0.400354 6.58404e-05 0)
(0.400475 4.58219e-05 0)
(0.40062 1.85833e-05 0)
(0.400795 -2.00965e-05 0)
(0.401001 -7.0095e-05 0)
(0.401246 -0.000129218 0)
(0.401536 -0.000199827 0)
(0.401883 -0.000285197 0)
(0.402299 -0.000388935 0)
(0.402798 -0.00051556 0)
(0.403398 -0.000670949 0)
(0.404123 -0.000861267 0)
(0.405001 -0.00109598 0)
(0.406067 -0.00138283 0)
(0.407371 -0.00173412 0)
(0.408964 -0.00217318 0)
(0.41091 -0.00271769 0)
(0.413289 -0.00338804 0)
(0.416202 -0.00421554 0)
(0.41977 -0.00523273 0)
(0.424145 -0.00647662 0)
(0.429512 -0.0079946 0)
(0.436111 -0.00984441 0)
(0.44418 -0.0121071 0)
(0.454196 -0.0147867 0)
(0.466113 -0.0183307 0)
(0.482075 -0.0209022 0)
(0.400016 3.86958e-05 0)
(0.40008 8.03674e-05 0)
(0.400187 7.34826e-05 0)
(0.400299 4.77273e-05 0)
(0.400417 1.72465e-05 0)
(0.400554 -2.14308e-05 0)
(0.400721 -7.44799e-05 0)
(0.400921 -0.000139902 0)
(0.401158 -0.00021894 0)
(0.401439 -0.000314834 0)
(0.401775 -0.000431582 0)
(0.402177 -0.000573869 0)
(0.402659 -0.000747633 0)
(0.40324 -0.000960397 0)
(0.403941 -0.00122114 0)
(0.40479 -0.00154178 0)
(0.405821 -0.00193586 0)
(0.407079 -0.00242191 0)
(0.408616 -0.00302522 0)
(0.410493 -0.00377135 0)
(0.412788 -0.0046904 0)
(0.415598 -0.00582041 0)
(0.419042 -0.00720616 0)
(0.423265 -0.00890349 0)
(0.428446 -0.0109824 0)
(0.434822 -0.0135228 0)
(0.442616 -0.0166372 0)
(0.452332 -0.0203497 0)
(0.463859 -0.0251694 0)
(0.479545 -0.0293749 0)
(0.400011 1.83418e-05 0)
(0.400058 3.72178e-05 0)
(0.400146 1.98319e-05 0)
(0.400249 -2.11953e-05 0)
(0.400363 -6.92988e-05 0)
(0.400495 -0.000125474 0)
(0.400655 -0.000193091 0)
(0.400847 -0.000275989 0)
(0.401074 -0.000376691 0)
(0.401344 -0.000498541 0)
(0.401666 -0.000646205 0)
(0.402051 -0.000825548 0)
(0.402512 -0.0010441 0)
(0.403067 -0.00131141 0)
(0.403737 -0.0016392 0)
(0.404548 -0.0020423 0)
(0.405533 -0.00253864 0)
(0.406732 -0.00315074 0)
(0.408197 -0.00390745 0)
(0.409985 -0.00484131 0)
(0.412172 -0.00599045 0)
(0.41485 -0.0074032 0)
(0.41813 -0.0091386 0)
(0.422154 -0.0112682 0)
(0.42709 -0.0138799 0)
(0.43317 -0.0170766 0)
(0.440603 -0.020999 0)
(0.449907 -0.0257165 0)
(0.460908 -0.0317373 0)
(0.476139 -0.0376333 0)
(0.400008 3.47584e-06 0)
(0.400045 1.2411e-06 0)
(0.40012 -2.41392e-05 0)
(0.400215 -6.83853e-05 0)
(0.400323 -0.000122945 0)
(0.400449 -0.000187835 0)
(0.400601 -0.000267161 0)
(0.400782 -0.000365093 0)
(0.400997 -0.000484426 0)
(0.401253 -0.000628948 0)
(0.401557 -0.000804253 0)
(0.401921 -0.0010175 0)
(0.402357 -0.00127763 0)
(0.402881 -0.00159594 0)
(0.403512 -0.00198655 0)
(0.404277 -0.00246714 0)
(0.405204 -0.00305942 0)
(0.406333 -0.00379003 0)
(0.40771 -0.00469211 0)
(0.40939 -0.00580455 0)
(0.411445 -0.00717398 0)
(0.41396 -0.00885851 0)
(0.417039 -0.0109288 0)
(0.420817 -0.0134708 0)
(0.425452 -0.016591 0)
(0.431165 -0.0204162 0)
(0.438149 -0.0251151 0)
(0.446929 -0.0308053 0)
(0.457275 -0.0379894 0)
(0.471871 -0.0455452 0)
(0.400007 -7.55283e-06 0)
(0.400037 -2.79415e-05 0)
(0.400101 -6.37594e-05 0)
(0.400187 -0.000116022 0)
(0.400288 -0.000181415 0)
(0.400406 -0.000259797 0)
(0.400547 -0.000354423 0)
(0.400717 -0.000469211 0)
(0.400918 -0.000607896 0)
(0.401157 -0.000775333 0)
(0.401441 -0.000978103 0)
(0.40178 -0.00122444 0)
(0.402186 -0.00152463 0)
(0.402674 -0.00189168 0)
(0.403261 -0.00234198 0)
(0.40397 -0.00289586 0)
(0.404831 -0.0035783 0)
(0.405877 -0.00441975 0)
(0.407151 -0.00545756 0)
(0.408706 -0.0067365 0)
(0.410606 -0.00831064 0)
(0.41293 -0.0102467 0)
(0.415775 -0.0126262 0)
(0.419265 -0.0155495 0)
(0.423544 -0.019141 0)
(0.428823 -0.0235505 0)
(0.435275 -0.028974 0)
(0.44342 -0.0355801 0)
(0.452984 -0.0438624 0)
(0.466756 -0.0530293 0)
(0.400006 -1.65279e-05 0)
(0.400031 -5.24029e-05 0)
(0.400086 -9.92386e-05 0)
(0.400163 -0.000160194 0)
(0.400256 -0.000234916 0)
(0.400366 -0.000323867 0)
(0.400497 -0.00043023 0)
(0.400653 -0.00055846 0)
(0.400839 -0.000713324 0)
(0.401059 -0.000900486 0)
(0.40132 -0.00112722 0)
(0.401631 -0.00140271 0)
(0.402003 -0.00173848 0)
(0.402449 -0.00214913 0)
(0.402986 -0.002653 0)
(0.403633 -0.00327288 0)
(0.404418 -0.00403669 0)
(0.40537 -0.00497846 0)
(0.406529 -0.0061396 0)
(0.407941 -0.00757016 0)
(0.409666 -0.00933091 0)
(0.411773 -0.0114966 0)
(0.414352 -0.0141591 0)
(0.417513 -0.0174318 0)
(0.421387 -0.0214557 0)
(0.426167 -0.0264026 0)
(0.432007 -0.032495 0)
(0.439409 -0.0399524 0)
(0.448066 -0.0492613 0)
(0.460808 -0.0599768 0)
(0.400005 -2.38261e-05 0)
(0.400026 -7.35731e-05 0)
(0.400074 -0.000131027 0)
(0.400143 -0.000200445 0)
(0.400227 -0.00028375 0)
(0.400327 -0.000382627 0)
(0.400446 -0.000500486 0)
(0.400589 -0.000642005 0)
(0.400757 -0.000812494 0)
(0.400956 -0.00101829 0)
(0.401192 -0.00126743 0)
(0.401472 -0.00156998 0)
(0.401807 -0.00193859 0)
(0.402207 -0.00238924 0)
(0.402687 -0.00294205 0)
(0.403266 -0.00362196 0)
(0.403966 -0.0044595 0)
(0.404814 -0.00549182 0)
(0.405845 -0.00676403 0)
(0.4071 -0.0083308 0)
(0.408631 -0.0102587 0)
(0.410499 -0.0126297 0)
(0.412783 -0.0155448 0)
(0.415579 -0.0191288 0)
(0.419002 -0.0235379 0)
(0.423225 -0.0289643 0)
(0.428378 -0.0356556 0)
(0.434935 -0.0438813 0)
(0.442564 -0.0541229 0)
(0.454058 -0.066291 0)
(0.400004 -3.00794e-05 0)
(0.400022 -9.17139e-05 0)
(0.400064 -0.000158955 0)
(0.400124 -0.00023651 0)
(0.4002 -0.000327851 0)
(0.40029 -0.000435762 0)
(0.400396 -0.000563882 0)
(0.400523 -0.000717033 0)
(0.400673 -0.000901033 0)
(0.400849 -0.00112291 0)
(0.401058 -0.00139137 0)
(0.401305 -0.00171725 0)
(0.401598 -0.00211417 0)
(0.401949 -0.00259933 0)
(0.402368 -0.0031944 0)
(0.402872 -0.00392618 0)
(0.40348 -0.00482751 0)
(0.404216 -0.00593822 0)
(0.405109 -0.00730665 0)
(0.406194 -0.00899148 0)
(0.407514 -0.0110643 0)
(0.409123 -0.0136131 0)
(0.411086 -0.0167469 0)
(0.413485 -0.0206005 0)
(0.416417 -0.0253433 0)
(0.42003 -0.0311853 0)
(0.424429 -0.0383975 0)
(0.430043 -0.0472957 0)
(0.436531 -0.058359 0)
(0.446556 -0.0718492 0)
(0.400004 -3.53896e-05 0)
(0.400019 -0.000107249 0)
(0.400055 -0.000183331 0)
(0.400107 -0.00026845 0)
(0.400174 -0.000367081 0)
(0.400253 -0.000482904 0)
(0.400346 -0.000619885 0)
(0.400457 -0.000783056 0)
(0.400587 -0.000978673 0)
(0.400739 -0.00121434 0)
(0.400918 -0.00149934 0)
(0.401129 -0.0018452 0)
(0.401379 -0.00226633 0)
(0.401676 -0.00278099 0)
(0.402031 -0.00341209 0)
(0.402455 -0.00418804 0)
(0.402966 -0.00514352 0)
(0.403582 -0.00632064 0)
(0.404327 -0.00777038 0)
(0.40523 -0.00955471 0)
(0.406326 -0.0117493 0)
(0.407659 -0.0144471 0)
(0.409279 -0.0177633 0)
(0.411255 -0.0218412 0)
(0.413662 -0.0268609 0)
(0.41662 -0.0330476 0)
(0.420207 -0.0406917 0)
(0.424793 -0.0501506 0)
(0.430037 -0.0619021 0)
(0.438377 -0.0765415 0)
(0.400003 -3.98933e-05 0)
(0.400016 -0.000120499 0)
(0.400047 -0.000204353 0)
(0.400092 -0.000296227 0)
(0.400149 -0.000401228 0)
(0.400216 -0.00052375 0)
(0.400296 -0.000668137 0)
(0.40039 -0.000839643 0)
(0.400499 -0.00104485 0)
(0.400626 -0.0012918 0)
(0.400774 -0.00159028 0)
(0.400948 -0.00195233 0)
(0.401152 -0.00239304 0)
(0.401393 -0.00293149 0)
(0.401679 -0.00359161 0)
(0.402019 -0.00440305 0)
(0.402427 -0.00540197 0)
(0.402918 -0.00663223 0)
(0.403508 -0.00814691 0)
(0.40422 -0.0100105 0)
(0.405081 -0.0123017 0)
(0.406124 -0.0151173 0)
(0.407385 -0.0185774 0)
(0.408916 -0.0228311 0)
(0.41077 -0.0280669 0)
(0.413036 -0.0345213 0)
(0.415765 -0.0425002 0)
(0.41925 -0.0523951 0)
(0.423165 -0.0646809 0)
(0.429621 -0.0802539 0)
(0.400002 -4.36777e-05 0)
(0.400014 -0.000131662 0)
(0.400039 -0.000222159 0)
(0.400077 -0.000319831 0)
(0.400124 -0.000430175 0)
(0.400181 -0.000558132 0)
(0.400246 -0.000708399 0)
(0.400322 -0.000886423 0)
(0.40041 -0.00109903 0)
(0.400511 -0.00135461 0)
(0.400627 -0.00166333 0)
(0.400761 -0.00203766 0)
(0.400918 -0.00249319 0)
(0.4011 -0.00304959 0)
(0.401315 -0.00373157 0)
(0.401569 -0.00456965 0)
(0.401871 -0.00560108 0)
(0.402231 -0.00687096 0)
(0.40266 -0.00843384 0)
(0.403175 -0.0103559 0)
(0.403793 -0.012718 0)
(0.404534 -0.0156194 0)
(0.405425 -0.0191831 0)
(0.406494 -0.0235623 0)
(0.407776 -0.0289503 0)
(0.409325 -0.0355911 0)
(0.411161 -0.0438005 0)
(0.413491 -0.0539943 0)
(0.416012 -0.0666417 0)
(0.420418 -0.0828909 0)
(0.400002 -4.68097e-05 0)
(0.400011 -0.000140888 0)
(0.400032 -0.00023689 0)
(0.400062 -0.000339314 0)
(0.400101 -0.000453883 0)
(0.400146 -0.000585936 0)
(0.400197 -0.000740471 0)
(0.400255 -0.000923108 0)
(0.400321 -0.00114085 0)
(0.400395 -0.00140232 0)
(0.400478 -0.00171798 0)
(0.400572 -0.00210055 0)
(0.400679 -0.00256596 0)
(0.400803 -0.00313428 0)
(0.400945 -0.00383067 0)
(0.40111 -0.00468624 0)
(0.401302 -0.00573888 0)
(0.401528 -0.0070344 0)
(0.401794 -0.00862817 0)
(0.402106 -0.0105873 0)
(0.402475 -0.0129937 0)
(0.40291 -0.0159478 0)
(0.403421 -0.0195738 0)
(0.40402 -0.0240263 0)
(0.404718 -0.0295007 0)
(0.405534 -0.0362435 0)
(0.406458 -0.0445739 0)
(0.4076 -0.0549213 0)
(0.408687 -0.0677425 0)
(0.410926 -0.0843749 0)
(0.400002 -4.93355e-05 0)
(0.400009 -0.000148312 0)
(0.400025 -0.00024869 0)
(0.400049 -0.000354763 0)
(0.400078 -0.000472358 0)
(0.400112 -0.000607107 0)
(0.400149 -0.000764251 0)
(0.400189 -0.000949546 0)
(0.400232 -0.00117009 0)
(0.400279 -0.00143465 0)
(0.400328 -0.00175383 0)
(0.400382 -0.00214051 0)
(0.40044 -0.00261078 0)
(0.400502 -0.00318486 0)
(0.400571 -0.00388812 0)
(0.400645 -0.00475188 0)
(0.400727 -0.00581424 0)
(0.400818 -0.00712122 0)
(0.400917 -0.00872837 0)
(0.401026 -0.0107029 0)
(0.401143 -0.0131268 0)
(0.401268 -0.0161001 0)
(0.401397 -0.0197467 0)
(0.401523 -0.0242203 0)
(0.401633 -0.0297145 0)
(0.401714 -0.0364738 0)
(0.401721 -0.0448135 0)
(0.401666 -0.0551643 0)
(0.401309 -0.0679621 0)
(0.401324 -0.0846595 0)
(0.400001 -5.13042e-05 0)
(0.400007 -0.000154065 0)
(0.400019 -0.000257716 0)
(0.400036 -0.000366299 0)
(0.400057 -0.000485669 0)
(0.400079 -0.000621667 0)
(0.400102 -0.000779728 0)
(0.400124 -0.000965683 0)
(0.400145 -0.00118666 0)
(0.400164 -0.00145146 0)
(0.40018 -0.00177072 0)
(0.400193 -0.00215735 0)
(0.400201 -0.0026274 0)
(0.400203 -0.00320105 0)
(0.400197 -0.00390359 0)
(0.400181 -0.00476618 0)
(0.400152 -0.00582674 0)
(0.400107 -0.00713097 0)
(0.40004 -0.00873395 0)
(0.399945 -0.0107022 0)
(0.399812 -0.0131167 0)
(0.399628 -0.016076 0)
(0.399376 -0.0197018 0)
(0.399032 -0.0241444 0)
(0.398561 -0.0295925 0)
(0.397914 -0.0362835 0)
(0.397016 -0.0445217 0)
(0.395782 -0.0547259 0)
(0.394001 -0.0673012 0)
(0.391807 -0.0837343 0)
(0.400001 -5.27673e-05 0)
(0.400005 -0.000158289 0)
(0.400013 -0.000264149 0)
(0.400025 -0.000374089 0)
(0.400037 -0.000493938 0)
(0.400048 -0.00062971 0)
(0.400056 -0.000786976 0)
(0.40006 -0.000971582 0)
(0.400059 -0.0011906 0)
(0.400051 -0.00145278 0)
(0.400035 -0.00176869 0)
(0.400007 -0.00215111 0)
(0.399965 -0.00261588 0)
(0.399907 -0.00318293 0)
(0.399827 -0.00387717 0)
(0.399722 -0.00472932 0)
(0.399584 -0.00577663 0)
(0.399404 -0.00706401 0)
(0.399173 -0.00864545 0)
(0.398876 -0.0105861 0)
(0.398495 -0.0129647 0)
(0.398008 -0.0158774 0)
(0.397382 -0.0194418 0)
(0.396578 -0.0238028 0)
(0.395538 -0.0291407 0)
(0.394183 -0.0356816 0)
(0.392409 -0.0437114 0)
(0.390038 -0.0536245 0)
(0.386888 -0.0657848 0)
(0.382577 -0.0816306 0)
(0.400001 -5.37851e-05 0)
(0.400003 -0.000161148 0)
(0.400008 -0.000268207 0)
(0.400014 -0.000378339 0)
(0.400019 -0.000497344 0)
(0.400019 -0.000631397 0)
(0.400013 -0.000786159 0)
(0.4 -0.000967414 0)
(0.399977 -0.0011821 0)
(0.399943 -0.00143883 0)
(0.399893 -0.00174798 0)
(0.399826 -0.00212208 0)
(0.399736 -0.00257659 0)
(0.399618 -0.00313095 0)
(0.399467 -0.00380946 0)
(0.399273 -0.00464202 0)
(0.399028 -0.00566486 0)
(0.398717 -0.00692158 0)
(0.398325 -0.00846449 0)
(0.397831 -0.0103565 0)
(0.397209 -0.0126737 0)
(0.396425 -0.0155082 0)
(0.395437 -0.0189721 0)
(0.394188 -0.023203 0)
(0.392601 -0.0283701 0)
(0.390568 -0.0346839 0)
(0.38796 -0.0424055 0)
(0.38452 -0.0518938 0)
(0.380086 -0.0634618 0)
(0.373824 -0.0784226 0)
(0.4 -5.44326e-05 0)
(0.400002 -0.000162847 0)
(0.400004 -0.000270154 0)
(0.400005 -0.000379306 0)
(0.400002 -0.000496118 0)
(0.399992 -0.000626962 0)
(0.399973 -0.000777531 0)
(0.399944 -0.000953455 0)
(0.3999 -0.00116147 0)
(0.39984 -0.00140998 0)
(0.399758 -0.00170905 0)
(0.399652 -0.0020708 0)
(0.399515 -0.00251017 0)
(0.39934 -0.00304592 0)
(0.399119 -0.00370145 0)
(0.39884 -0.00450555 0)
(0.39849 -0.00549302 0)
(0.398052 -0.0067057 0)
(0.397504 -0.00819368 0)
(0.39682 -0.010017 0)
(0.395966 -0.0122481 0)
(0.394898 -0.0149741 0)
(0.393563 -0.0183007 0)
(0.391888 -0.022356 0)
(0.389783 -0.027296 0)
(0.387113 -0.033312 0)
(0.383726 -0.040636 0)
(0.379304 -0.0495813 0)
(0.373701 -0.0604033 0)
(0.365719 -0.0742244 0)
(0.4 -5.48077e-05 0)
(0.400001 -0.000163646 0)
(0.400001 -0.000270315 0)
(0.399998 -0.000377295 0)
(0.399988 -0.000490539 0)
(0.399969 -0.000616693 0)
(0.399937 -0.000761425 0)
(0.399891 -0.000930094 0)
(0.399828 -0.00112916 0)
(0.399743 -0.00136674 0)
(0.399631 -0.00165251 0)
(0.399488 -0.00199805 0)
(0.399305 -0.00241761 0)
(0.399075 -0.00292904 0)
(0.398787 -0.00355463 0)
(0.398426 -0.00432172 0)
(0.397977 -0.00526337 0)
(0.397417 -0.00641919 0)
(0.396721 -0.00783655 0)
(0.395856 -0.00957209 0)
(0.39478 -0.0116937 0)
(0.393443 -0.0142829 0)
(0.391779 -0.0174376 0)
(0.389705 -0.0212754 0)
(0.387114 -0.0259373 0)
(0.383855 -0.031593 0)
(0.379756 -0.0384421 0)
(0.374457 -0.0467459 0)
(0.36782 -0.0566986 0)
(0.358399 -0.0691836 0)
(0.4 -5.50434e-05 0)
(0.4 -0.000163889 0)
(0.399999 -0.000269078 0)
(0.399993 -0.000372647 0)
(0.399977 -0.000480957 0)
(0.399949 -0.000600991 0)
(0.399906 -0.000738252 0)
(0.399845 -0.000897772 0)
(0.399762 -0.00108571 0)
(0.399654 -0.00130978 0)
(0.399514 -0.00157917 0)
(0.399335 -0.00190479 0)
(0.39911 -0.00230005 0)
(0.398827 -0.00278176 0)
(0.398476 -0.00337084 0)
(0.398038 -0.0040929 0)
(0.397494 -0.00497889 0)
(0.39682 -0.00606581 0)
(0.395984 -0.00739783 0)
(0.394948 -0.00902762 0)
(0.393664 -0.011018 0)
(0.392074 -0.0134442 0)
(0.390104 -0.0163953 0)
(0.387659 -0.0199777 0)
(0.384622 -0.0243163 0)
(0.380828 -0.0295579 0)
(0.37609 -0.0358684 0)
(0.370028 -0.0434542 0)
(0.362509 -0.0524492 0)
(0.351956 -0.06347 0)
(0.4 -5.53232e-05 0)
(0.4 -0.000164038 0)
(0.399999 -0.000266937 0)
(0.399991 -0.000365703 0)
(0.39997 -0.000467643 0)
(0.399934 -0.000580245 0)
(0.39988 -0.000708597 0)
(0.399805 -0.000857198 0)
(0.399705 -0.00103188 0)
(0.399574 -0.00123997 0)
(0.399407 -0.00149005 0)
(0.399196 -0.00179223 0)
(0.39893 -0.00215893 0)
(0.3986 -0.00260571 0)
(0.398188 -0.00315191 0)
(0.397679 -0.0038212 0)
(0.397047 -0.00464211 0)
(0.396266 -0.00564873 0)
(0.3953 -0.0068816 0)
(0.394105 -0.00838897 0)
(0.392629 -0.0102282 0)
(0.390806 -0.0124672 0)
(0.388555 -0.0151865 0)
(0.385772 -0.0184802 0)
(0.382331 -0.0224567 0)
(0.378058 -0.0272399 0)
(0.372759 -0.0329625 0)
(0.366052 -0.0397769 0)
(0.357807 -0.0477623 0)
(0.346434 -0.0572635 0)
(0.4 -5.59242e-05 0)
(0.400002 -0.000164717 0)
(0.400002 -0.000264442 0)
(0.399993 -0.000356914 0)
(0.399968 -0.000451075 0)
(0.399924 -0.000554884 0)
(0.39986 -0.000672801 0)
(0.399772 -0.000808785 0)
(0.399656 -0.000968356 0)
(0.399506 -0.00115837 0)
(0.399314 -0.00138667 0)
(0.399072 -0.00166247 0)
(0.39877 -0.00199705 0)
(0.398395 -0.00240455 0)
(0.397929 -0.00290254 0)
(0.397354 -0.00351245 0)
(0.396642 -0.00426011 0)
(0.395763 -0.0051763 0)
(0.394678 -0.00629762 0)
(0.393339 -0.00766745 0)
(0.391687 -0.00933719 0)
(0.389653 -0.0113675 0)
(0.387146 -0.0138294 0)
(0.384059 -0.0168049 0)
(0.380259 -0.0203864 0)
(0.375566 -0.0246752 0)
(0.369787 -0.029774 0)
(0.362548 -0.0357848 0)
(0.353729 -0.0427432 0)
(0.341828 -0.0507394 0)
(0.400001 -5.72939e-05 0)
(0.400005 -0.000166768 0)
(0.400008 -0.000262119 0)
(0.4 -0.000346748 0)
(0.399971 -0.00043206 0)
(0.399921 -0.000525853 0)
(0.399848 -0.000631603 0)
(0.399749 -0.000752922 0)
(0.399618 -0.000895103 0)
(0.39945 -0.00106439 0)
(0.399236 -0.0012678 0)
(0.398967 -0.00151354 0)
(0.398632 -0.0018117 0)
(0.398216 -0.00217494 0)
(0.397702 -0.00261886 0)
(0.397066 -0.00316252 0)
(0.396282 -0.0038288 0)
(0.395316 -0.00464495 0)
(0.394124 -0.00564329 0)
(0.392655 -0.00686202 0)
(0.390848 -0.00834629 0)
(0.388624 -0.0101492 0)
(0.385892 -0.0123322 0)
(0.382537 -0.0149657 0)
(0.378422 -0.0181264 0)
(0.37337 -0.0218946 0)
(0.367184 -0.0263467 0)
(0.359521 -0.0315421 0)
(0.350267 -0.037487 0)
(0.338086 -0.0440547 0)
(0.400002 -6.02143e-05 0)
(0.400011 -0.000171515 0)
(0.40002 -0.000260301 0)
(0.400014 -0.000334799 0)
(0.399982 -0.000410428 0)
(0.399926 -0.000494145 0)
(0.399846 -0.000587794 0)
(0.399737 -0.000694411 0)
(0.399594 -0.000818949 0)
(0.399409 -0.000966956 0)
(0.399176 -0.00114459 0)
(0.398883 -0.00135896 0)
(0.398519 -0.00161882 0)
(0.398068 -0.00193508 0)
(0.39751 -0.00232125 0)
(0.396823 -0.00279375 0)
(0.395975 -0.00337231 0)
(0.394932 -0.00408039 0)
(0.393646 -0.00494575 0)
(0.392065 -0.0060012 0)
(0.39012 -0.00728538 0)
(0.387732 -0.00884355 0)
(0.384803 -0.010728 0)
(0.381217 -0.0129978 0)
(0.376834 -0.015715 0)
(0.371478 -0.0189409 0)
(0.364959 -0.0227306 0)
(0.356964 -0.02711 0)
(0.347389 -0.0320759 0)
(0.335124 -0.0373383 0)
(0.400004 -6.59853e-05 0)
(0.400022 -0.000181279 0)
(0.400041 -0.000260808 0)
(0.400037 -0.000321494 0)
(0.400002 -0.000383347 0)
(0.39994 -0.000452383 0)
(0.399854 -0.000529566 0)
(0.399737 -0.000617666 0)
(0.399583 -0.000720997 0)
(0.399385 -0.000844034 0)
(0.399135 -0.000992055 0)
(0.398822 -0.00117108 0)
(0.398432 -0.0013885 0)
(0.397951 -0.00165346 0)
(0.397357 -0.00197716 0)
(0.396625 -0.00237323 0)
(0.395724 -0.00285807 0)
(0.394615 -0.00345114 0)
(0.393251 -0.0041754 0)
(0.391574 -0.00505799 0)
(0.389514 -0.00613087 0)
(0.386987 -0.00743149 0)
(0.383893 -0.0090031 0)
(0.380113 -0.0108949 0)
(0.375508 -0.0131551 0)
(0.369907 -0.0158269 0)
(0.363124 -0.0189502 0)
(0.354884 -0.0225247 0)
(0.345094 -0.0265652 0)
(0.332894 -0.0306807 0)
(0.400008 -7.63582e-05 0)
(0.400041 -0.000196636 0)
(0.400076 -0.000267976 0)
(0.400076 -0.000321125 0)
(0.400038 -0.000375486 0)
(0.399973 -0.000433753 0)
(0.399882 -0.000496942 0)
(0.399758 -0.000568368 0)
(0.399595 -0.000651951 0)
(0.399386 -0.000750858 0)
(0.399122 -0.000869477 0)
(0.398792 -0.0010126 0)
(0.398382 -0.00118613 0)
(0.397876 -0.00139744 0)
(0.397253 -0.00165548 0)
(0.396485 -0.00197098 0)
(0.395541 -0.00235681 0)
(0.39438 -0.00282827 0)
(0.392952 -0.00340347 0)
(0.391199 -0.00410375 0)
(0.389048 -0.00495417 0)
(0.386413 -0.00598412 0)
(0.383191 -0.00722782 0)
(0.379262 -0.0087269 0)
(0.374494 -0.0105172 0)
(0.368721 -0.012625 0)
(0.361771 -0.0150821 0)
(0.353393 -0.0178621 0)
(0.343518 -0.0210292 0)
(0.331482 -0.0241306 0)
(0.400016 -9.94627e-05 0)
(0.400071 -0.000200075 0)
(0.400123 -0.00023959 0)
(0.400126 -0.000273852 0)
(0.400087 -0.000313879 0)
(0.40002 -0.000356217 0)
(0.399926 -0.000401526 0)
(0.399797 -0.000453162 0)
(0.399628 -0.000514051 0)
(0.399411 -0.000587076 0)
(0.399136 -0.000674798 0)
(0.398794 -0.000780744 0)
(0.398369 -0.00090936 0)
(0.397845 -0.00106595 0)
(0.3972 -0.00125696 0)
(0.396406 -0.00149014 0)
(0.39543 -0.0017748 0)
(0.394231 -0.00212188 0)
(0.392759 -0.00254437 0)
(0.390953 -0.00305769 0)
(0.388742 -0.00368012 0)
(0.38604 -0.00443339 0)
(0.382743 -0.00534252 0)
(0.378741 -0.00644502 0)
(0.373901 -0.00776642 0)
(0.368057 -0.00931731 0)
(0.361052 -0.0111271 0)
(0.352606 -0.0131439 0)
(0.342757 -0.0154865 0)
(0.330539 -0.0175388 0)
(0.400025 -0.000164184 0)
(0.400175 -0.000321208 0)
(0.400228 -0.000315945 0)
(0.4002 -0.000327562 0)
(0.400142 -0.000350669 0)
(0.400062 -0.000375954 0)
(0.399951 -0.000403855 0)
(0.399804 -0.000435724 0)
(0.399612 -0.000474068 0)
(0.39937 -0.000516345 0)
(0.399067 -0.00056952 0)
(0.398691 -0.00063495 0)
(0.398227 -0.000714883 0)
(0.397656 -0.000812838 0)
(0.396955 -0.000933016 0)
(0.396097 -0.00108026 0)
(0.395048 -0.00126032 0)
(0.393767 -0.00148022 0)
(0.392204 -0.00174839 0)
(0.390302 -0.00207486 0)
(0.387988 -0.0024714 0)
(0.385179 -0.00295193 0)
(0.381769 -0.00353264 0)
(0.377655 -0.00423167 0)
(0.37254 -0.00506448 0)
(0.366356 -0.00604253 0)
(0.358941 -0.00717818 0)
(0.349931 -0.00842901 0)
(0.339708 -0.00995158 0)
(0.325546 -0.0105948 0)
(0.399645 -0.000112906 0)
(0.399346 -0.000189615 0)
(0.398881 -0.000206714 0)
(0.398333 -0.000217652 0)
(0.39776 -0.000229693 0)
(0.397165 -0.000240768 0)
(0.396537 -0.000251559 0)
(0.39587 -0.000263376 0)
(0.395155 -0.000277091 0)
(0.394386 -0.000294085 0)
(0.393552 -0.000314275 0)
(0.392639 -0.000338418 0)
(0.391629 -0.000367563 0)
(0.390501 -0.000402835 0)
(0.389228 -0.000445744 0)
(0.387777 -0.000498292 0)
(0.386107 -0.000562874 0)
(0.38417 -0.000642235 0)
(0.381905 -0.000739598 0)
(0.379239 -0.000858871 0)
(0.376085 -0.00100479 0)
(0.372337 -0.00118282 0)
(0.367869 -0.00139945 0)
(0.362545 -0.00165466 0)
(0.35621 -0.00195359 0)
(0.348677 -0.00230476 0)
(0.33974 -0.00271119 0)
(0.329182 -0.00313387 0)
(0.316997 -0.00380091 0)
(0.298674 -0.00320138 0)
(0.488218 -0.0084094 1.1114e-20)
(0.495264 -0.0130265 -1.27368e-17)
(0.501628 -0.0182342 1.27875e-17)
(0.50683 -0.0239252 6.42175e-18)
(0.511389 -0.0300301 4.84627e-18)
(0.515617 -0.0365394 9.77067e-18)
(0.519611 -0.0434978 4.90326e-18)
(0.523438 -0.050972 1.31989e-17)
(0.527171 -0.0590155 6.65898e-18)
(0.530864 -0.0676647 3.34046e-18)
(0.534528 -0.0769512 -3.37879e-18)
(0.538156 -0.0869131 6.78054e-18)
(0.541735 -0.0976002 3.45113e-18)
(0.54526 -0.109076 3.46323e-18)
(0.548735 -0.121422 6.97504e-18)
(0.552169 -0.134734 3.53807e-18)
(0.55558 -0.149134 1.06196e-17)
(0.558986 -0.164768 0)
(0.562409 -0.181814 0)
(0.565877 -0.200495 3.57539e-18)
(0.569418 -0.221086 -3.49332e-20)
(0.573069 -0.243934 3.63819e-18)
(0.576875 -0.269473 0)
(0.580862 -0.298294 7.1649e-18)
(0.585199 -0.330993 3.54174e-18)
(0.589371 -0.369085 -3.58928e-18)
(0.59588 -0.411246 3.46523e-18)
(0.595351 -0.470665 3.43079e-18)
(0.617075 -0.50677 9.69491e-18)
(0.579682 -0.648144 -3.0344e-18)
(0.494617 -0.0180664 -6.41179e-18)
(0.49915 -0.022651 7.25029e-18)
(0.50294 -0.0281501 -7.30063e-18)
(0.506121 -0.0341063 0)
(0.509146 -0.0404185 -6.60577e-18)
(0.512217 -0.0471356 -6.64079e-18)
(0.515333 -0.0543313 -1.67339e-18)
(0.518465 -0.0620501 -1.1826e-17)
(0.521601 -0.0703114 -6.80211e-18)
(0.524718 -0.0791338 -6.88829e-18)
(0.527779 -0.0885498 3.45975e-18)
(0.530752 -0.0986074 -3.50302e-18)
(0.533623 -0.109367 -7.03472e-18)
(0.536388 -0.120899 -7.09597e-18)
(0.53905 -0.133289 -7.15786e-18)
(0.541611 -0.146637 -7.21983e-18)
(0.544075 -0.161064 -1.46206e-17)
(0.54644 -0.176714 3.67437e-18)
(0.548705 -0.193766 -3.72855e-18)
(0.550867 -0.212437 -1.12565e-17)
(0.55292 -0.232997 3.48863e-20)
(0.554855 -0.255783 -5.26768e-20)
(0.556647 -0.281213 -4.97268e-20)
(0.558271 -0.309835 -1.15194e-17)
(0.559705 -0.34225 -7.67941e-18)
(0.56059 -0.37973 -3.7268e-18)
(0.562269 -0.42165 1.26808e-19)
(0.557857 -0.477467 -1.22085e-19)
(0.571415 -0.517629 -1.06473e-17)
(0.528611 -0.647456 0)
(0.492013 -0.027151 0)
(0.495201 -0.0317362 0)
(0.498062 -0.037279 0)
(0.500856 -0.0433213 -8.35218e-19)
(0.503709 -0.0497385 7.58517e-18)
(0.506599 -0.0565567 -1.69948e-18)
(0.509456 -0.063819 1.71937e-18)
(0.512229 -0.0715508 6.91853e-18)
(0.514898 -0.079778 -1.74619e-18)
(0.51745 -0.0885407 8.81514e-18)
(0.519874 -0.0978908 3.55965e-18)
(0.522163 -0.107886 -3.60693e-18)
(0.524317 -0.118587 3.63083e-18)
(0.526333 -0.130065 -3.68161e-18)
(0.528203 -0.142401 -7.45361e-18)
(0.529916 -0.155692 7.5335e-18)
(0.531453 -0.170059 7.55162e-18)
(0.532798 -0.185644 0)
(0.533924 -0.20262 0)
(0.534801 -0.221201 7.77093e-18)
(0.535388 -0.241647 0)
(0.535631 -0.264276 1.19456e-17)
(0.535446 -0.289491 4.02239e-18)
(0.534743 -0.317793 7.98213e-18)
(0.533359 -0.349785 1.19961e-17)
(0.53098 -0.386503 4.0911e-18)
(0.528163 -0.427852 0)
(0.519941 -0.480468 1.58708e-17)
(0.524549 -0.523806 0)
(0.478494 -0.641391 7.50326e-18)
(0.489109 -0.0365325 0)
(0.491739 -0.0413103 0)
(0.494103 -0.0469399 0)
(0.496537 -0.0530119 -6.85079e-18)
(0.49899 -0.0594328 0)
(0.501355 -0.0662376 0)
(0.503594 -0.0734761 0)
(0.505713 -0.0811831 7.13024e-18)
(0.507713 -0.0893918 0)
(0.509592 -0.0981423 0)
(0.511337 -0.10748 0)
(0.512935 -0.117454 -7.45143e-18)
(0.51437 -0.12812 -7.5385e-18)
(0.515624 -0.139547 -3.79375e-18)
(0.516674 -0.151815 -4.49716e-20)
(0.517494 -0.165024 -7.73686e-18)
(0.518054 -0.17929 1.64576e-20)
(0.518319 -0.194751 1.20063e-17)
(0.518245 -0.211576 4.02306e-18)
(0.517773 -0.229965 -4.0937e-18)
(0.51683 -0.250164 -4.11503e-18)
(0.51532 -0.272472 -4.10538e-18)
(0.513107 -0.297261 -4.19896e-18)
(0.510043 -0.324985 1.28814e-17)
(0.505847 -0.356216 0)
(0.500242 -0.391775 -1.30118e-17)
(0.493135 -0.431921 -4.37939e-18)
(0.481187 -0.481298 2.81667e-19)
(0.47724 -0.52557 -1.29754e-17)
(0.429174 -0.630818 6.05805e-19)
(0.485177 -0.0455155 0)
(0.487235 -0.0503475 6.86716e-18)
(0.489006 -0.0559564 -8.65223e-19)
(0.490927 -0.0620037 1.4879e-17)
(0.492872 -0.0684218 0)
(0.494691 -0.0752383 0)
(0.496365 -0.0824888 7.24732e-18)
(0.497916 -0.090199 -7.2949e-18)
(0.499341 -0.0983955 0)
(0.50062 -0.107114 0)
(0.501728 -0.116399 0)
(0.502646 -0.1263 7.64732e-18)
(0.503351 -0.136877 7.74336e-18)
(0.503819 -0.148199 -3.92996e-18)
(0.504021 -0.160347 1.1939e-17)
(0.503922 -0.173415 0)
(0.50348 -0.187514 8.23673e-18)
(0.502644 -0.202775 -1.24797e-17)
(0.501348 -0.219356 -4.22366e-18)
(0.49951 -0.237444 0)
(0.497025 -0.257266 0)
(0.493762 -0.279094 0)
(0.489538 -0.303267 0)
(0.484154 -0.330186 -4.46815e-18)
(0.477234 -0.360373 -4.60595e-18)
(0.468527 -0.39447 4.57103e-18)
(0.457415 -0.432966 4.72577e-18)
(0.441925 -0.478942 -9.29775e-18)
(0.429997 -0.522795 9.3552e-18)
(0.380964 -0.616032 -9.07454e-18)
(0.480309 -0.0541043 -6.94614e-18)
(0.481836 -0.0590013 -6.5624e-18)
(0.483058 -0.0646308 -1.32953e-18)
(0.484493 -0.0706895 -5.36666e-18)
(0.485959 -0.0771144 -1.59426e-21)
(0.487264 -0.0839232 -2.75257e-18)
(0.488389 -0.0911453 4.13253e-20)
(0.489366 -0.0988065 -7.54319e-18)
(0.490188 -0.106937 -5.73763e-18)
(0.49083 -0.115575 7.74665e-18)
(0.491263 -0.124765 0)
(0.491468 -0.134558 9.94472e-18)
(0.491417 -0.14501 -1.0092e-17)
(0.491079 -0.156186 -8.19813e-18)
(0.490415 -0.168163 1.24608e-17)
(0.489381 -0.181028 -1.26645e-17)
(0.487919 -0.194885 -4.2378e-18)
(0.485963 -0.209857 -4.43967e-18)
(0.483429 -0.226088 -4.40445e-18)
(0.480212 -0.243749 1.35252e-17)
(0.476182 -0.263045 0)
(0.471175 -0.284218 4.63041e-18)
(0.46497 -0.307567 -9.4493e-18)
(0.457326 -0.333437 9.74594e-18)
(0.447796 -0.362289 4.91829e-18)
(0.436137 -0.394608 1.00904e-17)
(0.421329 -0.431 0)
(0.402532 -0.47334 1.0486e-17)
(0.383391 -0.515567 0)
(0.334197 -0.597195 -1.07464e-17)
(0.474506 -0.0622195 7.08083e-18)
(0.475516 -0.0671612 3.59751e-18)
(0.476198 -0.072786 -3.64379e-18)
(0.477136 -0.0788192 2.7701e-18)
(0.478106 -0.0852062 1.35184e-21)
(0.47888 -0.0919641 1.31236e-21)
(0.479442 -0.0991215 -6.67228e-18)
(0.479833 -0.106705 1.90564e-18)
(0.480046 -0.114744 1.17704e-17)
(0.480049 -0.123275 -9.94575e-18)
(0.479811 -0.132339 2.02197e-18)
(0.479303 -0.141984 -1.02431e-17)
(0.478496 -0.152263 8.31348e-18)
(0.477348 -0.163236 8.44527e-18)
(0.475813 -0.174975 -4.25217e-18)
(0.473834 -0.187562 8.72701e-18)
(0.471346 -0.201092 0)
(0.468266 -0.215676 4.49883e-18)
(0.464496 -0.231443 4.63284e-18)
(0.459912 -0.248546 -9.37486e-18)
(0.454361 -0.267163 0)
(0.447654 -0.287505 -4.90059e-18)
(0.439537 -0.309826 2.27533e-20)
(0.429735 -0.334415 -1.01364e-17)
(0.417754 -0.361659 1.04894e-17)
(0.403347 -0.391914 -1.60193e-17)
(0.385208 -0.425807 0)
(0.363414 -0.464297 -1.10099e-17)
(0.337939 -0.503946 1.2367e-19)
(0.289464 -0.574493 1.16327e-17)
(0.467774 -0.0697501 3.64025e-18)
(0.468277 -0.0747147 -3.21223e-18)
(0.468428 -0.0803107 3.25554e-18)
(0.468872 -0.0862934 -7.56242e-18)
(0.469346 -0.0926167 -3.84293e-18)
(0.469592 -0.0992976 -9.70891e-19)
(0.469597 -0.106362 3.95544e-18)
(0.469406 -0.113834 9.00236e-18)
(0.469013 -0.121743 4.07578e-18)
(0.468378 -0.130122 -2.06136e-18)
(0.467465 -0.139011 2.09688e-18)
(0.466243 -0.148453 -2.14962e-18)