/*--------------------------------*- C++ -*----------------------------------*\
  =========                 |
  \\      /  F ield         | OpenFOAM: The Open Source CFD Toolbox
   \\    /   O peration     | Website:  https://openfoam.org
    \\  /    A nd           | Version:  11
     \\/     M anipulation  |
\*---------------------------------------------------------------------------*/
FoamFile
{
    format      ascii;
    class       volVectorField;
    location    "10";
    object      U;
}
// * * * * * * * * * * * * * * * * * * * * * * * * * * * * * * * * * * * * * //

dimensions      [0 1 -1 0 0 0 0];

internalField   nonuniform List<vector> 
12600
(
(0.412112 0.000108586 0)
(0.411839 0.0001816 0)
(0.411421 0.000191557 0)
(0.410945 0.000194872 0)
(0.410472 0.000199578 0)
(0.410009 0.00020282 0)
(0.409549 0.00020456 0)
(0.40909 0.000205602 0)
(0.408633 0.00020617 0)
(0.408179 0.000206256 0)
(0.407731 0.000205865 0)
(0.407289 0.000204982 0)
(0.406855 0.000203495 0)
(0.406431 0.000201203 0)
(0.40602 0.000197972 0)
(0.405625 0.000193839 0)
(0.40525 0.000188599 0)
(0.404901 0.000181595 0)
(0.404581 0.000172504 0)
(0.404298 0.000161548 0)
(0.404062 0.000148282 0)
(0.403885 0.000133109 0)
(0.40378 0.000115806 0)
(0.403764 8.89552e-05 0)
(0.403863 4.87305e-05 0)
(0.404108 -4.21419e-06 0)
(0.404544 -6.67988e-05 0)
(0.405227 -0.000141859 0)
(0.406341 -0.00026719 0)
(0.406773 -0.000830238 0)
(0.412491 0.000155862 0)
(0.412638 0.000284547 0)
(0.412767 0.000266785 0)
(0.412812 0.000259536 0)
(0.412852 0.000261779 0)
(0.412899 0.000261678 0)
(0.41295 0.000259521 0)
(0.413002 0.000256659 0)
(0.413056 0.000253279 0)
(0.413113 0.000249165 0)
(0.413174 0.000244128 0)
(0.413242 0.000237998 0)
(0.413316 0.000230508 0)
(0.4134 0.000221249 0)
(0.413496 0.000209583 0)
(0.413606 0.00019502 0)
(0.413734 0.000176897 0)
(0.413885 0.000156221 0)
(0.414062 0.000132303 0)
(0.414272 0.000100615 0)
(0.414523 6.1202e-05 0)
(0.414824 1.21674e-05 0)
(0.415188 -5.00592e-05 0)
(0.415628 -0.000126512 0)
(0.416167 -0.000219691 0)
(0.416808 -0.000337098 0)
(0.417647 -0.000487753 0)
(0.418508 -0.000709019 0)
(0.419908 -0.000992111 0)
(0.420117 -0.00182604 0)
(0.41248 8.49866e-05 0)
(0.412552 0.000155731 0)
(0.41264 0.000162975 0)
(0.412701 0.000164955 0)
(0.412746 0.000170529 0)
(0.412792 0.00017258 0)
(0.412842 0.000171058 0)
(0.412896 0.000168174 0)
(0.412952 0.000164328 0)
(0.41301 0.000159309 0)
(0.413073 0.000152784 0)
(0.413141 0.000144523 0)
(0.413214 0.000133968 0)
(0.413294 0.000120449 0)
(0.413385 0.000103907 0)
(0.413489 8.30362e-05 0)
(0.413609 5.76409e-05 0)
(0.413751 2.65812e-05 0)
(0.413918 -1.50739e-05 0)
(0.414115 -6.61893e-05 0)
(0.41435 -0.000126779 0)
(0.414629 -0.000201294 0)
(0.414964 -0.00029369 0)
(0.415371 -0.000409657 0)
(0.415865 -0.000554792 0)
(0.416469 -0.000742314 0)
(0.417212 -0.00097474 0)
(0.418117 -0.00128745 0)
(0.419181 -0.00169845 0)
(0.42047 -0.00206738 0)
(0.412472 5.69919e-05 0)
(0.41252 0.000135901 0)
(0.412591 0.00016701 0)
(0.412648 0.00017576 0)
(0.412692 0.00018415 0)
(0.412736 0.00018704 0)
(0.412784 0.000185361 0)
(0.412836 0.000181708 0)
(0.41289 0.000176605 0)
(0.412947 0.000170106 0)
(0.413008 0.000161897 0)
(0.413074 0.000151424 0)
(0.413145 0.00013804 0)
(0.413224 0.000120483 0)
(0.413313 9.65102e-05 0)
(0.413414 6.70528e-05 0)
(0.413531 3.14712e-05 0)
(0.413668 -1.1678e-05 0)
(0.413829 -6.53583e-05 0)
(0.414021 -0.000130758 0)
(0.414247 -0.000211958 0)
(0.414516 -0.000312418 0)
(0.414839 -0.000437121 0)
(0.415229 -0.000593432 0)
(0.415703 -0.000789464 0)
(0.416282 -0.00103726 0)
(0.416988 -0.00134891 0)
(0.41786 -0.00174099 0)
(0.418884 -0.00224908 0)
(0.420279 -0.00263234 0)
(0.412468 4.158e-05 0)
(0.4125 0.00010705 0)
(0.412554 0.000135819 0)
(0.412605 0.000142772 0)
(0.412648 0.000144425 0)
(0.41269 0.000143718 0)
(0.412736 0.000139565 0)
(0.412787 0.00013266 0)
(0.41284 0.000124196 0)
(0.412896 0.000114505 0)
(0.412955 0.000102889 0)
(0.413019 8.90007e-05 0)
(0.413088 7.14059e-05 0)
(0.413165 4.84649e-05 0)
(0.413251 1.94766e-05 0)
(0.41335 -1.79578e-05 0)
(0.413464 -6.31008e-05 0)
(0.413595 -0.000117774 0)
(0.41375 -0.000184329 0)
(0.413932 -0.000266345 0)
(0.414148 -0.000367617 0)
(0.414404 -0.000492478 0)
(0.414711 -0.000647451 0)
(0.415082 -0.000841169 0)
(0.41553 -0.00108387 0)
(0.416078 -0.001389 0)
(0.416742 -0.00177305 0)
(0.417572 -0.00224636 0)
(0.41854 -0.00285708 0)
(0.419943 -0.00342651 0)
(0.412465 3.13426e-05 0)
(0.412488 8.42874e-05 0)
(0.41253 0.000113243 0)
(0.412576 0.000123175 0)
(0.412618 0.000126404 0)
(0.412659 0.0001267 0)
(0.412703 0.00012337 0)
(0.412752 0.000116952 0)
(0.412804 0.000108636 0)
(0.412858 9.8755e-05 0)
(0.412916 8.66943e-05 0)
(0.412978 7.12591e-05 0)
(0.413046 5.12821e-05 0)
(0.41312 2.57017e-05 0)
(0.413202 -6.87022e-06 0)
(0.413296 -4.94214e-05 0)
(0.413405 -0.000102565 0)
(0.41353 -0.000167608 0)
(0.413677 -0.000246763 0)
(0.413849 -0.00034366 0)
(0.414053 -0.000462693 0)
(0.414294 -0.000609567 0)
(0.414582 -0.000792017 0)
(0.414928 -0.00102004 0)
(0.415345 -0.00130592 0)
(0.415854 -0.00166463 0)
(0.41647 -0.00211581 0)
(0.417246 -0.00267094 0)
(0.418145 -0.00339109 0)
(0.419495 -0.00412805 0)
(0.412464 2.42978e-05 0)
(0.412481 6.71969e-05 0)
(0.412515 9.38473e-05 0)
(0.412555 0.000104256 0)
(0.412595 0.000106166 0)
(0.412634 0.000103842 0)
(0.412677 9.78354e-05 0)
(0.412723 8.87591e-05 0)
(0.412773 7.76507e-05 0)
(0.412825 6.48622e-05 0)
(0.412881 4.97412e-05 0)
(0.412941 3.10725e-05 0)
(0.413005 6.92423e-06 0)
(0.413077 -2.43706e-05 0)
(0.413156 -6.394e-05 0)
(0.413245 -0.000113066 0)
(0.413348 -0.000174102 0)
(0.413466 -0.000248804 0)
(0.413603 -0.000339692 0)
(0.413764 -0.000450688 0)
(0.413954 -0.000586889 0)
(0.414177 -0.000754894 0)
(0.414443 -0.000963374 0)
(0.414761 -0.00122345 0)
(0.415143 -0.00154898 0)
(0.415608 -0.00195674 0)
(0.416168 -0.00246926 0)
(0.416877 -0.00310319 0)
(0.417694 -0.00392196 0)
(0.418951 -0.00482359 0)
(0.412463 1.91359e-05 0)
(0.412476 5.37116e-05 0)
(0.412504 7.67105e-05 0)
(0.41254 8.61964e-05 0)
(0.412577 8.68068e-05 0)
(0.412614 8.27163e-05 0)
(0.412655 7.53059e-05 0)
(0.4127 6.52038e-05 0)
(0.412748 5.31621e-05 0)
(0.412799 3.93943e-05 0)
(0.412852 2.31632e-05 0)
(0.41291 3.1619e-06 0)
(0.412971 -2.25955e-05 0)
(0.413039 -5.61546e-05 0)
(0.413114 -9.94673e-05 0)
(0.413198 -0.000153837 0)
(0.413294 -0.000221431 0)
(0.413404 -0.000304266 0)
(0.413531 -0.00040512 0)
(0.41368 -0.000528172 0)
(0.413853 -0.000679014 0)
(0.414056 -0.00086497 0)
(0.414297 -0.00109563 0)
(0.414584 -0.00138328 0)
(0.414926 -0.00174332 0)
(0.415342 -0.00219439 0)
(0.41584 -0.00276164 0)
(0.416471 -0.00346698 0)
(0.41719 -0.00437494 0)
(0.418326 -0.00542487 0)
(0.412463 1.51134e-05 0)
(0.412473 4.27122e-05 0)
(0.412497 6.16674e-05 0)
(0.412528 6.9475e-05 0)
(0.412563 6.87351e-05 0)
(0.412599 6.29567e-05 0)
(0.412638 5.38667e-05 0)
(0.412681 4.22011e-05 0)
(0.412727 2.85556e-05 0)
(0.412775 1.30367e-05 0)
(0.412826 -5.19078e-06 0)
(0.412881 -2.77218e-05 0)
(0.41294 -5.64761e-05 0)
(0.413003 -9.36564e-05 0)
(0.413074 -0.000141374 0)
(0.413152 -0.000201261 0)
(0.41324 -0.00027542 0)
(0.413341 -0.000366161 0)
(0.413458 -0.000476512 0)
(0.413592 -0.000610881 0)
(0.413747 -0.000775286 0)
(0.413929 -0.00097768 0)
(0.414143 -0.00122841 0)
(0.414395 -0.00154065 0)
(0.414695 -0.00193096 0)
(0.415056 -0.00241965 0)
(0.415485 -0.00303403 0)
(0.416029 -0.00380146 0)
(0.416638 -0.00478552 0)
(0.417629 -0.00596807 0)
(0.412462 1.18254e-05 0)
(0.412471 3.34765e-05 0)
(0.412492 4.83772e-05 0)
(0.41252 5.39904e-05 0)
(0.412552 5.16399e-05 0)
(0.412587 4.41057e-05 0)
(0.412624 3.32648e-05 0)
(0.412665 2.00514e-05 0)
(0.412709 5.00644e-06 0)
(0.412755 -1.18798e-05 0)
(0.412804 -3.15116e-05 0)
(0.412855 -5.5646e-05 0)
(0.41291 -8.64008e-05 0)
(0.41297 -0.000126132 0)
(0.413035 -0.000177063 0)
(0.413107 -0.000241101 0)
(0.413188 -0.000320379 0)
(0.413279 -0.000417357 0)
(0.413383 -0.000535248 0)
(0.413503 -0.000678658 0)
(0.41364 -0.000853931 0)
(0.413798 -0.00106949 0)
(0.413983 -0.00133626 0)
(0.414198 -0.00166814 0)
(0.414452 -0.00208271 0)
(0.414754 -0.00260167 0)
(0.41511 -0.00325408 0)
(0.415558 -0.00407198 0)
(0.416047 -0.0051174 0)
(0.416871 -0.00640988 0)
(0.412462 9.02936e-06 0)
(0.41247 2.54866e-05 0)
(0.412488 3.64626e-05 0)
(0.412514 3.95819e-05 0)
(0.412544 3.54194e-05 0)
(0.412577 2.61497e-05 0)
(0.412613 1.36477e-05 0)
(0.412652 -1.01414e-06 0)
(0.412693 -1.73351e-05 0)
(0.412737 -3.54605e-05 0)
(0.412783 -5.64209e-05 0)
(0.412832 -8.20824e-05 0)
(0.412883 -0.000114744 0)
(0.412938 -0.000156869 0)
(0.412998 -0.000210801 0)
(0.413064 -0.00027861 0)
(0.413136 -0.000362474 0)
(0.413217 -0.000464946 0)
(0.413308 -0.000589384 0)
(0.413412 -0.00074054 0)
(0.413529 -0.000924982 0)
(0.413663 -0.00115146 0)
(0.413817 -0.00143131 0)
(0.413994 -0.00177894 0)
(0.4142 -0.00221253 0)
(0.41444 -0.00275476 0)
(0.414718 -0.00343581 0)
(0.415064 -0.00429152 0)
(0.415424 -0.00538133 0)
(0.416063 -0.00675965 0)
(0.412462 6.56882e-06 0)
(0.412469 1.83715e-05 0)
(0.412485 2.55866e-05 0)
(0.412509 2.60682e-05 0)
(0.412538 1.99817e-05 0)
(0.412569 9.02567e-06 0)
(0.412604 -5.0283e-06 0)
(0.41264 -2.10395e-05 0)
(0.41268 -3.85318e-05 0)
(0.412721 -5.77588e-05 0)
(0.412765 -7.98568e-05 0)
(0.41281 -0.000106783 0)
(0.412858 -0.000140963 0)
(0.412908 -0.000184962 0)
(0.412962 -0.000241209 0)
(0.413021 -0.000311893 0)
(0.413085 -0.000399235 0)
(0.413155 -0.000505843 0)
(0.413233 -0.000635159 0)
(0.41332 -0.000792027 0)
(0.413417 -0.000983147 0)
(0.413526 -0.00121745 0)
(0.413648 -0.00150649 0)
(0.413786 -0.00186493 0)
(0.413941 -0.00231124 0)
(0.414119 -0.00286862 0)
(0.414315 -0.00356772 0)
(0.414554 -0.004447 0)
(0.414781 -0.00556259 0)
(0.415221 -0.00699806 0)
(0.412462 4.33165e-06 0)
(0.412468 1.18636e-05 0)
(0.412484 1.55006e-05 0)
(0.412506 1.33168e-05 0)
(0.412533 5.25651e-06 0)
(0.412563 -7.33179e-06 0)
(0.412596 -2.28239e-05 0)
(0.412631 -4.00611e-05 0)
(0.412668 -5.85782e-05 0)
(0.412707 -7.8717e-05 0)
(0.412748 -0.000101719 0)
(0.41279 -0.00012963 0)
(0.412834 -0.000164969 0)
(0.41288 -0.000210379 0)
(0.412928 -0.000268358 0)
(0.412979 -0.00034117 0)
(0.413034 -0.000431067 0)
(0.413094 -0.000540676 0)
(0.413158 -0.000673476 0)
(0.413228 -0.000834332 0)
(0.413304 -0.00102998 0)
(0.413387 -0.00126939 0)
(0.413477 -0.00156414 0)
(0.413575 -0.00192887 0)
(0.41368 -0.00238201 0)
(0.413793 -0.0029467 0)
(0.413907 -0.00365331 0)
(0.414038 -0.00454159 0)
(0.414129 -0.00566342 0)
(0.414361 -0.00712507 0)
(0.412461 2.23638e-06 0)
(0.412468 5.74766e-06 0)
(0.412483 5.94503e-06 0)
(0.412504 1.12832e-06 0)
(0.41253 -8.8645e-06 0)
(0.412559 -2.29755e-05 0)
(0.41259 -3.97627e-05 0)
(0.412624 -5.80794e-05 0)
(0.412659 -7.74625e-05 0)
(0.412695 -9.83252e-05 0)
(0.412733 -0.000122003 0)
(0.412772 -0.000150614 0)
(0.412811 -0.000186743 0)
(0.412852 -0.000233081 0)
(0.412895 -0.000292168 0)
(0.412939 -0.000366305 0)
(0.412985 -0.000457757 0)
(0.413033 -0.000569137 0)
(0.413084 -0.000703898 0)
(0.413137 -0.000866869 0)
(0.413192 -0.00106472 0)
(0.413249 -0.00130631 0)
(0.413307 -0.00160307 0)
(0.413364 -0.00196935 0)
(0.413419 -0.00242315 0)
(0.413468 -0.00298702 0)
(0.413501 -0.00369028 0)
(0.413524 -0.00457249 0)
(0.413481 -0.0056804 0)
(0.413501 -0.00713489 0)
(0.412461 2.26998e-07 0)
(0.412468 -1.25055e-07 0)
(0.412482 -3.25e-06 0)
(0.412503 -1.06191e-05 0)
(0.412528 -2.24874e-05 0)
(0.412556 -3.80283e-05 0)
(0.412586 -5.59503e-05 0)
(0.412618 -7.51525e-05 0)
(0.412651 -9.5204e-05 0)
(0.412685 -0.000116583 0)
(0.41272 -0.000140696 0)
(0.412755 -0.000169711 0)
(0.412791 -0.000206245 0)
(0.412827 -0.000253015 0)
(0.412864 -0.000312577 0)
(0.4129 -0.000387242 0)
(0.412937 -0.000479258 0)
(0.412974 -0.00059119 0)
(0.413011 -0.000726426 0)
(0.413047 -0.000889691 0)
(0.413081 -0.0010875 0)
(0.413112 -0.00132849 0)
(0.413138 -0.00162373 0)
(0.413157 -0.00198705 0)
(0.413162 -0.00243565 0)
(0.413149 -0.00299095 0)
(0.413103 -0.00368044 0)
(0.413021 -0.00454196 0)
(0.412849 -0.00561624 0)
(0.412661 -0.00702976 0)
(0.412461 -1.83334e-06 0)
(0.412468 -5.8945e-06 0)
(0.412482 -1.22014e-05 0)
(0.412502 -2.20964e-05 0)
(0.412527 -3.57675e-05 0)
(0.412554 -5.25736e-05 0)
(0.412583 -7.14262e-05 0)
(0.412614 -9.13105e-05 0)
(0.412645 -0.000111829 0)
(0.412677 -0.000133507 0)
(0.412709 -0.000157804 0)
(0.412741 -0.000186915 0)
(0.412772 -0.000223466 0)
(0.412804 -0.000270173 0)
(0.412834 -0.000329581 0)
(0.412864 -0.000403983 0)
(0.412891 -0.000495578 0)
(0.412917 -0.000606861 0)
(0.41294 -0.000741107 0)
(0.412959 -0.00090288 0)
(0.412973 -0.00109845 0)
(0.412979 -0.00133611 0)
(0.412974 -0.00162642 0)
(0.412954 -0.00198244 0)
(0.412912 -0.00242023 0)
(0.412839 -0.0029596 0)
(0.412719 -0.00362547 0)
(0.412538 -0.00445249 0)
(0.412246 -0.00547453 0)
(0.411861 -0.00681424 0)
(0.412461 -3.84761e-06 0)
(0.412468 -1.16374e-05 0)
(0.412482 -2.12349e-05 0)
(0.412503 -3.35468e-05 0)
(0.412528 -4.88238e-05 0)
(0.412554 -6.66978e-05 0)
(0.412582 -8.62749e-05 0)
(0.412611 -0.00010662 0)
(0.412641 -0.000127375 0)
(0.41267 -0.000149114 0)
(0.412699 -0.000173334 0)
(0.412728 -0.00020224 0)
(0.412756 -0.000238432 0)
(0.412782 -0.000284594 0)
(0.412807 -0.000343231 0)
(0.412829 -0.000416585 0)
(0.412848 -0.000506791 0)
(0.412863 -0.000616239 0)
(0.412873 -0.000748064 0)
(0.412875 -0.000906617 0)
(0.412869 -0.00109786 0)
(0.412851 -0.00132962 0)
(0.412816 -0.0016118 0)
(0.41276 -0.00195648 0)
(0.412673 -0.00237835 0)
(0.412544 -0.0028951 0)
(0.412355 -0.0035285 0)
(0.412083 -0.00430867 0)
(0.411683 -0.00526202 0)
(0.411121 -0.00649815 0)
(0.412462 -5.88381e-06 0)
(0.412468 -1.7635e-05 0)
(0.412483 -3.04717e-05 0)
(0.412504 -4.50644e-05 0)
(0.412529 -6.17724e-05 0)
(0.412556 -8.05005e-05 0)
(0.412583 -0.000100573 0)
(0.412611 -0.000121143 0)
(0.412639 -0.000141896 0)
(0.412666 -0.000163452 0)
(0.412692 -0.000187337 0)
(0.412718 -0.000215732 0)
(0.412742 -0.00025119 0)
(0.412763 -0.000296327 0)
(0.412782 -0.000353583 0)
(0.412798 -0.000425129 0)
(0.412808 -0.000513007 0)
(0.412812 -0.000619486 0)
(0.412809 -0.000747524 0)
(0.412796 -0.000901215 0)
(0.41277 -0.00108614 0)
(0.412729 -0.00130959 0)
(0.412666 -0.00158068 0)
(0.412575 -0.00191038 0)
(0.412447 -0.0023117 0)
(0.412267 -0.00279997 0)
(0.412016 -0.00339331 0)
(0.411663 -0.00411621 0)
(0.41117 -0.00498733 0)
(0.410458 -0.00609506 0)
(0.412462 -8.05712e-06 0)
(0.412469 -2.39681e-05 0)
(0.412485 -4.01103e-05 0)
(0.412507 -5.68589e-05 0)
(0.412533 -7.4749e-05 0)
(0.412559 -9.40781e-05 0)
(0.412586 -0.000114408 0)
(0.412612 -0.000134956 0)
(0.412638 -0.000155454 0)
(0.412664 -0.000176577 0)
(0.412688 -0.000199864 0)
(0.41271 -0.000227451 0)
(0.41273 -0.000261804 0)
(0.412747 -0.000305449 0)
(0.412761 -0.000360735 0)
(0.412769 -0.000429736 0)
(0.412771 -0.000514388 0)
(0.412766 -0.000616818 0)
(0.41275 -0.000739787 0)
(0.412722 -0.000887099 0)
(0.412678 -0.00106391 0)
(0.412614 -0.00127689 0)
(0.412525 -0.00153428 0)
(0.412403 -0.0018458 0)
(0.412237 -0.00222269 0)
(0.412011 -0.00267763 0)
(0.411705 -0.00322485 0)
(0.411284 -0.0038825 0)
(0.410714 -0.00466151 0)
(0.409884 -0.00562282 0)
(0.412462 -1.04399e-05 0)
(0.41247 -3.08571e-05 0)
(0.412487 -5.03992e-05 0)
(0.412511 -6.90999e-05 0)
(0.412537 -8.78725e-05 0)
(0.412564 -0.000107538 0)
(0.41259 -0.000127874 0)
(0.412616 -0.000148134 0)
(0.412641 -0.000168112 0)
(0.412664 -0.000188556 0)
(0.412686 -0.000210998 0)
(0.412705 -0.000237489 0)
(0.412722 -0.000270384 0)
(0.412735 -0.000312088 0)
(0.412743 -0.000364831 0)
(0.412745 -0.000430573 0)
(0.412739 -0.00051112 0)
(0.412724 -0.000608441 0)
(0.412696 -0.000725082 0)
(0.412654 -0.000864527 0)
(0.412593 -0.00103147 0)
(0.412509 -0.00123192 0)
(0.412396 -0.0014732 0)
(0.412244 -0.00176372 0)
(0.412044 -0.00211284 0)
(0.411778 -0.00253056 0)
(0.411426 -0.00302714 0)
(0.41095 -0.0036141 0)
(0.410322 -0.00429522 0)
(0.409407 -0.00510011 0)
(0.412462 -1.31422e-05 0)
(0.412471 -3.85791e-05 0)
(0.412491 -6.16137e-05 0)
(0.412517 -8.19672e-05 0)
(0.412544 -0.000101265 0)
(0.412571 -0.000120996 0)
(0.412597 -0.000141082 0)
(0.412622 -0.000160768 0)
(0.412646 -0.000179938 0)
(0.412667 -0.000199435 0)
(0.412687 -0.000220772 0)
(0.412703 -0.000245894 0)
(0.412716 -0.000277013 0)
(0.412725 -0.00031639 0)
(0.412729 -0.000366118 0)
(0.412725 -0.000428024 0)
(0.412712 -0.000503772 0)
(0.412687 -0.000595163 0)
(0.412649 -0.000704515 0)
(0.412593 -0.000834971 0)
(0.412516 -0.000990724 0)
(0.412414 -0.0011771 0)
(0.412279 -0.00140047 0)
(0.412102 -0.00166789 0)
(0.411872 -0.00198687 0)
(0.411572 -0.00236476 0)
(0.411182 -0.00280803 0)
(0.410663 -0.00332171 0)
(0.409995 -0.0039035 0)
(0.409033 -0.00455074 0)
(0.412462 -1.63272e-05 0)
(0.412473 -4.74957e-05 0)
(0.412496 -7.4082e-05 0)
(0.412525 -9.5643e-05 0)
(0.412554 -0.000115032 0)
(0.412581 -0.000134547 0)
(0.412607 -0.000154135 0)
(0.412631 -0.000172985 0)
(0.412654 -0.000191102 0)
(0.412674 -0.000209404 0)
(0.412691 -0.000229343 0)
(0.412705 -0.000252726 0)
(0.412715 -0.000281614 0)
(0.412721 -0.000318092 0)
(0.412719 -0.00036409 0)
(0.41271 -0.000421304 0)
(0.41269 -0.000491243 0)
(0.412657 -0.000575531 0)
(0.412608 -0.000676255 0)
(0.41254 -0.000796223 0)
(0.412449 -0.000939132 0)
(0.41233 -0.00110963 0)
(0.412175 -0.00131313 0)
(0.411976 -0.00155542 0)
(0.41172 -0.00184221 0)
(0.411392 -0.00217836 0)
(0.410972 -0.00256698 0)
(0.410424 -0.00300719 0)
(0.409732 -0.00349218 0)
(0.408755 -0.00398924 0)
(0.412463 -2.02532e-05 0)
(0.412476 -5.81401e-05 0)
(0.412503 -8.81829e-05 0)
(0.412536 -0.000110314 0)
(0.412567 -0.000129314 0)
(0.412595 -0.000148269 0)
(0.41262 -0.000166972 0)
(0.412644 -0.000184646 0)
(0.412666 -0.000201535 0)
(0.412685 -0.00021863 0)
(0.4127 -0.000237262 0)
(0.412712 -0.000259037 0)
(0.412719 -0.000285811 0)
(0.412721 -0.000319493 0)
(0.412716 -0.000361826 0)
(0.412701 -0.00041431 0)
(0.412675 -0.000478306 0)
(0.412634 -0.000555272 0)
(0.412576 -0.000647049 0)
(0.412498 -0.000756079 0)
(0.412394 -0.000885534 0)
(0.412259 -0.00103939 0)
(0.412087 -0.00122215 0)
(0.411869 -0.00143836 0)
(0.411592 -0.00169207 0)
(0.411241 -0.00198594 0)
(0.410799 -0.00232024 0)
(0.410232 -0.00268913 0)
(0.409531 -0.00308344 0)
(0.408568 -0.00344522 0)
(0.412464 -2.5323e-05 0)
(0.412481 -7.12571e-05 0)
(0.412513 -0.00010426 0)
(0.412551 -0.000126098 0)
(0.412584 -0.000144442 0)
(0.412612 -0.00016268 0)
(0.412638 -0.000180012 0)
(0.412662 -0.000195742 0)
(0.412683 -0.000210483 0)
(0.4127 -0.000225351 0)
(0.412713 -0.000241584 0)
(0.412723 -0.00026061 0)
(0.412728 -0.000284082 0)
(0.412727 -0.000313721 0)
(0.412718 -0.000351069 0)
(0.412698 -0.000397418 0)
(0.412666 -0.000453976 0)
(0.412619 -0.000522043 0)
(0.412553 -0.000603243 0)
(0.412465 -0.000699675 0)
(0.41235 -0.000814008 0)
(0.412202 -0.000949607 0)
(0.412015 -0.00111014 0)
(0.41178 -0.00129898 0)
(0.411486 -0.00151874 0)
(0.411118 -0.00177015 0)
(0.410661 -0.00205133 0)
(0.410084 -0.00235252 0)
(0.409385 -0.00266481 0)
(0.408457 -0.0029121 0)
(0.412465 -3.22632e-05 0)
(0.412488 -8.79742e-05 0)
(0.412529 -0.000122508 0)
(0.412571 -0.000142532 0)
(0.412606 -0.000159967 0)
(0.412635 -0.000177972 0)
(0.412662 -0.000194833 0)
(0.412686 -0.000209898 0)
(0.412706 -0.000223991 0)
(0.412722 -0.000238164 0)
(0.412734 -0.000253474 0)
(0.412742 -0.000271114 0)
(0.412745 -0.000292519 0)
(0.412741 -0.000319176 0)
(0.412729 -0.000352424 0)
(0.412706 -0.0003934 0)
(0.412669 -0.000443155 0)
(0.412615 -0.000502797 0)
(0.412542 -0.000573736 0)
(0.412446 -0.000657708 0)
(0.412321 -0.000756863 0)
(0.412162 -0.000874001 0)
(0.411963 -0.00101201 0)
(0.411714 -0.00117322 0)
(0.411406 -0.00135908 0)
(0.411025 -0.00156873 0)
(0.410558 -0.00179887 0)
(0.409979 -0.00203677 0)
(0.409289 -0.00227702 0)
(0.408407 -0.00243224 0)
(0.412468 -4.24037e-05 0)
(0.4125 -0.000110264 0)
(0.412552 -0.000144169 0)
(0.4126 -0.000159845 0)
(0.412636 -0.000173538 0)
(0.412665 -0.000187587 0)
(0.412692 -0.000200073 0)
(0.412717 -0.00021099 0)
(0.412736 -0.00022137 0)
(0.412751 -0.000232065 0)
(0.412762 -0.000243975 0)
(0.412769 -0.000258064 0)
(0.41277 -0.000275467 0)
(0.412763 -0.000297361 0)
(0.412748 -0.00032483 0)
(0.412722 -0.000358781 0)
(0.412681 -0.000400093 0)
(0.412622 -0.000449698 0)
(0.412543 -0.000508888 0)
(0.412439 -0.000578985 0)
(0.412307 -0.000661672 0)
(0.412139 -0.000759465 0)
(0.411929 -0.000874477 0)
(0.41167 -0.00100794 0)
(0.411352 -0.00116033 0)
(0.410962 -0.00132946 0)
(0.41049 -0.00151124 0)
(0.409913 -0.00168984 0)
(0.409238 -0.00186994 0)
(0.408396 -0.00195407 0)
(0.412472 -5.75955e-05 0)
(0.41252 -0.000139015 0)
(0.412588 -0.000172781 0)
(0.412643 -0.000190045 0)
(0.41268 -0.000206793 0)
(0.41271 -0.000222022 0)
(0.412738 -0.000234194 0)
(0.412762 -0.000244473 0)
(0.412782 -0.000254191 0)
(0.412796 -0.000264037 0)
(0.412805 -0.000274559 0)
(0.41281 -0.000286619 0)
(0.41281 -0.000301206 0)
(0.412802 -0.000319246 0)
(0.412784 -0.000341649 0)
(0.412755 -0.000369172 0)
(0.41271 -0.000402526 0)
(0.412648 -0.000442354 0)
(0.412564 -0.000489975 0)
(0.412455 -0.000546303 0)
(0.412315 -0.00061195 0)
(0.412139 -0.000689224 0)
(0.411922 -0.000780238 0)
(0.411655 -0.000885458 0)
(0.41133 -0.00100457 0)
(0.410936 -0.00113441 0)
(0.410465 -0.00127034 0)
(0.409892 -0.00139171 0)
(0.409235 -0.00151507 0)
(0.408411 -0.00154549 0)
(0.412479 -8.54957e-05 0)
(0.412551 -0.000157294 0)
(0.412638 -0.00016905 0)
(0.412696 -0.000177377 0)
(0.412734 -0.000189289 0)
(0.412766 -0.000199778 0)
(0.412796 -0.000207791 0)
(0.41282 -0.000214708 0)
(0.412839 -0.000221367 0)
(0.412853 -0.00022826 0)
(0.412862 -0.000236539 0)
(0.412866 -0.000246142 0)
(0.412865 -0.000257654 0)
(0.412856 -0.000271677 0)
(0.412836 -0.000288699 0)
(0.412805 -0.000309265 0)
(0.412758 -0.000334025 0)
(0.412692 -0.000363763 0)
(0.412604 -0.000399072 0)
(0.412491 -0.000441194 0)
(0.412347 -0.000491741 0)
(0.412165 -0.000550989 0)
(0.411942 -0.000619235 0)
(0.411669 -0.000697316 0)
(0.411339 -0.000784848 0)
(0.410942 -0.000878428 0)
(0.410476 -0.000972853 0)
(0.409907 -0.00104145 0)
(0.409278 -0.00110732 0)
(0.408378 -0.00100597 0)
(0.41249 -0.000156034 0)
(0.41264 -0.000287283 0)
(0.412765 -0.000270905 0)
(0.412803 -0.000267209 0)
(0.41283 -0.000273436 0)
(0.412859 -0.000279034 0)
(0.412884 -0.000282544 0)
(0.412904 -0.000285539 0)
(0.412917 -0.000288781 0)
(0.412925 -0.000292464 0)
(0.412928 -0.000296774 0)
(0.412923 -0.000302091 0)
(0.412911 -0.000308725 0)
(0.41289 -0.000316948 0)
(0.412856 -0.000327416 0)
(0.412808 -0.000340201 0)
(0.412742 -0.000355865 0)
(0.412656 -0.000373593 0)
(0.412546 -0.000397369 0)
(0.412406 -0.000424099 0)
(0.412232 -0.000451992 0)
(0.412018 -0.000487879 0)
(0.411756 -0.00053242 0)
(0.41144 -0.000582752 0)
(0.411062 -0.00063861 0)
(0.410617 -0.000697576 0)
(0.410101 -0.000756091 0)
(0.409499 -0.000779089 0)
(0.408804 -0.000807901 0)
(0.407221 -0.000221829 0)
(0.412112 -0.000109019 0)
(0.411837 -0.000182229 0)
(0.411415 -0.000192953 0)
(0.410932 -0.000197311 0)
(0.410448 -0.000203295 0)
(0.409966 -0.000208017 0)
(0.409481 -0.000211612 0)
(0.408988 -0.000214865 0)
(0.408489 -0.000217939 0)
(0.407985 -0.000220812 0)
(0.407475 -0.000223651 0)
(0.406957 -0.00022661 0)
(0.406431 -0.000229851 0)
(0.405895 -0.000233525 0)
(0.405346 -0.000237682 0)
(0.404781 -0.000242498 0)
(0.404198 -0.000248184 0)
(0.403593 -0.000255124 0)
(0.40296 -0.000262875 0)
(0.402294 -0.000272281 0)
(0.40159 -0.000284784 0)
(0.400842 -0.000299251 0)
(0.40004 -0.000315146 0)
(0.399175 -0.000333024 0)
(0.39824 -0.000353183 0)
(0.397228 -0.000373707 0)
(0.396138 -0.000397181 0)
(0.394999 -0.000388265 0)
(0.393906 -0.000450534 0)
(0.391481 0.000293602 0)
(0.412248 -0.00161484 -1.52337e-18)
(0.41731 -0.0020626 -1.18588e-20)
(0.420966 -0.00237117 1.58228e-18)
(0.422796 -0.00285521 3.18773e-18)
(0.423773 -0.00354939 1.6321e-18)
(0.424419 -0.00442514 -1.62177e-18)
(0.424915 -0.00544683 1.66089e-18)
(0.425298 -0.00659788 0)
(0.425628 -0.00788111 1.69434e-18)
(0.425932 -0.00929957 -3.51833e-21)
(0.426204 -0.0108569 1.19616e-19)
(0.426429 -0.0125639 0)
(0.426591 -0.0144393 -2.03219e-18)
(0.426682 -0.016508 0)
(0.426692 -0.0188014 0)
(0.426609 -0.0213591 -2.25548e-18)
(0.426419 -0.0242326 -2.18414e-18)
(0.4261 -0.0274889 2.79087e-22)
(0.425626 -0.0312174 2.20229e-18)
(0.424963 -0.0355387 3.28749e-19)
(0.424066 -0.0406172 -3.0824e-18)
(0.422873 -0.0466968 3.59241e-19)
(0.421314 -0.0540751 -1.87871e-19)
(0.419254 -0.0634481 2.94567e-18)
(0.416651 -0.0749493 4.14377e-19)
(0.413063 -0.0921836 -2.16409e-19)
(0.408928 -0.110659 0)
(0.402769 -0.15379 -3.55205e-18)
(0.396626 -0.183541 -3.69351e-18)
(0.389824 -0.33468 0)
(0.42152 -0.00214246 1.52813e-18)
(0.423065 -0.00238541 -3.6186e-20)
(0.42391 -0.00291417 2.80945e-20)
(0.423931 -0.00367285 -1.61157e-18)
(0.423994 -0.00458431 -5.17089e-20)
(0.424195 -0.00559787 1.74879e-18)
(0.424416 -0.00670866 1.6342e-18)
(0.424687 -0.00792439 2.23596e-19)
(0.424955 -0.00925263 -1.14941e-19)
(0.425195 -0.0107 1.88933e-18)
(0.425388 -0.0122778 2.07344e-18)
(0.425517 -0.0140038 1.88727e-18)
(0.425573 -0.0158999 2.20831e-18)
(0.42555 -0.0179918 2.01522e-18)
(0.425438 -0.0203109 2.22543e-18)
(0.42522 -0.0228974 4.74846e-18)
(0.424877 -0.0258033 2.24787e-18)
(0.424383 -0.0290967 -2.65007e-18)
(0.423704 -0.0328677 2.76236e-18)
(0.422798 -0.0372376 -1.69516e-19)
(0.421604 -0.0423727 1.76688e-19)
(0.420048 -0.0485122 2.98525e-18)
(0.418017 -0.0559754 0)
(0.415364 -0.0653801 -2.06234e-19)
(0.411895 -0.0771044 3.71342e-18)
(0.407195 -0.0940461 0)
(0.401168 -0.113403 3.91176e-18)
(0.392226 -0.1547 -3.79391e-18)
(0.380758 -0.186648 -2.24983e-20)
(0.365476 -0.331041 2.61267e-18)
(0.421198 -0.00226354 -1.19297e-20)
(0.421777 -0.00270482 -1.2154e-20)
(0.42224 -0.00355509 -1.57099e-18)
(0.422568 -0.00453674 -5.11433e-20)
(0.422845 -0.00553949 5.24644e-20)
(0.423192 -0.00656811 -5.38136e-20)
(0.42354 -0.00766369 -1.71185e-18)
(0.42383 -0.00885799 0)
(0.424048 -0.0101625 0)
(0.4242 -0.0115872 0)
(0.424291 -0.0131466 -1.98199e-18)
(0.424314 -0.0148577 -1.21154e-19)
(0.424263 -0.0167399 -1.84859e-18)
(0.424127 -0.0188172 -2.18619e-18)
(0.42389 -0.0211209 -2.4071e-18)
(0.423533 -0.0236913 -2.3508e-18)
(0.423031 -0.0265809 1.66974e-19)
(0.422354 -0.0298577 2.38555e-18)
(0.421462 -0.0336112 -2.48866e-18)
(0.420302 -0.0379625 -1.73845e-19)
(0.418803 -0.0430775 0)
(0.416869 -0.0491909 -6.34083e-18)
(0.414363 -0.056637 2.01785e-19)
(0.411087 -0.0659625 -3.44925e-18)
(0.406783 -0.0777775 5.95799e-20)
(0.400884 -0.0942292 0)
(0.393106 -0.114459 -8.31991e-18)
(0.381218 -0.153204 8.46929e-18)
(0.364745 -0.188403 -4.64187e-18)
(0.340154 -0.323986 -2.88148e-18)
(0.421147 -0.00333266 0)
(0.421581 -0.00399548 -1.60682e-18)
(0.421971 -0.00484058 1.13702e-23)
(0.422248 -0.00571642 2.59447e-20)
(0.422478 -0.00660669 0)
(0.422702 -0.00756923 0)
(0.422894 -0.00863918 -1.79865e-18)
(0.423034 -0.00982469 0)
(0.423127 -0.0111257 1.18907e-19)
(0.423173 -0.0125479 -2.45053e-19)
(0.423166 -0.0141031 -8.71477e-23)
(0.423091 -0.0158067 -1.95493e-18)
(0.422934 -0.0176783 1.35164e-19)
(0.422679 -0.019743 2.1039e-18)
(0.42231 -0.022033 1.4532e-19)
(0.421804 -0.0245891 2.26964e-18)
(0.421133 -0.0274633 -2.50559e-18)
(0.420261 -0.0307229 -2.63076e-18)
(0.419142 -0.0344571 0)
(0.417712 -0.0387856 2.70583e-18)
(0.415886 -0.0438729 1.88201e-19)
(0.413549 -0.0499507 3.36715e-18)
(0.410531 -0.0573523 -2.09551e-19)
(0.406597 -0.0665947 3.54763e-18)
(0.401382 -0.0783726 -3.77257e-18)
(0.394265 -0.0944205 0)
(0.384531 -0.115019 4.43287e-18)
(0.369821 -0.151448 -4.58542e-18)
(0.347952 -0.188673 4.72545e-18)
(0.314235 -0.31424 1.3597e-19)
(0.420778 -0.00425764 0)
(0.421059 -0.00488696 1.60092e-18)
(0.42129 -0.00565023 0)
(0.421482 -0.00648921 0)
(0.421648 -0.0073967 0)
(0.4218 -0.00839327 0)
(0.421925 -0.00948899 1.82363e-18)
(0.422005 -0.0106837 5.87312e-20)
(0.422035 -0.0119804 -6.04802e-20)
(0.422006 -0.01339 0)
(0.421909 -0.014928 0)
(0.421731 -0.0166122 1.33323e-19)
(0.421459 -0.0184629 2.31365e-22)
(0.421079 -0.0205057 -2.42622e-18)
(0.420569 -0.022772 0)
(0.419907 -0.0253018 -2.46665e-18)
(0.419058 -0.0281462 0)
(0.417981 -0.0313717 2.85464e-18)
(0.416621 -0.0350661 -3.52977e-19)
(0.414906 -0.0393473 -2.76779e-18)
(0.412736 -0.0443768 1.57007e-18)
(0.409973 -0.0503811 0)
(0.406418 -0.057688 0)
(0.401789 -0.0667901 0)
(0.39563 -0.0784138 2.01716e-18)
(0.387244 -0.0940078 -2.17191e-18)
(0.375498 -0.114603 0)
(0.358 -0.148681 -2.52213e-18)
(0.330624 -0.187188 -2.78192e-18)
(0.288454 -0.301672 2.49061e-18)
(0.42026 -0.00506369 7.80146e-19)
(0.42045 -0.00571718 8.24967e-19)
(0.420594 -0.00648905 8.59274e-19)
(0.420732 -0.00733769 8.01839e-19)
(0.420849 -0.00825268 9.60693e-19)
(0.420934 -0.00924314 8.46686e-19)
(0.420977 -0.0103198 9.29242e-19)
(0.420969 -0.0114901 -9.57162e-19)
(0.420904 -0.0127629 6.16133e-20)
(0.420774 -0.0141504 8.91788e-19)
(0.420571 -0.0156666 1.05315e-18)
(0.420281 -0.0173278 1.02202e-18)
(0.41989 -0.0191532 1.40803e-19)
(0.419379 -0.021167 -1.17345e-18)
(0.418725 -0.0234004 1.52403e-19)
(0.4179 -0.0258924 -3.17118e-19)
(0.416865 -0.0286936 -1.16362e-18)
(0.415573 -0.0318689 -1.39139e-18)
(0.413962 -0.0355041 0)
(0.411948 -0.039714 -1.92228e-19)
(0.409416 -0.0446556 1.49977e-20)
(0.406208 -0.0505483 2.13282e-19)
(0.402092 -0.0577094 1.60892e-18)
(0.39674 -0.0666082 3.65751e-19)
(0.389604 -0.0779632 -9.04902e-20)
(0.37991 -0.0930289 2.39451e-18)
(0.366119 -0.113247 -1.53071e-19)
(0.345877 -0.144937 2.64086e-18)
(0.313015 -0.183788 3.11238e-18)
(0.263086 -0.28628 -2.86219e-18)
(0.419628 -0.00582455 -8.01691e-19)
(0.419743 -0.00648152 -8.09109e-19)
(0.41981 -0.00724168 -8.56685e-19)
(0.419879 -0.00807468 2.90166e-20)
(0.419928 -0.00897554 -1.75408e-18)
(0.419935 -0.00995209 -9.15199e-19)
(0.419894 -0.0110141 -2.00504e-18)
(0.419801 -0.012169 1.18506e-19)
(0.419648 -0.0134247 -6.268e-20)
(0.419426 -0.0147914 -2.07321e-18)
(0.419123 -0.0162822 4.34052e-21)
(0.418725 -0.0179129 -1.03884e-18)
(0.418214 -0.019703 1.08328e-18)
(0.417569 -0.0216767 -6.27883e-21)
(0.416765 -0.0238645 1.56189e-19)
(0.41577 -0.0263047 -1.62333e-19)
(0.414542 -0.029046 1.35617e-18)
(0.413027 -0.0321514 1.42144e-18)
(0.411154 -0.0357036 1.88305e-19)
(0.40883 -0.0398131 1.19471e-18)