/*--------------------------------*- C++ -*----------------------------------*\
  =========                 |
  \\      /  F ield         | OpenFOAM: The Open Source CFD Toolbox
   \\    /   O peration     | Website:  https://openfoam.org
    \\  /    A nd           | Version:  11
     \\/     M anipulation  |
\*---------------------------------------------------------------------------*/
FoamFile
{
    format      ascii;
    class       volScalarField;
    location    "7";
    object      p;
}
// * * * * * * * * * * * * * * * * * * * * * * * * * * * * * * * * * * * * * //

dimensions      [0 2 -2 0 0 0 0];

internalField   nonuniform List<scalar> 
12600
(
0.100176
0.10004
0.0999751
0.0999555
0.0999375
0.0999131
0.0998855
0.0998565
0.0998253
0.0997908
0.099752
0.0997076
0.0996566
0.0995973
0.0995278
0.0994461
0.0993489
0.0992334
0.0990954
0.0989305
0.0987312
0.0984901
0.0981986
0.0978452
0.0974156
0.0968923
0.0962543
0.0954717
0.0945113
0.0932654
0.100101
0.100031
0.0999775
0.0999546
0.0999357
0.0999121
0.0998851
0.0998564
0.0998255
0.0997913
0.0997528
0.0997088
0.0996582
0.0995995
0.0995307
0.0994498
0.0993537
0.0992395
0.0991028
0.0989397
0.0987428
0.0985049
0.0982166
0.097867
0.0974423
0.0969251
0.0962979
0.0955269
0.0946294
0.0936078
0.100065
0.100032
0.0999859
0.0999569
0.0999365
0.0999137
0.0998875
0.099859
0.0998285
0.0997947
0.0997567
0.0997134
0.0996636
0.0996058
0.0995382
0.0994591
0.0993653
0.0992536
0.0991203
0.0989595
0.0987666
0.0985337
0.0982517
0.0979096
0.0974943
0.0969891
0.0963761
0.0956314
0.0947545
0.0937091
0.100041
0.10002
0.0999836
0.0999548
0.0999341
0.0999126
0.0998874
0.0998598
0.09983
0.0997971
0.0997601
0.0997178
0.0996694
0.099613
0.0995471
0.0994704
0.0993796
0.0992714
0.099142
0.0989864
0.0987995
0.0985741
0.0983012
0.0979703
0.0975685
0.0970802
0.0964873
0.0957685
0.0949046
0.0938627
0.100023
0.10001
0.0999823
0.0999562
0.0999354
0.0999146
0.0998904
0.0998636
0.0998346
0.0998027
0.0997668
0.0997259
0.099679
0.0996248
0.0995618
0.0994872
0.0993997
0.0992958
0.0991716
0.0990227
0.0988438
0.098628
0.0983671
0.0980507
0.0976665
0.0971994
0.0966316
0.095942
0.0951031
0.094088
0.100011
0.100001
0.0999799
0.0999565
0.0999358
0.0999154
0.0998923
0.0998666
0.0998386
0.0998077
0.0997731
0.0997338
0.0996888
0.0996371
0.099577
0.0995062
0.099423
0.0993244
0.0992068
0.0990659
0.0988968
0.0986929
0.0984464
0.0981477
0.0977849
0.0973438
0.0968064
0.096152
0.0953497
0.0943738
0.100001
0.099994
0.0999773
0.0999567
0.0999369
0.0999172
0.0998955
0.099871
0.0998442
0.0998147
0.0997817
0.0997444
0.0997017
0.0996527
0.0995959
0.0995294
0.0994512
0.0993588
0.0992489
0.0991174
0.0989597
0.0987697
0.0985402
0.0982623
0.0979246
0.0975137
0.0970123
0.0964
0.0956444
0.0947211
0.0999945
0.0999888
0.0999751
0.0999571
0.0999385
0.0999196
0.099899
0.0998758
0.0998502
0.0998221
0.0997909
0.0997557
0.0997156
0.0996697
0.0996167
0.099555
0.0994826
0.0993973
0.0992959
0.0991751
0.0990303
0.0988562
0.0986461
0.0983917
0.0980827
0.0977065
0.0972465
0.0966832
0.0959845
0.0951265
0.0999898
0.0999851
0.0999736
0.0999577
0.0999405
0.0999225
0.099903
0.0998811
0.0998571
0.0998306
0.0998013
0.0997685
0.0997313
0.0996889
0.0996402
0.0995838
0.0995178
0.0994403
0.0993486
0.0992395
0.0991091
0.0989526
0.098764
0.0985358
0.0982588
0.0979213
0.0975081
0.0970007
0.0963684
0.0955885
0.0999868
0.0999828
0.0999729
0.0999588
0.0999429
0.099926
0.0999075
0.099887
0.0998645
0.0998398
0.0998126
0.0997823
0.0997483
0.0997097
0.0996656
0.0996148
0.0995558
0.0994868
0.0994055
0.0993092
0.0991945
0.0990571
0.0988918
0.0986923
0.0984502
0.0981553
0.0977938
0.097349
0.0967923
0.0961026
0.0999852
0.0999817
0.0999731
0.0999605
0.0999458
0.0999298
0.0999125
0.0998934
0.0998725
0.0998497
0.0998247
0.0997971
0.0997664
0.0997319
0.0996928
0.0996481
0.0995965
0.0995366
0.0994665
0.0993839
0.0992859
0.099169
0.0990288
0.09886
0.0986555
0.0984066
0.0981014
0.0977253
0.0972528
0.0966649
0.0999848
0.0999817
0.099974
0.0999626
0.0999491
0.0999342
0.099918
0.0999003
0.099881
0.0998602
0.0998375
0.0998128
0.0997856
0.0997553
0.0997215
0.0996831
0.0996394
0.0995891
0.0995308
0.0994625
0.0993821
0.0992868
0.0991732
0.0990368
0.0988722
0.0986722
0.0984272
0.0981251
0.0977446
0.0972694
0.0999855
0.0999827
0.0999757
0.0999653
0.0999528
0.0999389
0.0999238
0.0999075
0.0998899
0.0998711
0.0998509
0.0998291
0.0998055
0.0997797
0.0997513
0.0997196
0.0996841
0.0996437
0.0995976
0.0995443
0.0994823
0.0994095
0.0993234
0.099221
0.099098
0.0989493
0.0987678
0.0985442
0.098262
0.0979088
0.0999871
0.0999846
0.0999782
0.0999685
0.0999569
0.099944
0.09993
0.0999151
0.0998992
0.0998824
0.0998646
0.0998459
0.099826
0.0998048
0.0997819
0.0997571
0.0997299
0.0996998
0.0996662
0.0996283
0.0995852
0.0995355
0.0994779
0.0994103
0.0993303
0.0992347
0.0991189
0.0989771
0.0987984
0.0985746
0.0999897
0.0999873
0.0999813
0.0999723
0.0999614
0.0999494
0.0999365
0.0999229
0.0999087
0.0998939
0.0998787
0.099863
0.0998469
0.0998303
0.0998131
0.0997952
0.0997765
0.0997569
0.099736
0.0997138
0.0996898
0.0996636
0.0996348
0.0996028
0.0995665
0.099525
0.0994765
0.0994186
0.0993465
0.099257
0.0999931
0.0999908
0.0999851
0.0999765
0.0999662
0.099955
0.0999432
0.0999309
0.0999183
0.0999055
0.0998928
0.0998802
0.0998679
0.0998559
0.0998444
0.0998335
0.0998234
0.0998142
0.0998062
0.0997996
0.0997948
0.0997923
0.0997925
0.0997961
0.0998039
0.0998167
0.0998359
0.0998626
0.0998982
0.0999452
0.0999973
0.0999951
0.0999895
0.0999812
0.0999713
0.0999608
0.09995
0.099939
0.0999279
0.0999172
0.0999069
0.0998974
0.0998888
0.0998815
0.0998756
0.0998716
0.09987
0.0998712
0.0998759
0.0998849
0.0998993
0.0999202
0.0999492
0.0999882
0.10004
0.100106
0.100193
0.100303
0.100446
0.100628
0.100002
0.1
0.0999944
0.0999862
0.0999767
0.0999668
0.0999568
0.099947
0.0999375
0.0999287
0.0999208
0.0999143
0.0999094
0.0999066
0.0999063
0.0999091
0.0999158
0.0999272
0.0999445
0.0999688
0.100002
0.100046
0.100103
0.100177
0.100271
0.100391
0.100542
0.100735
0.100981
0.101294
0.100008
0.100006
0.0999999
0.0999915
0.0999822
0.0999728
0.0999637
0.099955
0.0999469
0.0999399
0.0999344
0.0999308
0.0999295
0.099931
0.0999361
0.0999456
0.0999604
0.0999817
0.100011
0.10005
0.100102
0.100168
0.100253
0.10036
0.100495
0.100666
0.100881
0.101151
0.101495
0.101932
0.100015
0.100012
0.100006
0.0999971
0.0999877
0.0999788
0.0999704
0.0999627
0.099956
0.0999507
0.0999475
0.0999466
0.0999487
0.0999545
0.0999648
0.0999806
0.100003
0.100034
0.100075
0.100129
0.100198
0.100285
0.100396
0.100536
0.10071
0.100929
0.101204
0.101547
0.101983
0.102533
0.100022
0.100019
0.100012
0.100003
0.0999932
0.0999847
0.099977
0.0999702
0.0999647
0.0999611
0.0999599
0.0999617
0.0999671
0.0999768
0.099992
0.100014
0.100044
0.100084
0.100136
0.100203
0.100288
0.100396
0.100532
0.100702
0.100913
0.101178
0.101507
0.101919
0.102438
0.103089
0.100031
0.100027
0.100019
0.100009
0.0999987
0.0999904
0.0999833
0.0999772
0.0999728
0.0999708
0.0999716
0.0999758
0.0999842
0.0999977
0.100018
0.100045
0.100082
0.10013
0.100193
0.100272
0.100373
0.1005
0.100659
0.100856
0.101102
0.101408
0.101789
0.102262
0.102855
0.103594
0.100041
0.100036
0.100026
0.100014
0.100004
0.0999959
0.0999893
0.0999838
0.0999804
0.0999797
0.0999823
0.0999888
0.0999999
0.100017
0.100041
0.100074
0.100117
0.100173
0.100245
0.100336
0.100451
0.100595
0.100775
0.100998
0.101275
0.101619
0.102045
0.102573
0.103231
0.104045
0.100052
0.100046
0.100034
0.100019
0.100009
0.100001
0.0999948
0.0999899
0.0999873
0.0999879
0.0999922
0.100001
0.100014
0.100034
0.100062
0.1001
0.100149
0.100212
0.100292
0.100394
0.100521
0.100681
0.100879
0.101126
0.101431
0.101808
0.102274
0.10285
0.103563
0.10444
0.100065
0.100057
0.100041
0.100024
0.100013
0.100006
0.0999997
0.099995
0.0999932
0.0999949
0.100001
0.100011
0.100027
0.100049
0.100081
0.100122
0.100176
0.100245
0.100333
0.100444
0.100583
0.100756
0.100971
0.101237
0.101566
0.101973
0.102473
0.10309
0.10385
0.104778
0.100082
0.10007
0.100047
0.100028
0.100018
0.100011
0.100005
0.1
0.0999989
0.100002
0.100008
0.10002
0.100038
0.100063
0.100097
0.100142
0.1002
0.100275
0.100369
0.100488
0.100636
0.100821
0.10105
0.101333
0.101682
0.102112
0.102642
0.103293
0.104093
0.105064
0.100102
0.100083
0.100052
0.10003
0.100021
0.100014
0.100007
0.100003
0.100002
0.100006
0.100014
0.100027
0.100046
0.100073
0.100109
0.100157
0.100219
0.100298
0.100398
0.100523
0.100679
0.100873
0.101113
0.10141
0.101776
0.102225
0.102777
0.103455
0.104288
0.105297
0.100129
0.100098
0.100056
0.100035
0.100026
0.100018
0.100011
0.100007
0.100007
0.100011
0.100019
0.100033
0.100054
0.100082
0.10012
0.10017
0.100235
0.100317
0.10042
0.10055
0.100712
0.100914
0.101163
0.10147
0.101848
0.102311
0.10288
0.103575
0.104437
0.105487
0.100166
0.100098
0.10005
0.100035
0.100027
0.100019
0.100012
0.100008
0.100008
0.100013
0.100022
0.100036
0.100058
0.100087
0.100127
0.100178
0.100244
0.100329
0.100435
0.100569
0.100735
0.100941
0.101196
0.10151
0.101896
0.102369
0.102948
0.103652
0.104521
0.105616
0.100242
0.100107
0.100048
0.100036
0.10003
0.100021
0.100014
0.10001
0.10001
0.100015
0.100024
0.100039
0.10006
0.10009
0.100131
0.100183
0.10025
0.100336
0.100444
0.100579
0.100747
0.100956
0.101214
0.101531
0.101922
0.1024
0.102982
0.103689
0.104531
0.105512
0.092835
0.0919031
0.0913631
0.09116
0.0909332
0.0905994
0.0902187
0.0898365
0.0894606
0.0890874
0.0887146
0.0883408
0.0879633
0.0875777
0.0871787
0.0867599
0.0863134
0.0858287
0.0852921
0.0846844
0.083979
0.0831324
0.082103
0.0806896
0.0791034
0.0756231
0.073973
0.0597396
0.062469
-0.0136341
0.0933259
0.092461
0.0918442
0.0915671
0.0912843
0.090927
0.0905564
0.0902074
0.0898736
0.0895437
0.0892144
0.0888854
0.0885546
0.0882185
0.0878732
0.0875141
0.0871353
0.0867291
0.0862851
0.0857891
0.0852206
0.084549
0.0837291
0.0826524
0.0813254
0.0788069
0.0770414
0.0662316
0.0674918
0.00333484
0.0929659
0.0924234
0.0920144
0.0917799
0.0915318
0.0912246
0.09091
0.0906126
0.0903239
0.0900358
0.0897483
0.089463
0.0891787
0.0888932
0.0886037
0.0883073
0.0880002
0.0876774
0.087332
0.0869547
0.0865319
0.0860432
0.0854543
0.0847013
0.0837282
0.0820204
0.0804935
0.0726425
0.0730504
0.0204643
0.0930332
0.0926991
0.0924144
0.0921681
0.0919105
0.0916308
0.0913551
0.0910951
0.0908443
0.0905973
0.0903544
0.090117
0.0898842
0.0896545
0.0894269
0.0892
0.0889724
0.0887417
0.0885052
0.0882588
0.0879959
0.0877065
0.0873705
0.0869552
0.0863974
0.0854378
0.0843967
0.0791574
0.0792338
0.0374067
0.0932423
0.0929889
0.0927663
0.0925376
0.0923042
0.0920715
0.0918467
0.0916322
0.091425
0.0912235
0.0910288
0.0908422
0.090664
0.0904943
0.0903333
0.0901817
0.0900401
0.0899096
0.0897912
0.0896862
0.0895957
0.0895201
0.0894549
0.0893927
0.0892918
0.0890439
0.0886774
0.0857393
0.0860075
0.0540294
0.0935463
0.0933521
0.093187
0.0929938
0.0927921
0.0925991
0.0924167
0.0922434
0.0920786
0.091923
0.0917781
0.0916452
0.0915255
0.0914202
0.0913312
0.0912609
0.0912125
0.0911901
0.091199
0.0912461
0.0913401
0.0914924
0.0917143
0.0920221
0.0924059
0.0928575
0.0932891
0.0924036
0.0932601
0.0703089
0.09393
0.0937835
0.0936652
0.0935072
0.0933389
0.0931854
0.0930468
0.0929184
0.0928002
0.0926941
0.0926023
0.0925267
0.0924693
0.0924329
0.0924208
0.0924376
0.092489
0.0925822
0.0927268
0.0929356
0.0932252
0.0936177
0.0941404
0.0948325
0.0957192
0.096866
0.0981711
0.0991247
0.100887
0.0860939
0.0943839
0.0942805
0.094206
0.0940858
0.0939547
0.0938424
0.0937481
0.0936656
0.0935951
0.0935401
0.0935035
0.0934878
0.0934962
0.0935327
0.0936023
0.0937115
0.0938686
0.0940841
0.0943721
0.094751
0.0952453
0.0958881
0.0967223
0.0978092
0.0992095
0.101047
0.103262
0.105869
0.108789
0.1012
0.0949057
0.094843
0.0948099
0.0947282
0.0946358
0.094565
0.0945155
0.09448
0.0944593
0.0944576
0.0944789
0.0945262
0.0946038
0.0947169
0.0948722
0.0950784
0.0953462
0.0956897
0.0961271
0.0966827
0.0973888
0.0982891
0.0994415
0.100929
0.102845
0.105364
0.108495
0.112588
0.116841
0.115454
0.0954912
0.0954675
0.0954745
0.0954318
0.0953793
0.0953512
0.0953472
0.0953602
0.0953908
0.0954443
0.0955252
0.0956378
0.095787
0.0959796
0.0962239
0.0965306
0.096913
0.0973885
0.0979796
0.0987163
0.0996384
0.1008
0.102273
0.104159
0.106587
0.109769
0.113794
0.119219
0.124902
0.128697
0.0961367
0.0961506
0.0961957
0.0961924
0.0961808
0.0961959
0.096238
0.0963001
0.0963831
0.096493
0.0966352
0.0968146
0.0970373
0.0973114
0.0976469
0.0980562
0.0985555
0.0991652
0.0999121
0.100831
0.10197
0.103392
0.105182
0.107461
0.110385
0.114202
0.119079
0.125684
0.132816
0.140785
0.0968357
0.0968855
0.0969669
0.097003
0.097033
0.0970917
0.0971801
0.0972917
0.0974277
0.0975947
0.0977987
0.0980457
0.0983427
0.0986991
0.0991263
0.099639
0.100255
0.100999
0.101901
0.103002
0.104354
0.106031
0.108129
0.110786
0.114182
0.118594
0.12426
0.131896
0.140418
0.15158
0.0975802
0.0976642
0.0977798
0.0978548
0.0979265
0.0980287
0.0981632
0.0983239
0.0985128
0.0987366
0.0990023
0.0993165
0.0996873
0.100125
0.100643
0.101258
0.10199
0.102865
0.103919
0.105195
0.106754
0.108675
0.111067
0.114079
0.117915
0.122871
0.129247
0.137759
0.147532
0.16092
0.0983597
0.098476
0.0986232
0.0987363
0.0988495
0.0989946
0.0991741
0.099383
0.0996236
0.0999031
0.100229
0.100609
0.101052
0.101569
0.102175
0.102889
0.103732
0.104733
0.105931
0.107374
0.109127
0.111277
0.113941
0.11728
0.121513
0.126953
0.133945
0.143175
0.153991
0.168647
0.099162
0.0993083
0.0994846
0.0996342
0.0997879
0.0999746
0.100197
0.100453
0.100743
0.101076
0.10146
0.101902
0.102414
0.103007
0.103696
0.104503
0.10545
0.10657
0.107902
0.109499
0.111431
0.113789
0.116697
0.120326
0.124907
0.13076
0.138265
0.148055
0.159671
0.174787
0.0999729
0.100147
0.100349
0.100533
0.100726
0.100952
0.101216
0.101515
0.101852
0.102235
0.102673
0.103174
0.103749
0.104412
0.105178
0.10607
0.107113
0.108339
0.109793
0.111528
0.113618
0.116158
0.119279
0.123155
0.128026
0.134216
0.142124
0.152316
0.1645
0.179575
0.100778
0.100977
0.101202
0.101418
0.101647
0.10191
0.102212
0.102551
0.102931
0.10336
0.103847
0.1044
0.105033
0.105758
0.106593
0.107561
0.108687
0.110007
0.111565
0.113419
0.115643
0.118336
0.121632
0.125708
0.130807
0.137252
0.145449
0.155889
0.168424
0.182993
0.101561
0.101782
0.102028
0.102273
0.102535
0.102832
0.103167
0.103541
0.103959
0.104429
0.104959
0.105559
0.106241
0.10702
0.107914
0.108945
0.110142
0.11154
0.113185
0.115135
0.117466
0.12028
0.12371
0.127935
0.133197
0.139809
0.148177
0.158712
0.171353
0.184936
0.102308
0.102549
0.102812
0.103083
0.103374
0.1037
0.104065
0.10447
0.10492
0.105424
0.10599
0.106629
0.107352
0.108175
0.109117
0.110199
0.111452
0.11291
0.114621
0.116644
0.119054
0.121954
0.125476
0.129796
0.135152
0.141845
0.150263
0.160726
0.173166
0.185505
0.103006
0.103265
0.103543
0.103835
0.104151
0.104502
0.104891
0.105321
0.105799
0.10633
0.106925
0.107594
0.108349
0.109205
0.110182
0.111302
0.112595
0.114096
0.115852
0.117922
0.120382
0.123332
0.126902
0.131264
0.136647
0.143332
0.15168
0.161896
0.17385
0.184783
0.103645
0.103919
0.104209
0.104518
0.104856
0.105227
0.105635
0.106085
0.106582
0.107135
0.107751
0.108441
0.109218
0.110097
0.111097
0.112241
0.113557
0.115083
0.116862
0.118955
0.121435
0.1244
0.127976
0.132328
0.137672
0.144264
0.152428
0.162237
0.173553
0.182679
0.104219
0.104506
0.104806
0.105129
0.105482
0.105869
0.106291
0.106755
0.107266
0.107832
0.108461
0.109165
0.109954
0.110845
0.111856
0.113009
0.114334
0.115866
0.117649
0.11974
0.122212
0.125159
0.128702
0.132995
0.138241
0.144662
0.152546
0.161795
0.172412
0.179066
0.104723
0.105021
0.105328
0.105661
0.106026
0.106423
0.106855
0.107328
0.107847
0.10842
0.109056
0.109764
0.110557
0.111449
0.112459
0.113609
0.114928
0.116448
0.118215
0.120283
0.122722
0.12562
0.129094
0.133285
0.138379
0.144558
0.152081
0.160637
0.170515
0.174279
0.105159
0.105465
0.105777
0.106117
0.106489
0.106892
0.107329
0.107804
0.108325
0.1089
0.109534
0.11024
0.111028
0.111912
0.112911
0.114046
0.115344
0.116839
0.118572
0.120596
0.122978
0.125801
0.129172
0.133221
0.138116
0.143993
0.151095
0.158848
0.167978
0.168717
0.105528
0.105841
0.106156
0.106499
0.106875
0.107281
0.107719
0.108194
0.108712
0.109282
0.10991
0.110606
0.11138
0.112248
0.113226
0.114335
0.115601
0.117056
0.118739
0.120702
0.123006
0.12573
0.128972
0.132847
0.137506
0.143032
0.149671
0.156517
0.164934
0.162084
0.105844
0.10616
0.10647
0.106808
0.107183
0.107588
0.108023
0.108493
0.109005
0.109567
0.110184
0.110865
0.111621
0.112466
0.113415
0.114489
0.115712
0.117115
0.118736
0.120622
0.122832
0.125437
0.128528
0.132204
0.136599
0.141736
0.147888
0.153719
0.161478
0.154359
0.106119
0.106436
0.106736
0.10707
0.107446
0.107849
0.108276
0.108737
0.109238
0.109787
0.110387
0.111048
0.111779
0.112595
0.113509
0.11454
0.115712
0.117053
0.118601
0.120399
0.122501
0.124973
0.127897
0.131353
0.135465
0.140182
0.145837
0.150535
0.157721
0.145849
0.106399
0.106657
0.106892
0.107216
0.107606
0.108013
0.108431
0.10888
0.109369
0.109907
0.110496
0.111136
0.11184
0.112622
0.113495
0.114477
0.115588
0.11686
0.118326
0.120026
0.122011
0.124339
0.127083
0.130308
0.134127
0.138401
0.14358
0.14702
0.153775
0.136825
0.106912
0.10703
0.10712
0.107403
0.107798
0.108215
0.10863
0.109069
0.109538
0.110047
0.110604
0.111217
0.111891
0.112638
0.113472
0.114408
0.115456
0.116655
0.118034
0.119631
0.121492
0.12367
0.126228
0.129213
0.132733
0.136542
0.141272
0.143322
0.149771
0.127512
0.106986
0.106867
0.106951
0.107314
0.107751
0.108201
0.108625
0.109063
0.109535
0.110037
0.110575
0.111159
0.111794
0.112492
0.113264
0.114127
0.115105
0.116222
0.117505
0.11899
0.120719
0.122739
0.125109
0.12785
0.131089
0.134412
0.138802
0.139304
0.145669
0.118103
0.109848
0.101546
0.0924086
0.0830598
0.0741391
0.0660215
0.0590338
0.0535458
0.0499546
0.0486476
0.0496907
0.0525225
0.0556622
0.0575081
0.0572615
0.055305
0.0536907
0.0522483
0.0507022
0.0495864
0.0488092
0.0479431
0.0467384
0.0452713
0.0437395
0.0422049
0.0405649
0.0385559
0.0360311
0.0329731
0.141483
0.135623
0.129155
0.122787
0.116378
0.109695
0.102921
0.0964119
0.0903307
0.0850577
0.0810677
0.0784151
0.0766535
0.0744719
0.0707483
0.0645972
0.0568996
0.0516544
0.0501871
0.0493122
0.0476763
0.045665
0.0443587
0.043686
0.0430089
0.0421321
0.0409115
0.0397542
0.0384815
0.0365817
0.136117
0.132599
0.128516
0.123851
0.118474
0.112421
0.106
0.0994651
0.0931368
0.0875614
0.0831113
0.0795379
0.0762359
0.0723105
0.0669496
0.0615912
0.0568573
0.0529494
0.0508797
0.0490269
0.0467596
0.0460761
0.0472163
0.0482672
0.0494965
0.0508907
0.052048
0.0525995
0.0526699
0.0517882
0.137052
0.135228
0.1328
0.129508
0.125452
0.120702
0.115343
0.109499
0.103394
0.0973647
0.0917144
0.0865366
0.0817343
0.0770906
0.0724317
0.0681178
0.0637914
0.0588286
0.0551983
0.0528467
0.0510027
0.0511658
0.0530407
0.0559498
0.0601898
0.0638189
0.0662017
0.0678159
0.0683198
0.0679222
0.133131
0.132292
0.131093
0.129186
0.12647
0.12302
0.118905
0.114146
0.108826
0.103159
0.0974547
0.0919921
0.0868856
0.0820951
0.0775039
0.0730906
0.0687716
0.0648194
0.0619545
0.0596096
0.0580652
0.0585801
0.0610269
0.0649938
0.0696158
0.0733954
0.0759528
0.0765442
0.0754215
0.0731737
0.130275
0.130132
0.12972
0.12856
0.126597
0.123939
0.120582
0.116496
0.111732
0.106459
0.100941
0.0954588
0.0902036
0.085225
0.0804722
0.0759525
0.0717918
0.0683125
0.0657944
0.064229
0.0639069
0.0649134
0.0668218
0.069489
0.0723392
0.0740356
0.0738886
0.0720283
0.0681661
0.0621473
0.127298
0.127546
0.127625
0.127045
0.125806
0.123911
0.121315
0.117949
0.113815
0.109025
0.103788
0.0983691
0.0930101
0.0878611
0.0829811
0.0784471
0.0744236
0.0711395
0.0688081
0.0675597
0.0674482
0.068288
0.0696576
0.0709189
0.0711252
0.0696559
0.0663073
0.0611398
0.0533352
0.0442813
0.124762
0.125282
0.125708
0.125547
0.124777
0.123429
0.121429
0.118673
0.115118
0.110824
0.105945
0.100717
0.0953988
0.0902062
0.0852821
0.080755
0.0768005
0.0736253
0.0714127
0.0702266
0.0699589
0.0702943
0.070713
0.0705121
0.0690169
0.0658639
0.0607876
0.0537107
0.0443328
0.0345101
0.122536
0.123214
0.123853
0.123979
0.123573
0.122658
0.121144
0.118898
0.115848
0.112009
0.107497
0.102513
0.0973142
0.0921533
0.0872291
0.0827123
0.078792
0.0756672
0.073479
0.0722158
0.0716663
0.0714143
0.0708793
0.0694456
0.0666602
0.0622995
0.0563324
0.0490186
0.0407947
0.0330762
0.120626
0.121402
0.122179
0.122508
0.122372
0.121787
0.120657
0.118836
0.116223
0.1128
0.108642
0.103915
0.0988684
0.0937722
0.088868
0.0843635
0.0804613
0.0773457
0.0751114
0.0736794
0.0727629
0.0718927
0.070512
0.0681342
0.0644887
0.0595689
0.0536489
0.0472874
0.0412193
0.0363933
0.11898
0.119814
0.120675
0.121143
0.121204
0.120879
0.120059
0.11859
0.116355
0.113308
0.109484
0.105018
0.100142
0.0951339
0.0902664
0.085778
0.0818822
0.0787458
0.07642
0.0747696
0.0734592
0.0720144
0.0699518
0.0669367
0.0628976
0.0580548
0.0529109
0.0481618
0.0445824
0.0426853
0.11756
0.118428
0.11934
0.119906
0.120117
0.119988
0.119415
0.118237
0.116326
0.113609
0.110093
0.105882
0.101183
0.0962777
0.091458
0.0869867
0.0830855
0.0799047
0.0774591
0.0755727
0.07389
0.0719681
0.0694261
0.066091
0.0620802
0.0577875
0.0538289
0.0508349
0.0493773
0.0495108
0.116329
0.117214
0.118158
0.118792
0.119115
0.119139
0.118764
0.117828
0.116192
0.113767
0.110531
0.106559
0.102037
0.0972403
0.0924729
0.0880164
0.0840987
0.0808566
0.078277
0.0761595
0.0741528
0.0718713
0.0690506
0.0656709
0.061999
0.0585201
0.0558166
0.0543379
0.0544189
0.055621
0.115254
0.116147
0.117109
0.117793
0.118201
0.118346
0.11813
0.117395
0.115995
0.113825
0.110843
0.107094
0.102742
0.0980542
0.09334
0.0888946
0.0849517
0.0816383
0.0789219
0.0765926
0.0743227
0.0717997
0.068876
0.0656619
0.0625189
0.0599283
0.0583721
0.0580849
0.0591751
0.0608736
0.11431
0.115203
0.116176
0.116898
0.117371
0.117614
0.117528
0.11696
0.115761
0.113816
0.111061
0.107518
0.103328
0.0987456
0.0940827
0.0896444
0.0856698
0.0822802
0.079432
0.0769185
0.0744501
0.0717944
0.0689114
0.0660093
0.0634786
0.0617481
0.0611649
0.0617485
0.0634493
0.0653207
0.113474
0.114362
0.115342
0.116094
0.116621
0.116941
0.116964
0.116538
0.115512
0.113764
0.111211
0.107856
0.103818
0.0993357
0.0947205
0.0902846
0.0862735
0.0828063
0.0798362
0.0771704
0.0745664
0.0718726
0.0691408
0.0666351
0.064733
0.0637817
0.0639754
0.0651541
0.0671804
0.0690234
0.112723
0.113607
0.114592
0.115369
0.115942
0.116329
0.116443
0.116136
0.115261
0.113685
0.111315
0.108131
0.104232
0.0998426
0.0952698
0.0908314
0.0867798
0.0832363
0.0801573
0.0773716
0.0746897
0.0720362
0.0695328
0.0674626
0.0661648
0.065884
0.0666647
0.0682186
0.070369
0.072065
0.112045
0.112924
0.113913
0.114712
0.115326
0.115772
0.115963
0.11576
0.115016
0.113594
0.111386
0.108357
0.104586
0.100281
0.0957445
0.0912979
0.0872027
0.0835861
0.0804123
0.0775381
0.0748292
0.0722784
0.0700504
0.0684253
0.0676814
0.0679522
0.069151
0.0709123
0.0730463
0.0745383
0.111427
0.112302
0.113292
0.114112
0.114765
0.115263
0.115524
0.115413
0.114786
0.1135
0.111438
0.108548
0.104892
0.100663
0.0961558
0.0916951
0.0875538
0.0838682
0.0806137
0.0776799
0.0749874
0.0725852
0.0706592
0.0694665
0.0692095
0.0699155
0.0713912
0.0732358
0.075257
0.0765284
0.110856
0.111729
0.112721
0.11356
0.11425
0.114799
0.115123
0.115095
0.114572
0.113409
0.111479
0.108715
0.105163
0.101
0.0965134
0.0920321
0.0878423
0.0840924
0.080771
0.0778034
0.0751634
0.0729413
0.0713278
0.0705385
0.0706933
0.0717265
0.0733648
0.0752059
0.0770526
0.0781135
0.110327
0.111197
0.11219
0.113048
0.113775
0.114372
0.114757
0.114806
0.114379
0.113328
0.111517
0.108867
0.105406
0.101299
0.0968251
0.0923158
0.0880753
0.084266
0.0808899
0.0779108
0.075352
0.0733312
0.0720276
0.0716021
0.0720942
0.0733596
0.0750677
0.0768439
0.0784854
0.0793698
0.109831
0.110701
0.111692
0.112568
0.113333
0.113978
0.114421
0.114544
0.114207
0.11326
0.111558
0.10901
0.105629
0.101569
0.097098
0.0925531
0.0882598
0.0843961
0.0809761
0.0780059
0.0755511
0.0737432
0.0727336
0.0726223
0.0733793
0.0748021
0.0765169
0.0781862
0.0796075
0.0803682
0.10937
0.110236
0.111221
0.112114
0.112917
0.113612
0.114112
0.114306
0.114056
0.113207
0.111607
0.109151
0.10584
0.101815
0.0973358
0.0927455
0.0883968
0.0844842
0.081028
0.078079
0.0757448
0.0741594
0.0734245
0.073574
0.0745211
0.0760315
0.0777193
0.0792831
0.0804993
0.0811884
0.108953
0.109796
0.110768
0.11168
0.112523
0.113267
0.113826
0.114091
0.113926
0.11317
0.111665
0.109294
0.106043
0.102045
0.0975497
0.0929055
0.0884989
0.0845416
0.0810617
0.0781585
0.0759532
0.0745786
0.0740839
0.0744449
0.0755273
0.077062
0.0786706
0.0801323
0.0812155
0.0819335
0.108564
0.109387
0.110336
0.111261
0.112146
0.112939
0.113557
0.113896
0.113816
0.113152
0.111737
0.109441
0.106238
0.102253
0.0977252
0.0930142
0.0885489
0.0845484
0.0810299
0.0781711
0.0761271
0.074968
0.0746789
0.0751983
0.0763893
0.0779597
0.0794905
0.0808145
0.0817639
0.082632
0.108215
0.109016
0.109924
0.110858
0.111781
0.112624
0.113301
0.113715
0.113722
0.113152
0.11183
0.109609
0.106449
0.102475
0.0979096
0.0931195
0.0885939
0.0845746
0.0810504
0.0782397
0.0763268
0.0753466
0.0752058
0.0758024
0.0770185
0.0786147
0.0801842
0.0815073
0.082416
0.0834334
0.107903
0.108663
0.109532
0.110471
0.111427
0.112318
0.113055
0.113549
0.113647
0.113166
0.11193
0.109769
0.106627
0.102638
0.0980123
0.0931366
0.0885288
0.0844538
0.0809138
0.0782209
0.076473
0.0756778
0.0756697
0.0763372
0.0775404
0.0790246
0.0804805
0.0817465
0.0828215
0.0843022
0.107628
0.108323
0.109152
0.110102
0.111085
0.112016
0.112808
0.113357
0.11357
0.113196
0.112062
0.109986
0.106902
0.102892
0.098185
0.0932174
0.0886014
0.0844749
0.0808899
0.0782401
0.0766295
0.0759856
0.0760379
0.0767748
0.0781684
0.0798663
0.0813371
0.0824645
0.0835404
0.0851311
0.107432
0.107994
0.108776
0.109748
0.11079
0.111791
0.112661
0.113298
0.11355
0.113258
0.112191
0.110142
0.107033
0.102952
0.0981346
0.0930421
0.0884354
0.0843366
0.0807591
0.0782206
0.0767665
0.076168
0.0761814
0.0767358
0.0779562
0.0796721
0.0813019
0.0826791
0.0841323
0.0859547
0.107344
0.107709
0.108352
0.109235
0.110263
0.111306
0.112247
0.113003
0.113424
0.113313
0.112413
0.110516
0.107492
0.103338
0.098401
0.0931664
0.0883428
0.0840174
0.080474
0.078065
0.0768226
0.0763937
0.0765566
0.0772693
0.0787792
0.0806321
0.0822669
0.0836335
0.0850335
0.0864486
-0.0998953
-0.0839426
-0.0427771
0.00857783
0.0271238
0.0501501
0.058037
0.066482
0.0704451
0.0732719
0.0747667
0.0755359
0.0758471
0.0759095
0.0758615
0.0757938
0.0757579
0.075778
0.0758634
0.0760061
0.0762091
0.0764362
0.0767276
0.0769902
0.0773683
0.0776902
0.0782459
0.0787134
0.0797338
0.0784295
-0.101202
-0.0909445
-0.0498326
0.0035263
0.0261571
0.0485844
0.0581661
0.066498
0.0711813
0.0741401
0.0757916
0.0766135
0.0769149
0.0769162
0.076771
0.0765835
0.076416
0.0763056
0.0762699
0.0763037
0.0764134
0.0765609
0.0767733
0.07698
0.0772499
0.077459
0.0777607
0.0778608
0.0782941
0.0777201
-0.101898
-0.0959385
-0.0595758
-0.00330926
0.0238691
0.0458316
0.0574806
0.0661422
0.0716466
0.0749932
0.0768978
0.0778373
0.0781555
0.0780993
0.0778452
0.0775161
0.0771932
0.0769272
0.0767465
0.0766547
0.0766536
0.0767206
0.0768556
0.0770194
0.0772208
0.0774001
0.0776128
0.0777265
0.0780099
0.0780907
-0.102165
-0.0980302
-0.0684264
-0.00906996
0.0221755
0.044271
0.0574304
0.0665619
0.072588
0.0762539
0.0783052
0.0792682
0.0795264
0.0793572
0.0789596
0.0784723
0.0779902
0.0775753
0.0772636
0.0770646
0.0769773
0.0769851
0.0770761
0.0772258
0.0774256
0.0776449
0.0779005
0.0781358
0.0784303
0.0786278
-0.102819
-0.0974682
-0.0759916
-0.0147776
0.0204035
0.0432838
0.0575666
0.0672283
0.0736662
0.077645
0.0798581
0.0808558
0.0810561
0.0807676
0.0802149
0.0795542
0.0788931
0.0783071
0.0778419
0.0775142
0.0773237
0.0772558
0.0772929
0.077412
0.0775961
0.0778202
0.078078
0.0783366
0.0786129
0.0788304
-0.104452
-0.0981467
-0.0838264
-0.0220999
0.0174704
0.0419069
0.057335
0.0676718
0.0745938
0.0789674
0.0814394
0.0825518
0.082746
0.0823616
0.0816535
0.0808001
0.0799277
0.079131
0.0784712
0.0779761
0.0776498
0.0774789
0.0774413
0.0775108
0.0776627
0.077871
0.0781181
0.0783807
0.0786602
0.0789147
-0.106727
-0.103221
-0.0931925
-0.0314318
0.013107
0.0398449
0.0566537
0.0678315
0.0753278
0.0801626
0.0829717
0.0842721
0.0845109
0.0840582
0.0832076
0.0821599
0.0810586
0.0800206
0.0791293
0.0784301
0.0779378
0.0776415
0.077516
0.0775308
0.0776547
0.0778573
0.0781137
0.0783996
0.0787072
0.0789936
-0.109212
-0.111274
-0.103122
-0.0417436
0.00755707
0.03706
0.0555298
0.0676984
0.0758383
0.0811669
0.0843462
0.0858861
0.0862355
0.0857676
0.0848001
0.0835624
0.0822211
0.08092
0.079769
0.078836
0.0781502
0.0777055
0.0774759
0.0774286
0.0775259
0.0777299
0.0780071
0.0783271
0.0786766
0.0790041
-0.111559
-0.119723
-0.112485
-0.0523015
0.000842545
0.0334057
0.0538035
0.0671257
0.0759958
0.0818621
0.0854464
0.0872476
0.0877138
0.0872668
0.0862471
0.0848795
0.083323
0.0817299
0.0802572
0.0790352
0.0781256
0.0775218
0.0771856
0.0770804
0.077162
0.0773823
0.0776968
0.0780672
0.0784767
0.0788665
-0.113556
-0.127234
-0.120696
-0.0632316
-0.00689145
0.0286272
0.0511567
0.065818
0.0755641
0.0820787
0.0861517
0.088258
0.0888513
0.0884062
0.0873059
0.0858283
0.0841512
0.0823798
0.0806203
0.0790233
0.077773
0.076941
0.0764696
0.0763044
0.0763875
0.0766573
0.0770497
0.0775102
0.0780145
0.0784993
-0.115263
-0.133315
-0.127321
-0.0736397
-0.0157267
0.0224477
0.0471852
0.0633529
0.0741088
0.0813164
0.0858495
0.0882309
0.0889823
0.0885973
0.0874344
0.0857817
0.0838861
0.0819207
0.0799915
0.0782373
0.0767943
0.0757348
0.07512
0.0749031
0.0750077
0.0753657
0.075892
0.0765021
0.0771557
0.0777866
-0.116275
-0.137535
-0.13234
-0.0827096
-0.0257288
0.0146502
0.0414576
0.0590669
0.070651
0.0783574
0.0832682
0.085999
0.0870646
0.0870039
0.0862239
0.084874
0.0829277
0.0805546
0.0780984
0.0757769
0.0739786
0.0730163
0.0724441
0.0722963
0.072511
0.0731049
0.0739138
0.0747892
0.0756861
0.0765474
-0.11592
-0.139365
-0.135526
-0.0905225
-0.0363991
0.00525493
0.0335326
0.0519366
0.0637717
0.0718207
0.0774165
0.0811174
0.0831431
0.0836117
0.0830059
0.081829
0.0804138
0.078602
0.0760255
0.0729166
0.070021
0.0678535
0.067481
0.0677671
0.0680015
0.0690387
0.070535
0.0719345