/*--------------------------------*- C++ -*----------------------------------*\
  =========                 |
  \\      /  F ield         | OpenFOAM: The Open Source CFD Toolbox
   \\    /   O peration     | Website:  https://openfoam.org
    \\  /    A nd           | Version:  11
     \\/     M anipulation  |
\*---------------------------------------------------------------------------*/
FoamFile
{
    format      ascii;
    class       volScalarField;
    location    "7";
    object      p;
}
// * * * * * * * * * * * * * * * * * * * * * * * * * * * * * * * * * * * * * //

dimensions      [0 2 -2 0 0 0 0];

internalField   nonuniform List<scalar> 
12600
(
0.805515
0.80538
0.805309
0.805277
0.805242
0.805193
0.805133
0.805064
0.804982
0.804885
0.804768
0.804628
0.804458
0.804253
0.804003
0.803697
0.803324
0.802867
0.802303
0.801611
0.800767
0.799728
0.79844
0.796839
0.794848
0.792357
0.789231
0.785288
0.780329
0.773997
0.805445
0.805373
0.805312
0.805278
0.805242
0.805194
0.805135
0.805066
0.804987
0.804891
0.804776
0.804637
0.804469
0.804266
0.804019
0.803719
0.803351
0.802902
0.802344
0.801659
0.800827
0.799801
0.79853
0.796951
0.794983
0.792521
0.789426
0.785527
0.780575
0.774297
0.805413
0.805377
0.805324
0.805284
0.805246
0.8052
0.805143
0.805077
0.804997
0.804903
0.80479
0.804654
0.80449
0.804291
0.804049
0.803755
0.803396
0.802955
0.802412
0.801746
0.800933
0.799931
0.798689
0.797145
0.795219
0.792809
0.789774
0.78595
0.781048
0.774891
0.805393
0.80537
0.805326
0.805286
0.805249
0.805205
0.805151
0.805086
0.805009
0.804918
0.804809
0.804677
0.804518
0.804326
0.804092
0.803808
0.80346
0.803035
0.802512
0.801871
0.801086
0.800117
0.798917
0.797425
0.795563
0.793231
0.790288
0.786574
0.781783
0.775776
0.805381
0.805365
0.805331
0.805294
0.805257
0.805215
0.805163
0.805101
0.805027
0.804939
0.804835
0.804709
0.804557
0.804373
0.804149
0.803878
0.803546
0.80314
0.802643
0.802032
0.801282
0.800358
0.799213
0.79779
0.796011
0.79378
0.790958
0.787392
0.782763
0.77696
0.805375
0.805363
0.805335
0.805301
0.805266
0.805225
0.805176
0.805117
0.805047
0.804964
0.804865
0.804746
0.804602
0.804428
0.804218
0.803962
0.803649
0.803267
0.802799
0.802225
0.80152
0.800651
0.799573
0.798233
0.796556
0.794451
0.791781
0.788399
0.783981
0.778436
0.805373
0.805363
0.80534
0.80531
0.805276
0.805238
0.805193
0.805138
0.805072
0.804994
0.804902
0.80479
0.804656
0.804495
0.804299
0.804061
0.803771
0.803417
0.802983
0.802451
0.801798
0.800992
0.799994
0.79875
0.797194
0.795237
0.792748
0.789587
0.785428
0.780195
0.805374
0.805366
0.805347
0.80532
0.805289
0.805253
0.805211
0.80516
0.8051
0.805028
0.804942
0.80484
0.804717
0.804569
0.80439
0.804173
0.803908
0.803585
0.80319
0.802706
0.802112
0.801378
0.800468
0.799336
0.797917
0.796128
0.793848
0.790943
0.787091
0.782228
0.805379
0.805372
0.805355
0.805332
0.805303
0.80527
0.805232
0.805185
0.80513
0.805065
0.804988
0.804896
0.804785
0.804652
0.804491
0.804297
0.80406
0.803772
0.80342
0.802988
0.802458
0.801804
0.800993
0.799983
0.798716
0.797116
0.79507
0.792453
0.788956
0.784521
0.805385
0.805379
0.805365
0.805344
0.805319
0.805289
0.805254
0.805213
0.805164
0.805106
0.805037
0.804956
0.804858
0.804742
0.804601
0.804431
0.804225
0.803974
0.803668
0.803293
0.802833
0.802265
0.801561
0.800683
0.799581
0.798187
0.796398
0.794101
0.791002
0.787052
0.805394
0.805389
0.805377
0.805358
0.805336
0.805309
0.805279
0.805242
0.805199
0.805149
0.80509
0.80502
0.804937
0.804837
0.804718
0.804574
0.804401
0.804189
0.803932
0.803618
0.803232
0.802756
0.802165
0.801429
0.800503
0.799329
0.797816
0.795864
0.793206
0.789795
0.805404
0.8054
0.805389
0.805374
0.805354
0.805331
0.805304
0.805273
0.805237
0.805195
0.805145
0.805088
0.805019
0.804938
0.804841
0.804725
0.804585
0.804416
0.80421
0.803959
0.80365
0.80327
0.802799
0.80221
0.801468
0.800525
0.799304
0.79772
0.795536
0.792713
0.805416
0.805412
0.805403
0.80539
0.805373
0.805354
0.805331
0.805306
0.805276
0.805242
0.805203
0.805158
0.805105
0.805043
0.80497
0.804882
0.804777
0.804651
0.804498
0.804312
0.804084
0.803803
0.803454
0.803018
0.802466
0.801762
0.800843
0.799641
0.797959
0.79576
0.805429
0.805426
0.805418
0.805407
0.805393
0.805377
0.805359
0.805339
0.805316
0.805291
0.805263
0.80523
0.805193
0.805151
0.805101
0.805043
0.804974
0.804892
0.804793
0.804673
0.804527
0.804347
0.804123
0.803841
0.803483
0.803021
0.80241
0.801598
0.800434
0.798884
0.805443
0.80544
0.805434
0.805425
0.805414
0.805401
0.805388
0.805373
0.805357
0.805341
0.805323
0.805304
0.805283
0.80526
0.805235
0.805206
0.805173
0.805136
0.805092
0.805039
0.804975
0.804896
0.804798
0.804671
0.804506
0.804286
0.803982
0.803561
0.802918
0.802027
0.805457
0.805455
0.80545
0.805443
0.805435
0.805426
0.805416
0.805408
0.805399
0.805391
0.805384
0.805378
0.805373
0.80537
0.805369
0.80537
0.805373
0.80538
0.805391
0.805405
0.805423
0.805445
0.80547
0.805497
0.805522
0.805539
0.805537
0.805499
0.805366
0.805123
0.805473
0.805471
0.805468
0.805462
0.805456
0.80545
0.805445
0.805442
0.80544
0.805441
0.805444
0.805451
0.805462
0.805479
0.805502
0.805532
0.805572
0.805623
0.805687
0.805767
0.805866
0.805987
0.806133
0.806309
0.806519
0.806766
0.807052
0.80738
0.807734
0.808109
0.805489
0.805488
0.805485
0.805481
0.805477
0.805474
0.805474
0.805476
0.805481
0.80549
0.805503
0.805523
0.80555
0.805586
0.805632
0.805692
0.805767
0.805861
0.805978
0.806122
0.806299
0.806516
0.806779
0.807099
0.807484
0.807949
0.808508
0.809177
0.809981
0.810925
0.805506
0.805505
0.805502
0.8055
0.805498
0.805498
0.805502
0.805509
0.80552
0.805537
0.805561
0.805593
0.805636
0.80569
0.805759
0.805847
0.805956
0.806091
0.806259
0.806465
0.806718
0.807026
0.807401
0.807857
0.808408
0.809076
0.809885
0.810864
0.812069
0.813516
0.805523
0.805522
0.80552
0.805518
0.805518
0.805521
0.805529
0.805541
0.805559
0.805583
0.805617
0.805661
0.805718
0.80579
0.805881
0.805996
0.806137
0.806313
0.806529
0.806793
0.807117
0.807512
0.807993
0.808575
0.809281
0.810134
0.811169
0.812421
0.813971
0.815839
0.805541
0.80554
0.805538
0.805536
0.805538
0.805544
0.805555
0.805571
0.805595
0.805627
0.80567
0.805725
0.805796
0.805885
0.805997
0.806136
0.806309
0.806522
0.806783
0.807104
0.807495
0.807971
0.808548
0.809248
0.810093
0.811113
0.812347
0.813834
0.815667
0.817867
0.805558
0.805557
0.805555
0.805553
0.805556
0.805565
0.805579
0.8056
0.805629
0.805668
0.805719
0.805785
0.805869
0.805974
0.806105
0.806268
0.806469
0.806717
0.807021
0.807392
0.807845
0.808396
0.809063
0.809869
0.81084
0.812007
0.813411
0.815092
0.817145
0.819587
0.805577
0.805575
0.805571
0.80557
0.805573
0.805584
0.805602
0.805626
0.80566
0.805706
0.805765
0.80584
0.805936
0.806056
0.806205
0.806389
0.806617
0.806896
0.807239
0.807657
0.808166
0.808784
0.809532
0.810433
0.811514
0.812808
0.814355
0.816193
0.818407
0.821004
0.805596
0.805593
0.805587
0.805584
0.805589
0.805602
0.805622
0.80565
0.805689
0.80574
0.805806
0.805891
0.805997
0.80613
0.806295
0.806499
0.80675
0.807058
0.807435
0.807895
0.808455
0.809133
0.809951
0.810936
0.812113
0.813515
0.815178
0.817136
0.81946
0.822137
0.805616
0.805611
0.805602
0.805598
0.805604
0.805618
0.80564
0.805671
0.805714
0.80577
0.805842
0.805934
0.80605
0.806194
0.806374
0.806595
0.806867
0.8072
0.807608
0.808104
0.808708
0.809438
0.810319
0.811375
0.812634
0.814125
0.815881
0.817928
0.82032
0.823018
0.805638
0.805629
0.805615
0.805609
0.805616
0.805633
0.805656
0.80569
0.805736
0.805796
0.805874
0.805973
0.806096
0.806251
0.806442
0.806678
0.806967
0.807322
0.807756
0.808283
0.808924
0.809699
0.810631
0.811748
0.813074
0.814637
0.816466
0.818577
0.821006
0.823688
0.805663
0.805648
0.805625
0.805617
0.805626
0.805643
0.805668
0.805704
0.805752
0.805817
0.805899
0.806003
0.806134
0.806296
0.806497
0.806745
0.807049
0.807421
0.807876
0.808429
0.8091
0.809911
0.810886
0.812052
0.813433
0.815051
0.816935
0.819092
0.821544
0.824193
0.805693
0.805666
0.805634
0.805626
0.805636
0.805654
0.80568
0.805717
0.805767
0.805834
0.80592
0.806028
0.806164
0.806332
0.806541
0.806798
0.807113
0.807499
0.80797
0.808542
0.809237
0.810076
0.811084
0.81229
0.813713
0.815372
0.817295
0.819482
0.821954
0.824581
0.805732
0.80567
0.805632
0.805629
0.805641
0.805659
0.805685
0.805723
0.805776
0.805845
0.805933
0.806044
0.806183
0.806356
0.80657
0.806833
0.807156
0.807552
0.808034
0.80862
0.80933
0.810188
0.81122
0.812457
0.813915
0.815604
0.817555
0.819759
0.822236
0.824849
0.805807
0.80568
0.805631
0.805633
0.805646
0.805663
0.80569
0.805728
0.805782
0.805852
0.805941
0.806054
0.806195
0.806371
0.806588
0.806855
0.807183
0.807584
0.808073
0.808668
0.809389
0.810259
0.811305
0.812555
0.814027
0.815736
0.817703
0.819926
0.822373
0.824875
0.768019
0.76567
0.763745
0.762117
0.760386
0.758448
0.756367
0.754191
0.751924
0.749552
0.747061
0.744435
0.741649
0.738669
0.73545
0.731939
0.728069
0.723754
0.71889
0.713338
0.706924
0.699414
0.690506
0.679768
0.666702
0.650268
0.630279
0.600968
0.577058
0.502762
0.769252
0.76727
0.765518
0.763915
0.762207
0.760344
0.758399
0.756404
0.754344
0.752194
0.749937
0.747555
0.745024
0.742309
0.739373
0.736167
0.732631
0.728691
0.724252
0.719193
0.713358
0.706544
0.698483
0.688804
0.677063
0.662386
0.644542
0.619259
0.596127
0.533738
0.7696
0.767962
0.766489
0.765007
0.763434
0.761779
0.760072
0.758313
0.756482
0.754562
0.752541
0.750404
0.74813
0.74569
0.743051
0.74017
0.736995
0.73346
0.729481
0.724954
0.719743
0.713671
0.706508
0.697939
0.687571
0.674704
0.659043
0.63738
0.616146
0.564274
0.770514
0.769229
0.76805
0.766724
0.765289
0.763811
0.762299
0.760736
0.759107
0.757402
0.755611
0.75372
0.751708
0.74955
0.747216
0.74467
0.741867
0.738748
0.735243
0.731262
0.726689
0.721374
0.71512
0.707664
0.698668
0.687575
0.674044
0.655701
0.636845
0.594219
0.77179
0.770754
0.769792
0.768609
0.767318
0.766019
0.764709
0.763354
0.76194
0.760462
0.758912
0.757274
0.755533
0.753667
0.751651
0.749453
0.747037
0.744353
0.741343
0.737929
0.734014
0.729475
0.724147
0.717812
0.710184
0.700827
0.689383
0.674142
0.657876
0.623482
0.773401
0.772592
0.771844
0.770828
0.7697
0.768589
0.767479
0.766331
0.765129
0.763876
0.762564
0.761182
0.759716
0.758147
0.756457
0.754618
0.752599
0.750361
0.747855
0.745019
0.741772
0.738014
0.733609
0.728382
0.722095
0.714409
0.704977
0.692609
0.678956
0.651799
0.775344
0.774749
0.774206
0.773355
0.772391
0.771462
0.77055
0.769608
0.768622
0.767597
0.766529
0.765409
0.764224
0.76296
0.761602
0.760129
0.758516
0.756732
0.754738
0.752484
0.749907
0.746925
0.743432
0.739286
0.734296
0.728201
0.720684
0.710941
0.699825
0.678941
0.777618
0.777226
0.776879
0.776195
0.775398
0.774654
0.773941
0.773206
0.772438
0.771644
0.770823
0.769966
0.769065
0.76811
0.767087
0.765984
0.764779
0.763451
0.761968
0.760292
0.758376
0.756155
0.753546
0.75044
0.746683
0.742079
0.736351
0.728971
0.720248
0.704701
0.780216
0.780016
0.779856
0.779338
0.778711
0.778151
0.777635
0.777107
0.776557
0.775993
0.775419
0.774828
0.774212
0.773565
0.772879
0.772144
0.771346
0.770468
0.769488
0.768379
0.767105
0.765617
0.763853
0.761729
0.759125
0.755897
0.751806
0.746514
0.739991
0.728893
0.783122
0.783103
0.783118
0.782766
0.782308
0.781931
0.78161
0.781287
0.780953
0.78062
0.780291
0.779963
0.779629
0.779288
0.778934
0.778561
0.77816
0.777721
0.777229
0.776665
0.776003
0.775209
0.774237
0.773025
0.771478
0.769494
0.766864
0.763383
0.75883
0.751336
0.78631
0.786458
0.786636
0.786446
0.786158
0.78596
0.78583
0.785708
0.785586
0.785478
0.78539
0.785318
0.785261
0.785217
0.785184
0.785161
0.785143
0.785124
0.785095
0.785045
0.784957
0.784808
0.784563
0.78418
0.783583
0.782701
0.781348
0.77941
0.776566
0.771874
0.78974
0.79004
0.790365
0.790333
0.790212
0.79019
0.790243
0.790315
0.790399
0.790508
0.790651
0.790826
0.791034
0.791274
0.791548
0.791856
0.792199
0.792573
0.792976
0.793401
0.793838
0.794274
0.794684
0.795037
0.795276
0.79535
0.79509
0.79446
0.793057
0.790452
0.793359
0.793794
0.79425
0.794369
0.79441
0.794555
0.794783
0.795039
0.795317
0.795632
0.795994
0.796402
0.796857
0.797363
0.797922
0.798538
0.799212
0.799947
0.800741
0.801595
0.802502
0.803455
0.804439
0.80543
0.806385
0.807266
0.807923
0.80838
0.808156
0.807149
0.7971
0.797652
0.79822
0.798479
0.798676
0.798978
0.799368
0.799794
0.800253
0.800759
0.801321
0.801943
0.802625
0.803373
0.804191
0.805084
0.806056
0.807111
0.808252
0.80948
0.810796
0.812195
0.813666
0.815193
0.816741
0.818279
0.819676
0.820977
0.82164
0.821963
0.800884
0.801533
0.802193
0.802582
0.802922
0.803369
0.803905
0.804486
0.805107
0.805784
0.806527
0.807339
0.808223
0.809185
0.81023
0.811365
0.812595
0.813926
0.815363
0.816909
0.818567
0.820335
0.822205
0.824165
0.826185
0.828235
0.830201
0.832121
0.833442
0.834724
0.804623
0.805349
0.806082
0.806585
0.807056
0.80763
0.808295
0.80901
0.809774
0.8106
0.811499
0.812474
0.813531
0.814674
0.815911
0.817248
0.818693
0.820252
0.821931
0.823735
0.825667
0.827727
0.829908
0.8322
0.834575
0.837001
0.839381
0.841723
0.843521
0.845423
0.808225
0.809009
0.809797
0.810397
0.810982
0.811666
0.812438
0.813265
0.814147
0.815097
0.816125
0.817234
0.818431
0.81972
0.821111
0.82261
0.824224
0.825961
0.827827
0.829827
0.831965
0.83424
0.836646
0.839172
0.841791
0.844467
0.847114
0.849702
0.851816
0.854059
0.811605
0.812428
0.813251
0.81393
0.81461
0.815382
0.816239
0.817156
0.818131
0.819177
0.820303
0.821515
0.822817
0.824217
0.825722
0.827339
0.829077
0.830941
0.832938
0.835074
0.83735
0.839767
0.842317
0.844986
0.847746
0.850553
0.853329
0.856
0.858267
0.86052
0.814683
0.815528
0.81637
0.817109
0.817862
0.818701
0.81962
0.820599
0.821641
0.822754
0.823949
0.825231
0.826604
0.828077
0.829656
0.831349
0.833162
0.835104
0.837179
0.839392
0.841745
0.844235
0.846853
0.849583
0.852392
0.85523
0.858015
0.860639
0.862881
0.864778
0.817399
0.818251
0.819096
0.819875
0.82068
0.821563
0.822519
0.823537
0.824617
0.82577
0.827002
0.828321
0.829731
0.831239
0.832853
0.834579
0.836425
0.838396
0.840498
0.842734
0.845104
0.847604
0.850223
0.85294
0.85572
0.858506
0.861212
0.863709
0.865815
0.867263
0.819715
0.820561
0.821396
0.822195
0.823028
0.823932
0.824904
0.825934
0.827026
0.828189
0.829429
0.830753
0.832166
0.833674
0.835284
0.837004
0.838839
0.840795
0.842875
0.845083
0.847417
0.849869
0.852428
0.855068
0.85775
0.860411
0.862961
0.865258
0.867128
0.868171
0.821618
0.822445
0.823259
0.824059
0.824899
0.825802
0.826765
0.827784
0.828862
0.830008
0.831227
0.832525
0.833908
0.835382
0.836954
0.838628
0.840412
0.84231
0.844325
0.846457
0.848703
0.851056
0.853498
0.856001
0.85852
0.860987
0.863302
0.865303
0.866804
0.867342
0.823117
0.823916
0.824699
0.825484
0.82631
0.827191
0.828124
0.829109
0.830149
0.831252
0.832422
0.833667
0.83499
0.836397
0.837895
0.83949
0.841185
0.842985
0.844892
0.846905
0.849018
0.851221
0.853493
0.855802
0.858098
0.860302
0.862303
0.863914
0.864957
0.864885
0.824249
0.825012
0.825755
0.826508
0.827301
0.828142
0.829027
0.829957
0.830937
0.831974
0.833072
0.834236
0.835472
0.836785
0.838181
0.839664
0.841238
0.842906
0.844668
0.84652
0.848456
0.850462
0.852513
0.854572
0.856581
0.858454
0.86007
0.861222
0.861764
0.860807
0.825067
0.825788
0.826485
0.827191
0.827933
0.828716
0.829534
0.830391
0.831292
0.832242
0.833246
0.834308
0.835433
0.836625
0.837891
0.839234
0.840658
0.842162
0.843745
0.8454
0.847118
0.848884
0.850668
0.852426
0.854095
0.855577
0.856744
0.85735
0.857333
0.855105
0.825644
0.826321
0.826961
0.827607
0.828284
0.828994
0.829731
0.830497
0.831298
0.832138
0.833022
0.833954
0.834936
0.835969
0.837073
0.838237
0.839476
0.840781
0.842145
0.843565
0.845028
0.846516
0.847995
0.849417
0.85071
0.851755
0.852419
0.852388
0.851773
0.848116
0.826069
0.826696
0.827262
0.827827
0.828425
0.829052
0.829701
0.830373
0.831073
0.831804
0.83257
0.833373
0.834218
0.835111
0.83604
0.837019
0.838036
0.839096
0.840202
0.841341
0.842499
0.843653
0.844766
0.845782
0.846618
0.847144
0.847225
0.846458
0.845184
0.840111
0.826496
0.827033
0.827473
0.827941
0.828454
0.828981
0.829511
0.83005
0.830609
0.831195
0.831811
0.832456
0.833131
0.833837
0.834572
0.835339
0.836134
0.836956
0.8378
0.83865
0.839486
0.84028
0.840993
0.84156
0.841893
0.84184
0.841273
0.839668
0.837658
0.830862
0.827132
0.827441
0.827627
0.827975
0.828424
0.828883
0.829345
0.829798
0.830237
0.83068
0.831135
0.831604
0.832085
0.83258
0.833087
0.833605
0.834131
0.834663
0.835196
0.835711
0.836186
0.836582
0.83685
0.836917
0.836685
0.835979
0.834685
0.832107
0.829355
0.820371
0.828027
0.827995
0.827905
0.828081
0.828378
0.828679
0.828974
0.829278
0.829592
0.829909
0.830225
0.830539
0.83085
0.831151
0.83144
0.831712
0.831963
0.832184
0.832366
0.832503
0.832571
0.83253
0.832319
0.83185
0.831012
0.829594
0.827522
0.823737
0.820519
0.808626
0.796106
0.782612
0.767469
0.751085
0.733803
0.715471
0.69598
0.675477
0.654414
0.633306
0.612829
0.593665
0.576028
0.561712
0.552128
0.546989
0.544922
0.545506
0.547682
0.551119
0.55503
0.557996
0.559707
0.560844
0.560954
0.560756
0.560908
0.553175
0.52699
0.489937
0.811589
0.799887
0.786231
0.771388
0.755473
0.738146
0.719397
0.699157
0.67759
0.654995
0.631824
0.609057
0.587333
0.568169
0.554889
0.547808
0.545176
0.54599
0.548565
0.552128
0.556197
0.558986
0.560362
0.561046
0.560899
0.560043
0.556557
0.537176
0.498509
0.459463
0.814944
0.803988
0.791515
0.777933
0.762578
0.745435
0.726636
0.70637
0.684784
0.662111
0.63876
0.615433
0.593007
0.572831
0.558444
0.550339
0.547004
0.547479
0.549741
0.553585
0.557699
0.559866
0.560731
0.561306
0.561081
0.557744
0.543269
0.504172
0.453852
0.417989
0.820408
0.81126
0.800218
0.787425
0.773047
0.756725
0.738292
0.717943
0.695768
0.672101
0.647566
0.623006
0.599396
0.578182
0.562722
0.553691
0.549688
0.549776
0.551807
0.555643
0.559369
0.560647
0.561232
0.562062
0.56076
0.552031
0.521952
0.468947
0.41809
0.394145
0.823389
0.815193
0.805222
0.793938
0.78075
0.765435
0.747844
0.728007
0.70597
0.681998
0.656684
0.630967
0.606051
0.583577
0.566752
0.556725
0.552203
0.552088
0.553927
0.557688
0.560849
0.561418
0.562235
0.563217
0.559632
0.542311
0.497017
0.442402
0.398476
0.387107
0.825678
0.818635
0.809927
0.799626
0.787371
0.772871
0.755949
0.736523
0.714626
0.690482
0.664621
0.637987
0.611947
0.588323
0.570267
0.55934
0.55438
0.554069
0.555701
0.559206
0.561883
0.562528
0.5637
0.564212
0.556174
0.528392
0.474959
0.425622
0.396721
0.40037
0.827245
0.821179
0.81351
0.804208
0.792947
0.779391
0.763266
0.744373
0.72268
0.698385
0.672006
0.644511
0.617395
0.592661
0.573476
0.561717
0.556336
0.555694
0.557243
0.560356
0.562784
0.563696
0.56492
0.562933
0.549288
0.512828
0.460401
0.422285
0.411738
0.434212
0.828343
0.823147
0.816437
0.80807
0.797727
0.785082
0.769793
0.751547
0.730209
0.705908
0.679122
0.650834
0.622658
0.596798
0.576498
0.563912
0.558087
0.557058
0.558599
0.5614
0.563617
0.564565
0.564863
0.559272
0.539484
0.499659
0.455018
0.43195
0.440711
0.479276
0.829104
0.824673
0.818815
0.8113
0.801819
0.790048
0.775586
0.758026
0.737132
0.712945
0.68588
0.656901
0.627719
0.600739
0.579333
0.56593
0.55965
0.558257
0.559796
0.56236
0.564258
0.564828
0.5633
0.553544
0.529156
0.491001
0.457909
0.451729
0.478352
0.527066
0.829628
0.825869
0.820765
0.814026
0.805348
0.794408
0.780757
0.763902
0.743505
0.719514
0.692262
0.662684
0.632555
0.60448
0.581989
0.567792
0.561058
0.559343
0.560839
0.563151
0.564751
0.564384
0.560533
0.546812
0.52042
0.487739
0.467616
0.478466
0.521024
0.576629
0.829982
0.826813
0.822379
0.816343
0.80841
0.798256
0.785393
0.769253
0.749401
0.725673
0.698315
0.668212
0.63719
0.608044
0.584482
0.569515
0.562334
0.56033
0.561741
0.563803
0.56503
0.563482
0.557256
0.540487
0.514452
0.488926
0.482547
0.510975
0.56692
0.626524
0.830212
0.827561
0.823724
0.818326
0.811082
0.801667
0.78956
0.774134
0.75486
0.731459
0.704069
0.673512
0.641646
0.611445
0.58683
0.571106
0.563485
0.561215
0.562522
0.564354
0.565093
0.562509
0.554144
0.535843
0.512076
0.495405
0.50502
0.55024
0.615047
0.667412
0.830344
0.82815
0.824851
0.820033
0.813427
0.804703
0.793318
0.778596
0.75992
0.736896
0.709541
0.678595
0.645931
0.614695
0.589036
0.572567
0.564524
0.562005
0.563203
0.564814
0.565091
0.561662
0.551856
0.534029
0.514954
0.510153
0.537076
0.59268
0.655428
0.694685
0.830395
0.828613
0.825795
0.821511
0.815496
0.80742
0.79672
0.782684
0.764617
0.742009
0.714749
0.683474
0.650056
0.617802
0.591106
0.573907
0.565454
0.562708
0.563798
0.565225
0.565123
0.561047
0.550942
0.535712
0.523866
0.531699
0.571291
0.63158
0.682567
0.70965
0.830384
0.828971
0.826584
0.822788
0.817329
0.809863
0.799811
0.78644
0.768985
0.746826
0.71971
0.688163
0.654031
0.620774
0.59305
0.575131
0.566282
0.563334
0.564326
0.565627
0.565242
0.560892
0.55164
0.540296
0.536678
0.555398
0.602451
0.660589
0.699992
0.717946
0.83032
0.829236
0.827241
0.823892
0.818956
0.812068
0.802632
0.789902
0.773056
0.751368
0.724443
0.692674
0.657866
0.623621
0.594874
0.576243
0.567013
0.563888
0.56481
0.566062
0.565474
0.561273
0.553708
0.546675
0.550748
0.578246
0.629678
0.681461
0.710934
0.722831
0.830215
0.829421
0.827782
0.824846
0.820399
0.814065
0.805217
0.793103
0.776858
0.755658
0.728962
0.697018
0.661569
0.626349
0.596583
0.577248
0.567654
0.564383
0.565264
0.566539
0.565889
0.562311
0.556803
0.55389
0.564885
0.599766
0.65201
0.696407
0.71785
0.72615
0.830076
0.829535
0.828219
0.825666
0.82168
0.815853
0.807587
0.796069
0.780417
0.759716
0.733282
0.701206
0.66515
0.628965
0.598183
0.578149
0.568202
0.564825
0.56571
0.567054
0.566589
0.564035
0.56066
0.561612
0.578533
0.619681
0.670091
0.707095
0.722322
0.728924
0.829911
0.829589
0.828561
0.826363
0.822814
0.817492
0.809766
0.798826
0.783754
0.763559
0.737417
0.705247
0.668615
0.631475
0.599679
0.578952
0.568661
0.565224
0.566167
0.567639
0.567652
0.566404
0.565125
0.569853
0.592069
0.63723
0.684325
0.714842
0.725378
0.731658
0.829729
0.829593
0.82882
0.82695
0.82381
0.818976
0.811776
0.801396
0.786892
0.767207
0.741379
0.709152
0.671971
0.633884
0.601074
0.579659
0.569041
0.565587
0.566642
0.56834
0.569099
0.569239
0.570007
0.578233
0.605544
0.652326
0.695414
0.720527
0.727791
0.73487
0.829536
0.829556
0.829003
0.827435
0.824681
0.820316
0.813632
0.803795
0.789847
0.770673
0.745181
0.71293
0.675227
0.636197
0.602374
0.580277
0.569346
0.56592
0.567131
0.569213
0.570926
0.572459
0.575083
0.586109
0.618274
0.66528
0.704341
0.725037
0.730071
0.738868
0.82934
0.82949
0.829122
0.827826
0.825433
0.821521
0.815346
0.80604
0.792637
0.773973
0.748834
0.716587
0.678386
0.638419
0.60358
0.580808
0.569593
0.566228
0.567644
0.570281
0.573053
0.575954
0.580163
0.59387
0.62985
0.676349
0.711784
0.728686
0.732667
0.743673
0.829149
0.829403
0.829188
0.828133
0.826073
0.822598
0.816926
0.808144
0.795276
0.777121
0.75235
0.720136
0.681458
0.640554
0.604697
0.581259
0.569768
0.566511
0.568209
0.571556
0.575447
0.579631
0.584881
0.601865
0.640215
0.686
0.718122
0.731712
0.736087
0.749138
0.828972
0.829302
0.829212
0.828366
0.826612
0.823553
0.818378
0.810116
0.797774
0.780123
0.755732
0.723577
0.684445
0.642607
0.605728
0.581633
0.569949
0.566781
0.568835
0.573075
0.578068
0.583366
0.589382
0.609204
0.649503
0.694917
0.723862
0.734518
0.740237
0.755089
0.828809
0.829195
0.829204
0.828531
0.827059
0.824394
0.819707
0.811968
0.800158
0.783011
0.759006
0.726927
0.687355
0.64458
0.606673
0.581922
0.570009
0.567015
0.569507
0.574767
0.580889
0.587053
0.593691
0.615775
0.658313
0.703524
0.728925
0.737639
0.744981
0.761382
0.828653
0.829094
0.829176
0.828629
0.827405
0.825133
0.820912
0.81368
0.802395
0.785757
0.762158
0.730187
0.690199
0.646486
0.607557
0.582231
0.570114
0.567355
0.570339
0.576661
0.583883
0.590576
0.598197
0.621977
0.667623
0.712198
0.733381
0.741056
0.750089
0.767785
0.828503
0.828999
0.829157
0.828689
0.82764
0.82579
0.822054
0.815324
0.804558
0.78842
0.765207
0.733337
0.692938
0.648275
0.608257
0.582203
0.569959
0.567506
0.57116
0.578679
0.586822
0.594078
0.603232
0.628739
0.677858
0.720499
0.737547
0.744621
0.755438
0.774231
0.828356
0.828896
0.829167
0.828774
0.82781
0.826207
0.823006
0.816806
0.806583
0.791008
0.768269
0.736548
0.695799
0.650288
0.609353
0.582547
0.570055
0.567821
0.57211
0.580809
0.589077
0.59615
0.607472
0.638744
0.688614
0.727961
0.74133
0.748423
0.761008
0.780616
0.828243
0.828764
0.829151
0.828878
0.828086
0.826751
0.823927
0.818149
0.80828
0.793095
0.770692
0.738988
0.697779
0.65131
0.609492
0.582231
0.569852
0.568058
0.573155
0.582979
0.591228
0.596712
0.609236
0.64604
0.698873
0.734281
0.744027
0.751269
0.766264
0.786482
0.828172
0.828586
0.828969
0.828835
0.828185
0.827153
0.824904
0.819923
0.810848
0.796429
0.774742
0.743441
0.701851
0.654263
0.610797
0.582299
0.569632
0.568215
0.574217
0.584741
0.593913
0.6032
0.621288
0.659771
0.710923
0.741043
0.747795
0.757274
0.774304
0.792475
0.471633
0.466107
0.505966
0.567544
0.583189
0.551761
0.523725
0.511109
0.503335
0.502258
0.506474
0.513681
0.522567
0.532321
0.542377
0.552378
0.562104
0.571406
0.5802
0.588461
0.5962
0.603443
0.610237
0.616608
0.622649
0.628531
0.634734
0.641319
0.648908
0.644914
0.451336
0.443587
0.501544
0.580543
0.600625
0.565297
0.523746
0.502757
0.492232
0.488618
0.491945
0.499248
0.508618
0.519047
0.529857
0.540594
0.550993
0.560906
0.570262
0.579043
0.587258
0.594927
0.602084
0.608755
0.614973
0.620692
0.626052
0.630338
0.635701
0.637672
0.439957
0.428061
0.48124
0.564099
0.598871
0.57525
0.522045
0.490442
0.477032
0.470975
0.472636
0.480074
0.490319
0.50172
0.513524
0.525295
0.536735
0.547646
0.557939
0.567597
0.576634
0.585073
0.592945
0.60028
0.607121
0.613419
0.61935
0.624545
0.630078
0.635533
0.437789
0.424286
0.459374
0.522941
0.559681
0.553333
0.512609
0.470436
0.451824
0.447523
0.44865
0.456498
0.468902
0.482743
0.496591
0.510155
0.523257
0.535672
0.547291
0.55812
0.568202
0.577582
0.586318
0.594464
0.602096
0.609233
0.616001
0.622298
0.628169
0.633784
0.443081
0.435524
0.440301
0.468762
0.49558
0.496712
0.475458
0.440677
0.416008
0.411271
0.416205
0.425327
0.440314
0.457964
0.475145
0.491289
0.506601
0.520971
0.534269
0.546528
0.557835
0.568274
0.577929
0.586879
0.59521
0.602971
0.610224
0.617007
0.623225
0.629167
0.444976
0.453546
0.419282
0.411342
0.424727
0.427293
0.413688
0.391278
0.369634
0.361725
0.36951
0.383164
0.400556
0.422964
0.445564
0.465839
0.484295
0.501316
0.516878
0.531039
0.543945
0.55574
0.566546
0.576479
0.585645
0.594135
0.602016
0.609393
0.61622
0.622834
0.410866
0.438839
0.383431
0.355244
0.356743
0.355277
0.343772
0.327196
0.31164
0.302865
0.308474
0.326757
0.349299
0.375798
0.404976
0.431914
0.455333
0.47619
0.494923
0.511702
0.526765
0.540356
0.552671
0.563881
0.574137
0.583574
0.592288
0.60041
0.607906
0.615151
0.332338
0.386416
0.330462
0.297421
0.290012
0.28209
0.269567
0.255564
0.243656
0.236893
0.239705
0.256612
0.284894
0.316708
0.351368
0.386672
0.417534
0.444093
0.467342
0.487766
0.505761
0.521728
0.535995
0.548822
0.560427
0.571
0.580679
0.589632
0.597844
0.60574
0.231437
0.30665
0.264579
0.235327
0.221454
0.206745
0.191015
0.177342
0.167277
0.162806
0.165658
0.179553
0.206951
0.244634
0.286146
0.328022
0.368025
0.402519
0.43213
0.457637
0.479678
0.498863
0.515708
0.530622
0.543932
0.555905
0.566746
0.576676
0.585713
0.594337
0.125882
0.213436
0.19042
0.168458
0.150735
0.130105
0.109968
0.0939056
0.0836613
0.0804726
0.0850455
0.0982763
0.123206
0.160908
0.207646
0.257795
0.305904
0.349606
0.387439
0.419742
0.447254
0.470786
0.491079
0.508742
0.524257
0.538012
0.5503
0.561413
0.571416
0.580851
0.029975
0.121787
0.115044
0.10036
0.0810242
0.0559021
0.0311605
0.0108807
-0.00213505
-0.00632452
-0.000910435
0.0131493
0.0368541
0.0728155
0.120723
0.175938
0.232487
0.285477
0.332586
0.373176
0.407623
0.436774
0.461547
0.482768
0.501112
0.517122
0.53121
0.543764
0.554912
0.565264
-0.0454784
0.0420492
0.046262
0.0373468
0.0176767
-0.0104796
-0.0391647
-0.0638241
-0.0810834
-0.0885636
-0.0851243
-0.0714759
-0.0486125
-0.0147012
0.0319173
0.0890314
0.15113
0.212419
0.26885
0.318455
0.360897
0.39676
0.426997
0.452594
0.47442
0.493194
0.509474
0.52376
0.536271
0.547674
-0.0950254
-0.0153923
-0.00496972
-0.0126736
-0.0331076
-0.0634913
-0.0953276
-0.12372
-0.144964
-0.156509
-0.157243
-0.146659
-0.126107
-0.0950476
-0.0513879
0.00467569
0.0691541
0.136148
0.200375
0.258473
0.30904
0.352083
0.388364
0.418904
0.444707
0.466657
0.485457
0.501731
0.515805
0.528389
-0.109571
-0.0438634
-0.0332799
-0.042807
-0.0652768
-0.0980768
-0.132955
-0.164782
-0.189517
-0.204839
-0.209729
-0.203845
-0.187363
-0.16038
-0.120998
-0.0682289
-0.00449866
0.064935
0.134248
0.198937
0.256494
0.306139
0.348246
0.383702
0.41354
0.43875
0.460163
0.478506
0.494221
0.508025
-0.0875456
-0.0424082
-0.0340931
-0.048196
-0.0742522
-0.110113
-0.148458
-0.184037
-0.212581
-0.231718
-0.240441
-0.239005
-0.227065
-0.204591
-0.169956
-0.121625
-0.0608534
0.00798869
0.0791549
0.147608
0.209881
0.264363
0.311053
0.350538
0.383768
0.411772
0.43545
0.455596
0.472762
0.487614
-0.0318416
-0.0088378
-0.00690206
-0.0272286
-0.0579144
-0.0975921
-0.139718
-0.179125
-0.211791
-0.23532
-0.248317
-0.250711
-0.242969
-0.224421
-0.193823
-0.149673
-0.092658
-0.0263626
0.043952
0.112976
0.176941
0.233394
0.282453
0.324177
0.359361
0.389011
0.414036
0.435245
0.453272
0.468672
0.0512138
0.0532454
0.0466885
0.0197572
-0.0158227
-0.0593231
-0.105292
-0.148932
-0.186064
-0.213891
-0.230816
-0.236418
-0.232244
-0.216796
-0.189059
-0.148089
-0.0946436
-0.0318849
0.0353873
0.101951
0.164196
0.219826
0.268344
0.309767
0.344793
0.374323
0.399223
0.420266
0.438128
0.453199
0.153424
0.136624
0.120996
0.0884111
0.0490105
0.00305262
-0.0452717
-0.0918438
-0.132705
-0.164853
-0.186117
-0.195285
-0.193076
-0.179206
-0.152878
-0.113917
-0.063314
-0.00485885
0.0573506
0.118725
0.176008
0.227832
0.272909
0.311371
0.343889
0.371257
0.394266
0.413614
0.429974
0.443551
0.263823
0.232768
0.20836
0.171538
0.130105
0.0840763
0.0363027
-0.0100909
-0.0517161
-0.0855993
-0.10933
-0.121238
-0.121034
-0.108798
-0.0840261
-0.0472271
-0.000228056
0.0533563
0.109157
0.163365
0.213515
0.25862
0.297681
0.330894
0.358833
0.382187
0.401657
0.417828
0.431322
0.442168
0.371576
0.332446
0.299909