/*--------------------------------*- C++ -*----------------------------------*\
  =========                 |
  \\      /  F ield         | OpenFOAM: The Open Source CFD Toolbox
   \\    /   O peration     | Website:  https://openfoam.org
    \\  /    A nd           | Version:  11
     \\/     M anipulation  |
\*---------------------------------------------------------------------------*/
FoamFile
{
    format      ascii;
    class       volScalarField;
    location    "7";
    object      p;
}
// * * * * * * * * * * * * * * * * * * * * * * * * * * * * * * * * * * * * * //

dimensions      [0 2 -2 0 0 0 0];

internalField   nonuniform List<scalar> 
12600
(
0.164546
0.164455
0.164404
0.164386
0.164374
0.164359
0.164342
0.164326
0.16431
0.164292
0.164271
0.164247
0.164219
0.164184
0.16414
0.164083
0.164009
0.163912
0.163788
0.163633
0.163436
0.16318
0.162851
0.16243
0.161893
0.161211
0.160351
0.159268
0.157938
0.156249
0.164476
0.164435
0.164401
0.164384
0.164371
0.164357
0.164342
0.164326
0.16431
0.164294
0.164275
0.164252
0.164225
0.164191
0.164149
0.164096
0.164027
0.163931
0.16381
0.163662
0.163474
0.163229
0.162912
0.162505
0.161984
0.161319
0.160475
0.15941
0.158084
0.156435
0.164445
0.164431
0.164405
0.164386
0.164372
0.16436
0.164345
0.164331
0.164315
0.164299
0.164281
0.164259
0.164234
0.164202
0.164163
0.164113
0.164048
0.163962
0.163854
0.163717
0.16354
0.163311
0.163015
0.162632
0.162139
0.161506
0.160696
0.159668
0.158356
0.156736
0.164425
0.164417
0.164399
0.164382
0.164369
0.164358
0.164345
0.164332
0.164318
0.164304
0.164287
0.164268
0.164245
0.164217
0.164182
0.164138
0.164081
0.164007
0.163912
0.16379
0.163633
0.163429
0.163163
0.162817
0.162367
0.161784
0.161027
0.160057
0.158788
0.15721
0.164411
0.164406
0.164394
0.164381
0.16437
0.164359
0.164348
0.164337
0.164325
0.164311
0.164297
0.16428
0.164261
0.164237
0.164208
0.164171
0.164124
0.164063
0.163985
0.163884
0.163752
0.16358
0.163353
0.163055
0.162662
0.162145
0.161463
0.160574
0.15938
0.157878
0.164401
0.164397
0.164389
0.164379
0.164369
0.164359
0.16435
0.16434
0.164329
0.164318
0.164306
0.164293
0.164277
0.164259
0.164237
0.164209
0.164173
0.164128
0.164069
0.163992
0.163891
0.163757
0.163579
0.16334
0.163018
0.162587
0.162003
0.161222
0.160139
0.158751
0.164393
0.164391
0.164385
0.164377
0.164368
0.16436
0.164352
0.164344
0.164335
0.164326
0.164317
0.164307
0.164296
0.164284
0.164269
0.164251
0.164229
0.1642
0.164163
0.164113
0.164048
0.163958
0.163835
0.163666
0.16343
0.163102
0.162639
0.162
0.161067
0.159838
0.164387
0.164385
0.164381
0.164375
0.164368
0.164361
0.164354
0.164347
0.164341
0.164334
0.164328
0.164322
0.164315
0.164309
0.164303
0.164295
0.164287
0.164276
0.164262
0.164243
0.164215
0.164175
0.164114
0.164024
0.163886
0.163679
0.163364
0.162898
0.162161
0.161147
0.164383
0.164381
0.164378
0.164373
0.164368
0.164362
0.164356
0.164351
0.164347
0.164342
0.164339
0.164336
0.164335
0.164335
0.164337
0.16434
0.164346
0.164354
0.164364
0.164376
0.164389
0.164401
0.164408
0.164403
0.164375
0.164306
0.164161
0.163903
0.163412
0.162681
0.164379
0.164378
0.164376
0.164372
0.164368
0.164363
0.164359
0.164355
0.164352
0.16435
0.164349
0.16435
0.164354
0.16436
0.164369
0.164384
0.164403
0.164429
0.164463
0.164507
0.164561
0.164627
0.164704
0.16479
0.16488
0.164961
0.165009
0.164993
0.164801
0.164427
0.164377
0.164376
0.164374
0.164371
0.164367
0.164364
0.164361
0.164358
0.164357
0.164357
0.164358
0.164363
0.16437
0.164382
0.1644
0.164424
0.164456
0.1645
0.164557
0.164631
0.164726
0.164845
0.164992
0.165171
0.165382
0.165624
0.16588
0.166135
0.166293
0.166352
0.164375
0.164374
0.164372
0.16437
0.164367
0.164365
0.164362
0.164361
0.164361
0.164362
0.164366
0.164374
0.164385
0.164402
0.164426
0.164459
0.164503
0.164563
0.164641
0.164743
0.164875
0.165044
0.165259
0.165528
0.165861
0.166265
0.166739
0.167285
0.167834
0.168396
0.164373
0.164373
0.164371
0.164369
0.164367
0.164365
0.164363
0.164363
0.164364
0.164367
0.164372
0.164382
0.164396
0.164417
0.164447
0.164487
0.164541
0.164614
0.16471
0.164837
0.165002
0.165216
0.165492
0.165844
0.166291
0.166852
0.167544
0.168385
0.169351
0.170468
0.164372
0.164372
0.164371
0.164369
0.164367
0.164365
0.164364
0.164364
0.164366
0.164369
0.164376
0.164387
0.164404
0.164428
0.164461
0.164507
0.164569
0.164652
0.164762
0.164908
0.1651
0.165351
0.165678
0.166102
0.16665
0.167353
0.168245
0.169371
0.170753
0.172442
0.164372
0.164371
0.16437
0.164368
0.164366
0.164365
0.164364
0.164364
0.164366
0.16437
0.164378
0.16439
0.164407
0.164433
0.164468
0.164517
0.164584
0.164673
0.164793
0.164952
0.165163
0.16544
0.165806
0.166285
0.166913
0.167732
0.168795
0.170171
0.171933
0.174164
0.164371
0.164371
0.16437
0.164368
0.164366
0.164364
0.164364
0.164364
0.164365
0.164369
0.164377
0.164389
0.164406
0.164432
0.164468
0.164518
0.164586
0.164678
0.164801
0.164966
0.165186
0.165478
0.165866
0.166379
0.167059
0.167958
0.169147
0.170712
0.172779
0.175465
0.164371
0.164371
0.164369
0.164367
0.164365
0.164363
0.164362
0.164362
0.164363
0.164367
0.164373
0.164384
0.164401
0.164425
0.16446
0.164508
0.164574
0.164664
0.164785
0.164948
0.165167
0.16546
0.165851
0.166374
0.167073
0.168008
0.16926
0.170933
0.173192
0.176182
0.164372
0.164371
0.164369
0.164367
0.164365
0.164362
0.164361
0.16436
0.16436
0.164362
0.164367
0.164377
0.164391
0.164413
0.164444
0.164488
0.164548
0.164631
0.164745
0.164898
0.165105
0.165383
0.165759
0.166264
0.166945
0.167864
0.169108
0.170789
0.173094
0.176187
0.164372
0.164372
0.16437
0.164367
0.164364
0.164361
0.164359
0.164356
0.164355
0.164356
0.164359
0.164366
0.164377
0.164395
0.16442
0.164457
0.16451
0.164582
0.164681
0.164816
0.165
0.16525
0.165589
0.166049
0.166674
0.167524
0.168683
0.170263
0.172449
0.175407
0.164374
0.164373
0.164371
0.164367
0.164363
0.164359
0.164356
0.164352
0.16435
0.164348
0.164349
0.164353
0.16436
0.164372
0.164391
0.164419
0.164459
0.164516
0.164596
0.164706
0.164857
0.165065
0.165349
0.165737
0.166268
0.166995
0.167994
0.169364
0.171267
0.173847
0.164376
0.164375
0.164372
0.164368
0.164363
0.164358
0.164353
0.164348
0.164343
0.16434
0.164338
0.164337
0.164339
0.164345
0.164356
0.164373
0.164399
0.164438
0.164493
0.164572
0.164682
0.164834
0.165046
0.165339
0.165744
0.166302
0.167072
0.168131
0.16961
0.171604
0.164379
0.164377
0.164374
0.164368
0.164362
0.164356
0.16435
0.164343
0.164337
0.16433
0.164325
0.16432
0.164317
0.164316
0.164317
0.164322
0.164332
0.16435
0.164378
0.164419
0.164481
0.164569
0.164695
0.164874
0.165126
0.165476
0.165966
0.166644
0.167581
0.168827
0.164383
0.164381
0.164376
0.16437
0.164362
0.164355
0.164347
0.164338
0.16433
0.164321
0.164312
0.164303
0.164293
0.164284
0.164276
0.164268
0.164261
0.164256
0.164253
0.164255
0.164263
0.164281
0.164313
0.164365
0.164445
0.164563
0.164738
0.164982
0.165306
0.165714
0.164388
0.164386
0.16438
0.164371
0.164362
0.164353
0.164344
0.164334
0.164323
0.164311
0.164299
0.164285
0.16427
0.164253
0.164234
0.164213
0.164188
0.16416
0.164126
0.164087
0.16404
0.163984
0.163917
0.163836
0.163735
0.163613
0.163456
0.163246
0.162935
0.162483
0.164396
0.164392
0.164384
0.164373
0.164363
0.164352
0.164341
0.164329
0.164316
0.164302
0.164286
0.164268
0.164247
0.164223
0.164194
0.16416
0.164118
0.164066
0.164002
0.163922
0.163821
0.163693
0.163528
0.163315
0.163038
0.162676
0.162191
0.161537
0.160613
0.159342
0.164406
0.164401
0.164389
0.164375
0.164364
0.164352
0.16434
0.164326
0.164311
0.164294
0.164275
0.164253
0.164227
0.164196
0.164158
0.164111
0.164053
0.163981
0.163888
0.16377
0.163618
0.163422
0.163167
0.162831
0.16239
0.161803
0.161016
0.159954
0.158475
0.156473
0.16442
0.164412
0.164394
0.164377
0.164364
0.164352
0.164338
0.164322
0.164306
0.164287
0.164265
0.164239
0.164209
0.164171
0.164125
0.164068
0.163996
0.163904
0.163787
0.163635
0.163439
0.163183
0.162848
0.162407
0.161821
0.161039
0.159988
0.158577
0.156632
0.15402
0.164439
0.164425
0.1644
0.164381
0.164368
0.164354
0.164338
0.164322
0.164303
0.164283
0.164259
0.16423
0.164196
0.164154
0.164101
0.164035
0.163952
0.163845
0.163707
0.163528
0.163296
0.162992
0.162594
0.162067
0.161365
0.160426
0.159164
0.157476
0.155176
0.152103
0.16447
0.16443
0.164395
0.164379
0.164367
0.164353
0.164337
0.16432
0.1643
0.164279
0.164253
0.164222
0.164185
0.164139
0.164082
0.16401
0.163918
0.1638
0.163648
0.163449
0.16319
0.16285
0.162405
0.16182
0.161041
0.159993
0.158582
0.156699
0.154172
0.150799
0.164539
0.164449
0.164399
0.164382
0.16437
0.164355
0.164338
0.16432
0.1643
0.164278
0.164252
0.16422
0.164181
0.164134
0.164075
0.163999
0.163903
0.163779
0.163619
0.16341
0.163137
0.162779
0.162307
0.161685
0.160855
0.159742
0.158251
0.156264
0.153624
0.150092
0.154758
0.153946
0.153495
0.153258
0.152995
0.152632
0.152255
0.151885
0.15151
0.151119
0.15071
0.150283
0.149831
0.149348
0.148822
0.148239
0.147582
0.14683
0.145955
0.144921
0.143677
0.142154
0.140252
0.137834
0.134676
0.130517
0.124749
0.116556
0.107046
0.0808356
0.155286
0.154778
0.154389
0.154089
0.153813
0.153502
0.153136
0.152793
0.152474
0.152155
0.151828
0.151492
0.151141
0.15077
0.150368
0.149926
0.149433
0.148871
0.148221
0.147454
0.146531
0.1454
0.143982
0.142173
0.139795
0.13665
0.132203
0.126157
0.117722
0.098702
0.155367
0.155042
0.154788
0.154548
0.154298
0.154056
0.153811
0.153582
0.153365
0.153149
0.152928
0.152703
0.152474
0.152235
0.151983
0.151711
0.151411
0.151074
0.150684
0.150223
0.149664
0.14897
0.148085
0.146932
0.145381
0.143284
0.14021
0.136062
0.12935
0.116469
0.155801
0.155659
0.155564
0.1554
0.155214
0.155043
0.154889
0.154746
0.154613
0.15449
0.154375
0.154269
0.154173
0.154084
0.153999
0.153916
0.153833
0.153743
0.153641
0.153515
0.15335
0.153124
0.152802
0.152332
0.151622
0.15057
0.148833
0.146419
0.141664
0.13388
0.15647
0.156456
0.156475
0.156379
0.156256
0.156167
0.156111
0.156072
0.156049
0.156045
0.156061
0.156098
0.156158
0.15624
0.156347
0.15648
0.156639
0.156826
0.15704
0.15728
0.15754
0.157811
0.158077
0.158307
0.158443
0.158416
0.157964
0.15715
0.154379
0.150716
0.157368
0.157474
0.15761
0.157603
0.157566
0.157578
0.157633
0.15771
0.157809
0.157935
0.158093
0.158287
0.158518
0.15879
0.159108
0.159477
0.159902
0.160389
0.160944
0.161571
0.162277
0.163062
0.163924
0.164853
0.165813
0.166764
0.167512
0.168136
0.167219
0.166732
0.158514
0.15874
0.158998
0.159089
0.159148
0.159268
0.159441
0.159645
0.159878
0.16015
0.160468
0.160836
0.161257
0.16174
0.16229
0.162916
0.163627
0.164433
0.165345
0.166376
0.167538
0.168841
0.170294
0.171899
0.173641
0.175495
0.177326
0.179193
0.179914
0.181738
0.159932
0.16028
0.160664
0.160863
0.161029
0.161268
0.161572
0.161916
0.162298
0.16273
0.163222
0.163778
0.164406
0.165113
0.16591
0.166807
0.167817
0.168953
0.170232
0.17167
0.173284
0.175092
0.17711
0.179347
0.181803
0.184459
0.187221
0.190106
0.192184
0.195575
0.161638
0.162112
0.162625
0.162939
0.163221
0.163589
0.164034
0.164528
0.165069
0.165673
0.16635
0.167107
0.167951
0.168893
0.169946
0.171122
0.172435
0.173904
0.175545
0.17738
0.179428
0.181711
0.184248
0.187053
0.190128
0.19346
0.196976
0.200641
0.203773
0.208065
0.163636
0.164234
0.164875
0.165311
0.165719
0.166223
0.166816
0.167467
0.168176
0.168959
0.169828
0.17079
0.171856
0.173037
0.174346
0.175798
0.177409
0.179199
0.181185
0.183391
0.185836
0.188545
0.191534
0.194819
0.198401
0.20226
0.206332
0.210539
0.214403
0.219015
0.165903
0.166623
0.167385
0.167947
0.168486
0.169131
0.169874
0.170685
0.171564
0.172526
0.173587
0.174753
0.176037
0.177449
0.179005
0.18072
0.18261
0.184696
0.186995
0.189529
0.19232
0.195385
0.198743
0.202402
0.206356
0.210578
0.214996
0.219499
0.223734
0.228156
0.168385
0.169215
0.170088
0.170773
0.171445
0.17223
0.17312
0.174086
0.175129
0.176265
0.177508
0.178869
0.180356
0.181983
0.183764
0.185716
0.187854
0.190196
0.19276
0.195567
0.198633
0.201974
0.205601
0.209514
0.213698
0.218112
0.22267
0.227226
0.231461
0.235327
0.170977
0.171903
0.172866
0.173668
0.174469
0.175385
0.176412
0.177521
0.178715
0.180009
0.181417
0.18295
0.184617
0.18643
0.188405
0.190555
0.192895
0.195443
0.198214
0.201223
0.204485
0.208009
0.211799
0.215846
0.220122
0.224571
0.22909
0.233502
0.237491
0.240794
0.173526
0.174524
0.175555
0.176459
0.177377
0.17841
0.179554
0.180786
0.182108
0.183536
0.185082
0.186756
0.188568
0.19053
0.192654
0.194954
0.197443
0.200136
0.203045
0.206182
0.209555
0.213169
0.217017
0.221083
0.225327
0.229678
0.234021
0.238155
0.241796
0.244505
0.175827
0.176872
0.177942
0.178926
0.179942
0.181068
0.182303
0.18363
0.18505
0.186578
0.188226
0.190003
0.191918
0.193981
0.196205
0.1986
0.201179
0.203951
0.206927
0.210114
0.213515
0.217128
0.220939
0.224922
0.229027
0.233169
0.237222
0.240964
0.244116
0.246045
0.177644
0.178707
0.179788
0.180825
0.18191
0.183101
0.184394
0.18578
0.187262
0.188852
0.19056
0.192394
0.194364
0.196478
0.198747
0.20118
0.203785
0.206572
0.209545
0.212708
0.21606
0.219591
0.22328
0.227092
0.230968
0.234808
0.23847
0.24171
0.24424
0.245421
0.178738
0.179793
0.180858
0.181916
0.183037
0.184256
0.185572
0.186978
0.18848
0.190088
0.191811
0.193656
0.195631
0.197744
0.200003
0.202415
0.204988
0.207727
0.210633
0.213706
0.21694
0.220318
0.223814
0.227382
0.230955
0.234421
0.237628
0.240317
0.242224
0.242614
0.178913
0.179936
0.180963
0.18201
0.183127
0.184336
0.185634
0.18702
0.1885
0.190082
0.191774
0.193582
0.195513
0.197573
0.199769
0.202108
0.204592
0.207225
0.210007
0.212932
0.215989
0.219158
0.222407
0.225683
0.228909
0.231963
0.234689
0.236802
0.2381
0.237326
0.178055
0.179023
0.179997
0.180998
0.18207
0.183228
0.18447
0.185796
0.187212
0.188725
0.190341
0.192066
0.193906
0.195867
0.197953
0.200169
0.202516
0.204996
0.207606
0.210336
0.213172
0.21609
0.219051
0.221997
0.22484
0.227452
0.229667
0.231154
0.231853
0.229721
0.176163
0.177058
0.177965
0.17889
0.179876
0.180944
0.182093
0.183322
0.184634
0.186037
0.187536
0.189137
0.190844
0.192662
0.194595
0.196644
0.198811
0.201094
0.203488
0.20598
0.208553
0.211177
0.213808
0.21638
0.218803
0.220933
0.222611
0.223439
0.223586
0.220155
0.173365
0.174166
0.17499
0.175808
0.176671
0.177613
0.178634
0.17973
0.180901
0.182156
0.183499
0.184935
0.186469
0.188102
0.189838
0.191678
0.19362
0.195662
0.197795
0.200005
0.202271
0.204558
0.206819
0.208982
0.210948
0.212561
0.213669
0.213775
0.213321
0.208381
0.169873
0.170557
0.171279
0.171959
0.172665
0.173446
0.174307
0.175235
0.176231
0.177302
0.178452
0.179687
0.181009
0.182419
0.18392
0.185511
0.18719
0.188951
0.190783
0.192671
0.194588
0.196498
0.198347
0.200055
0.201517
0.202554
0.203027
0.202297
0.201134
0.194367
0.165956
0.166499
0.167095
0.167613
0.168133
0.168727
0.169399
0.170132
0.170923
0.171778
0.172706
0.173707
0.174784
0.175937
0.177168
0.178474
0.179851
0.181293
0.182784
0.184308
0.185833
0.187319
0.188705
0.189902
0.190795
0.191177
0.190917
0.189198
0.187127
0.178472
0.161914
0.162289
0.162731
0.163063
0.163377
0.163761
0.164219
0.16473
0.16529
0.165904
0.16658
0.16732
0.168122
0.168989
0.169918
0.170906
0.171948
0.173034
0.174147
0.175264
0.176353
0.177366
0.178233
0.178855
0.179106
0.178743
0.177647
0.174808
0.171678
0.160904
0.158021
0.158197
0.158454
0.158581
0.158675
0.158831
0.159056
0.159326
0.159634
0.159986
0.160388
0.160842
0.161347
0.161901
0.162501
0.163144
0.16382
0.164517
0.165216
0.165889
0.166499
0.166989
0.167282
0.167265
0.166796
0.165594
0.163552
0.159456
0.155118
0.141772
0.154502
0.154451
0.154489
0.154393
0.154254
0.154168
0.154141
0.15415
0.154187
0.154259
0.15437
0.15452
0.154707
0.154928
0.15518
0.155454
0.155741
0.156023
0.156279
0.156476
0.156569
0.156493
0.156161
0.155442
0.154179
0.152042
0.148937
0.143411
0.137701
0.121212
0.151525
0.151217
0.151009
0.150688
0.15032
0.149988
0.149698
0.149434
0.149189
0.148969
0.148774
0.148604
0.148458
0.148332
0.148218
0.148108
0.147986
0.147835
0.147625
0.147319
0.146863
0.146184
0.145179
0.143699
0.141566
0.138396
0.134099
0.126945
0.119697
0.0994127
0.149226
0.148585
0.148059
0.147495
0.146898
0.146314
0.145733
0.145171
0.144636
0.144118
0.14361
0.143113
0.142626
0.142143
0.141655
0.14115
0.140611
0.140015
0.139328
0.138505
0.137483
0.136177
0.134471
0.132188
0.129129
0.124844
0.119251
0.110278
0.101408
0.0765944
0.147857
0.146817
0.145931
0.145108
0.144355
0.143582
0.142677
0.141782
0.140934
0.140101
0.139265
0.138428
0.137589
0.136741
0.135873
0.134969
0.134007
0.13296
0.131787
0.130435
0.128831
0.126874
0.124429
0.121295
0.117241
0.111741
0.104733
0.0936625
0.0832511
0.0529134
0.146611
0.145061
0.143872
0.142929
0.141938
0.140797
0.139631
0.138488
0.13735
0.136199
0.135033
0.133854
0.132658
0.131437
0.13018
0.12887
0.127481
0.125982
0.124328
0.122457
0.120285
0.117695
0.114531
0.110561
0.10552
0.0987837
0.0903997
0.0768439
0.0656556
0.0284569
0.00423806
-0.0208481
-0.0475388
-0.074451
-0.100663
-0.12598
-0.149991
-0.172418
-0.192471
-0.209888
-0.22428
-0.23512
-0.241653
-0.243888
-0.241631
-0.23425
-0.221425
-0.203125
-0.179869
-0.152651
-0.126259
-0.104165
-0.0900976
-0.0831397
-0.081323
-0.082395
-0.0830122
-0.082599
-0.0811836
-0.0792393
0.0490216
0.0272891
0.00356399
-0.0198719
-0.0430088
-0.065761
-0.0877657
-0.108803
-0.128543
-0.146714
-0.16257
-0.175658
-0.184632
-0.188988
-0.190097
-0.187373
-0.179329
-0.165926
-0.148441
-0.127873
-0.107157
-0.0915597
-0.0832863
-0.0811837
-0.0820416
-0.0818323
-0.0795123
-0.077317
-0.0779391
-0.0773314
0.0603141
0.0400698
0.0177734
-0.00491068
-0.02751
-0.0495978
-0.0713344
-0.0924745
-0.112698
-0.131207
-0.14726
-0.160252
-0.169527
-0.174701
-0.176176
-0.173493
-0.165877
-0.153732
-0.138179
-0.121341
-0.104092
-0.0913829
-0.0847172
-0.0832131
-0.0829745
-0.0815082
-0.0799152
-0.0785677
-0.0793428
-0.074756
0.0774791
0.0593412
0.0389068
0.0182976
-0.00217384
-0.0228603
-0.0439818
-0.0649182
-0.0849426
-0.103366
-0.119561
-0.132916
-0.142853
-0.148934
-0.151085
-0.149154
-0.143025
-0.133207
-0.120853
-0.107549
-0.0950269
-0.0860255
-0.0808926
-0.0780286
-0.0758518
-0.0739739
-0.0734843
-0.0734444
-0.0730829
-0.0695455
0.0873521
0.0710062
0.0522082
0.0332449
0.0141265
-0.00564041
-0.0259487
-0.0461764
-0.0656761
-0.0838859
-0.100208
-0.113994
-0.124621
-0.131593
-0.134692
-0.133877
-0.129226
-0.121237
-0.110985
-0.0999728
-0.0898462
-0.0820848
-0.0768852
-0.073446
-0.0710662
-0.0693694
-0.0680733
-0.0669917
-0.0652232
-0.0647305
0.0956264
0.0808285
0.06356
0.0459869
0.0280642
0.00929164
-0.0101911
-0.0298054
-0.0489368
-0.067014
-0.0834114
-0.0974487
-0.108481
-0.116
-0.119746
-0.119699
-0.116053
-0.10939
-0.100777
-0.0916056
-0.0832121
-0.0765261
-0.071711
-0.0683234
-0.0658185
-0.0637769
-0.061916
-0.0602996
-0.059194
-0.0597279
0.10182
0.0883735
0.0724889
0.0562188
0.0394912
0.0217824
0.00319031
-0.0157378
-0.0343973
-0.0522105
-0.0685488
-0.082727
-0.0940904
-0.102119
-0.106524
-0.107287
-0.104664
-0.0992733
-0.0921227
-0.0844273
-0.0772821
-0.0713843
-0.066874
-0.0634368
-0.0606327
-0.0581622
-0.05595
-0.0541887
-0.0530185
-0.0530207
0.106759
0.0944773
0.0798224
0.0647088
0.049035
0.0322711
0.0144893
-0.00378733
-0.0219708
-0.0394945
-0.0557375
-0.070014
-0.0816579
-0.0901319
-0.0951246
-0.096609
-0.0948664
-0.0905203
-0.0845115
-0.077918
-0.071674
-0.0663428
-0.0620321
-0.0585082
-0.0554617
-0.0527256
-0.0502963
-0.0483009
-0.0467091
-0.0458663
0.110734
0.099453
0.0858765
0.0717945
0.0570757
0.0411857
0.0241739
0.00653208
-0.0111765
-0.0283995
-0.0445214
-0.0588531
-0.0707173
-0.0795613
-0.0850568
-0.0871678
-0.0861804
-0.0827071
-0.0776271
-0.0719077
-0.0663601
-0.0614554
-0.0572849
-0.053688
-0.0504615
-0.047514
-0.0448432
-0.0425252
-0.0404751
-0.0390791
0.114015
0.103593
0.0909549
0.0777868
0.0639286
0.0488394
0.0325464
0.0155093
-0.00173584
-0.018653
-0.0346336
-0.0489878
-0.0610301
-0.0701948
-0.0761379
-0.0788103
-0.0784893
-0.0757651
-0.0714574
-0.0664399
-0.0614289
-0.0568353
-0.0527508
-0.0490761
-0.0456813
-0.0425189
-0.0395846
-0.0369426
-0.0344776
-0.0326673
0.116787
0.107099
0.095275
0.0829143
0.0698294
0.0554682
0.0398364
0.0233641
0.00656057
-0.0100566
-0.025888
-0.0402452
-0.0524362
-0.0618825
-0.0682235
-0.0713935
-0.0716531
-0.0695639
-0.0658911
-0.0614304
-0.0568277
-0.0524551
-0.0484133
-0.0446502
-0.0410947
-0.0377247
-0.0345375
-0.0316016
-0.0287741
-0.0266105
0.119184
0.110126
0.0990048
0.0873554
0.0749631
0.061261
0.0462339
0.0302847
0.0138967
-0.00243237
-0.0181144
-0.0324631
-0.0447806
-0.0544756
-0.0611707
-0.0647811
-0.0655468
-0.0639984
-0.060851
-0.0568364
-0.052548
-0.0483326
-0.0443031
-0.0404472
-0.0367326
-0.0331627
-0.029739
-0.0265373
-0.0233896
-0.0209199
0.121305
0.112788
0.102273
0.0912494
0.0794762
0.0663691
0.0518922
0.0364238
0.0204221
0.00436437
-0.0111736
-0.0255086
-0.0379373
-0.0478557
-0.0548688
-0.0588717
-0.0600807
-0.058995
-0.0562835
-0.0526254
-0.0485752
-0.0444633
-0.0404168
-0.0364575
-0.0325854
-0.0288256
-0.0251852
-0.0217508
-0.0183344
-0.0156291
0.123225
0.115173
0.105181
0.0947063
0.0834852
0.070914
0.0569356
0.0419056
0.0262588
0.0104521
-0.00495174
-0.0192733
-0.0318038
-0.0419265
-0.0492281
-0.0535821
-0.0551801
-0.0544896
-0.0521388
-0.0487635
-0.0448888
-0.040836
-0.0367485
-0.0326784
-0.0286534
-0.024718
-0.0208861
-0.0172586
-0.0136312
-0.010767
0.124997
0.117348
0.107808
0.0978148
0.087085
0.0749947
0.0614659
0.046833
0.031509
0.0159305
0.0006471
-0.0136655
-0.0262935
-0.0366067
-0.0441725
-0.0488424
-0.0507824
-0.0504304
-0.0483759
-0.0452219
-0.0414706
-0.0374402
-0.0332917
-0.0291051
-0.0249334
-0.0208391
-0.0168448
-0.0130679
-0.00928911
-0.00634117
0.126661
0.119363
0.110216
0.100645
0.0903517
0.0786921
0.0655674
0.0512921
0.0362583
0.0208834
0.00570404
-0.008608
-0.0213333
-0.0318275
-0.0396383
-0.0445942
-0.046836
-0.046773
-0.0449602
-0.0419752
-0.0383029
-0.0342634
-0.030037
-0.0257303
-0.0214201
-0.0171869
-0.0130631
-0.00918305
-0.00531293
-0.00235279
0.12825
0.121257
0.112449
0.10325
0.0933468
0.0820727
0.06931
0.0553547
0.040579
0.0253819
0.0102879
-0.00403495
-0.0168611
-0.0275314
-0.035572
-0.0407884
-0.0432974
-0.0434801
-0.0418623
-0.0390004
-0.0353683
-0.0312926
-0.0269744
-0.0225462
-0.0181081
-0.0137586
-0.00954098
-0.00560578
-0.00170298
0.00120463
0.129788
0.123063
0.114547
0.105676
0.0961206
0.0851913
0.0727523
0.0590817
0.0445325
0.0294867
0.0144573
0.00010969
-0.0128244
-0.023669
-0.0319281
-0.0373836
-0.0401301
-0.0405195
-0.0390561
-0.0362769
-0.0326508
-0.0285151
-0.0240937
-0.0195445
-0.0149912
-0.0105508
-0.00627782
-0.00233618
0.00154272
0.00434159
0.13129
0.124806
0.116544
0.107962
0.0987149
0.0880935
0.0759436
0.0625248
0.0481714
0.0332497
0.0182629
0.00387402
-0.00917803
-0.0201987
-0.0286682
-0.0343445
-0.0373027
-0.0378655
-0.0365193
-0.0337862
-0.0301352
-0.0259187
-0.0213847
-0.0167172
-0.0120635
-0.00755985
-0.00327236
0.000626166
0.00442651
0.00707024
0.13277
0.126503
0.118465
0.110138
0.101164
0.0908175
0.0789255
0.0657281
0.0515408
0.0367159
0.0217483
0.00729955
-0.00588351
-0.017085
-0.0257596
-0.0316406
-0.0347748
-0.0354951
-0.0342322
-0.0315114
-0.0278072
-0.0234915
-0.0188378
-0.0140562
-0.00931896
-0.00478226
-0.000523052
0.00328306
0.00695288
0.0094047
0.134232
0.128168
0.120331
0.11223
0.103498
0.0933953
0.0817333
0.0687296
0.0546798
0.0399241
0.0249511
0.0104222
-0.00290773
-0.0142976
-0.0231752
-0.0292485
-0.0325509
-0.0333885
-0.0321787
-0.0294383
-0.0256544
-0.0212226
-0.0164434
-0.0115537
-0.00675244
-0.00221586
0.00196968
0.00563497
0.00912868
0.0113654
0.13568
0.129809
0.122159
0.11426
0.10574
0.0958537
0.0843975
0.0715623
0.0576228
0.0429084
0.0279044
0.0132729
-0.000222349
-0.0118094
-0.0208888
-0.0271424
-0.0305935
-0.0315236
-0.0303378
-0.0275486
-0.0236624
-0.0191006
-0.0141926
-0.00920297
-0.00435933
0.000140411
0.00420246
0.00767562
0.0109518
0.0129704
0.137109
0.13143
0.123962
0.116247
0.107911
0.0982157
0.0869437
0.0742543
0.0603998
0.0456995
0.0306376
0.0158777
0.00219202
-0.00960699
-0.0188924
-0.0253166
-0.0289053
-0.0299126
-0.0287215
-0.025849
-0.0218312
-0.0171206
-0.0120773
-0.00699531
-0.00213314
0.0022905
0.00617752
0.0094065
0.0124223
0.0142255
0.138516
0.133031
0.125751
0.118205
0.110028
0.100502
0.0893949
0.0768297
0.0630356
0.0483238
0.0331824
0.0182764
0.00437919
-0.00764104
-0.0171339
-0.0237111
-0.0273982
-0.0284536
-0.0272354
-0.0242669
-0.0201132
-0.0152552
-0.0100818
-0.00492061
-6.78575e-05
0.00423705
0.00789896
0.0108479
0.0135865
0.0151727
0.139894
0.134612
0.127531
0.120146
0.112103
0.102729
0.0917745
0.0793133
0.0655489
0.0507831
0.0355158
0.020428
0.00628539
-0.00598943
-0.015701
-0.022476
-0.0263146
-0.0273794
-0.0260701
-0.0229396
-0.0185923
-0.0135476
-0.00822692
-0.00298735
0.00182921
0.00596377
0.0093352
0.0119667
0.0144517
0.0158911
0.14123
0.136173
0.129315
0.122081
0.114143
0.104904
0.0941013
0.081754
0.068034
0.0532229
0.0378208
0.0225095
0.0081489
-0.00438499
-0.0142777
-0.0210533
-0.0250551
-0.0261983
-0.0248314
-0.0215723
-0.0170649
-0.0118618
-0.00643382
-0.00116131
0.00356692
0.00746433
0.0104615
0.0126905
0.0148574
0.0162571
0.142489
0.137703
0.131112
0.124025
0.116161
0.106996
0.0962673
0.0839508
0.070188
0.0552761
0.039684
0.0240939
0.0094467
-0.0034342
-0.0136774
-0.0208019
-0.0246392
-0.0256563
-0.0241102
-0.0206148
-0.0158586
-0.0104173
-0.00478621
0.000561907
0.00520279
0.00882662
0.0114086
0.0132202
0.0149531
0.0160489
0.143658
0.139163
0.132939
0.12606
0.118376
0.1094
0.0988427
0.0866258
0.0728671
0.0578725
0.0421076
0.0262952
0.0113714
-0.00176627
-0.0120833
-0.0193657
-0.0236463
-0.024748
-0.0230855
-0.0194082
-0.0144592
-0.00883478
-0.00304714
0.00233624
0.00683438
0.01006
0.0121066
0.0136177
0.0152958
0.0162829
0.14471
0.140512
0.134451
0.127544
0.119797
0.110845
0.100313
0.0880646
0.0741877
0.0589857
0.0429613
0.0268393
0.0115934
-0.00188408
-0.0123418
-0.0194966
-0.0236392
-0.0245946
-0.022686
-0.018736
-0.0135345
-0.00769977
-0.00178661
0.00359141
0.00790651
0.0106047
0.0118373
0.0126215
0.0139798
0.0155309
0.145817
0.14241
0.137108
0.130592
0.123073
0.11433
0.10401
0.0919048
0.0780261
0.0626437
0.0462741
0.0296565
0.0138117
-0.000227639
-0.0113069
-0.01894
-0.0232707
-0.0241163
-0.0219447
-0.0176024
-0.0119594
-0.00572177
0.000477597
0.00592303
0.00989946
0.0118922
0.0125349
0.0131905
0.0144119
0.0154373
0.035585
0.028169
0.0153377
0.00327758
0.0125966
0.0428906
0.0678168
0.0848876
0.098271
0.10868
0.116868
0.123499
0.129049
0.133841
0.138066
0.141857
0.145309
0.148477
0.151391
0.154072
0.156533
0.158786
0.160865
0.162763
0.164593
0.166262
0.16807
0.169602
0.171831
0.171319
0.0343077
0.0224209
0.00320224
-0.0116525
-0.00519486
0.0258859
0.0574791
0.0788376
0.094463
0.106011
0.114978
0.12209
0.12794
0.132937
0.137296
0.141165
0.144672
0.147898
0.150884
0.153662
0.156236
0.158604
0.160783
0.162743
0.164543
0.166095
0.167592
0.168679
0.170034
0.170566
0.035991
0.0207495
-0.0041641
-0.0240379
-0.023489
0.00575205
0.0421936
0.0702849
0.0889605
0.10225
0.112542
0.12038
0.126584
0.131796
0.136289
0.140246
0.143822
0.147108
0.15015
0.153023
0.155722
0.158248
0.160603
0.162762
0.164737
0.166489
0.168097
0.169466
0.170795
0.17198
0.0397779
0.0238323
-0.00445988
-0.0303016
-0.0373426
-0.0144839
0.0253875
0.0605845
0.0837379
0.0995463
0.111403
0.120153
0.126738
0.132047
0.136515
0.140434
0.143981
0.147197
0.150229
0.153151
0.155909
0.158549
0.16106
0.163428
0.165648
0.167696
0.169581
0.171274
0.172785
0.174071
0.043718
0.0297962
0.00185095
-0.0285299
-0.0410471
-0.0284771
0.00786182
0.047501
0.0776257
0.0977661
0.111279
0.120878
0.127904
0.133338
0.137702
0.141397
0.144678
0.147721
0.15065
0.153433
0.156156
0.158833
0.16141
0.163901
0.166289
0.16855
0.170667
0.172614
0.174389
0.175924
0.0449132
0.0344691
0.0117869
-0.0178453
-0.0356057
-0.0311844
-0.00382642
0.0346048
0.0692988
0.0945674
0.11172
0.122763
0.130169
0.135605
0.139816
0.143243
0.146186
0.148847
0.151373
0.153848
0.156371
0.158922
0.161473
0.164016
0.166526
0.168975
0.171338
0.173582
0.175709
0.177626
0.0400311
0.0347925
0.0188437
-0.00328342
-0.0222957
-0.0241696
-0.00572278
0.0270121
0.0616938
0.0905444
0.111496
0.125603
0.134581
0.140178
0.143838
0.146629
0.148975
0.151106
0.153114
0.155079
0.157102
0.159267
0.161571
0.16399
0.166492
0.169047
0.171612
0.174134
0.176621
0.178933
0.0276262
0.0286259
0.0191001
0.00536585
-0.00762688
-0.0118693
-0.000736615
0.0245827
0.0568495
0.0871442
0.111666
0.128788
0.139789
0.146754
0.150816
0.152907
0.153999
0.154941
0.155971
0.157253
0.158668
0.160323
0.162152
0.164165
0.166397
0.168834
0.171412
0.174085
0.176846
0.179508
0.00744336
0.0153176
0.0109398
0.0036904
-0.00311842
-0.00356937
0.00511258
0.0238832
0.05146
0.0813398
0.108347
0.1298
0.144875
0.154083
0.159098
0.161665
0.162711
0.162663
0.161882
0.161091
0.160912
0.161528
0.162651
0.164125
0.165969
0.168142
0.170474
0.173094
0.176024
0.178992
-0.0208939
-0.00504189
-0.00537246
-0.00785165
-0.0102101
-0.00798972
0.00118302
0.0183867
0.0419681
0.0695584
0.0969694
0.121361
0.141316
0.156038
0.165336
0.170055
0.171689
0.171774
0.171073
0.169791
0.168187
0.166375
0.164742
0.16408
0.165162
0.166757
0.168284
0.170515
0.173431
0.176454
-0.0544208
-0.0304149
-0.0281818
-0.027169
-0.0268139
-0.0231502
-0.0142313
0.000911954
0.0224378
0.0483129
0.0758373
0.101934
0.124656
0.143229
0.157739
0.168226
0.174503
0.177124
0.177113
0.175663
0.173929
0.172092
0.170047
0.16859
0.167388
0.165655
0.164775
0.166018
0.168313
0.17033
-0.0889122
-0.0589981
-0.0555389
-0.0518995
-0.0499829
-0.045636
-0.037297
-0.0240049
-0.0056928
0.0171071
0.0427983
0.069359
0.0947115
0.117208
0.135851
0.150485
0.16144
0.169023
0.1733
0.174852
0.174561
0.172916
0.170424
0.168169
0.166475
0.164642
0.16315
0.162807
0.162376
0.1617
-0.122953
-0.0885049
-0.0851712
-0.0794077
-0.0769198
-0.0726746
-0.0653339
-0.0538619
-0.0381378
-0.0184399
0.00442478
0.029146
0.0541701
0.0779816
0.0993809
0.117655
0.132598
0.144447
0.153429
0.159724
0.163483
0.165018
0.164726
0.163144
0.160852
0.158238
0.155724
0.153987
0.152856
0.152268
-0.153253
-0.116731
-0.114324
-0.106915
-0.104613
-0.101043
-0.095156
-0.0857828
-0.0727777
-0.0562359
-0.036443
-0.0141843
0.00940988
0.0329775
0.0552166
0.0751478
0.0922529
0.106421
0.117775
0.126585
0.133217
0.138046
0.141353
0.14332
0.144034
0.143527