/*--------------------------------*- C++ -*----------------------------------*\
  =========                 |
  \\      /  F ield         | OpenFOAM: The Open Source CFD Toolbox
   \\    /   O peration     | Website:  https://openfoam.org
    \\  /    A nd           | Version:  11
     \\/     M anipulation  |
\*---------------------------------------------------------------------------*/
FoamFile
{
    format      ascii;
    class       surfaceScalarField;
    location    "7";
    object      phi;
}
// * * * * * * * * * * * * * * * * * * * * * * * * * * * * * * * * * * * * * //

dimensions      [0 3 -1 0 0 0 0];

internalField   nonuniform List<scalar> 
24840
(
1.57973e-05
1.36454e-08
1.57788e-05
1.85357e-08
1.57615e-05
1.72925e-08
1.57443e-05
1.7172e-08
1.57268e-05
1.74925e-08
1.57092e-05
1.75907e-08
1.56917e-05
1.75322e-08
1.56743e-05
1.74135e-08
1.56571e-05
1.72372e-08
1.56401e-05
1.69925e-08
1.56234e-05
1.66767e-08
1.56071e-05
1.62829e-08
1.55913e-05
1.57995e-08
1.55761e-05
1.52109e-08
1.55616e-05
1.44923e-08
1.5548e-05
1.3602e-08
1.55355e-05
1.25029e-08
1.55243e-05
1.11837e-08
1.55148e-05
9.55354e-09
1.55073e-05
7.47579e-09
1.55024e-05
4.93162e-09
1.55005e-05
1.83997e-09
1.55025e-05
-1.99153e-09
1.55092e-05
-6.73756e-09
1.55219e-05
-1.26745e-08
1.55419e-05
-2.00136e-08
1.55715e-05
-2.95742e-08
1.56137e-05
-4.22387e-08
1.5677e-05
-6.32267e-08
-1.37578e-07
1.58145e-05
1.5817e-05
7.59197e-09
1.58208e-05
1.47854e-08
1.58235e-05
1.46106e-08
1.58257e-05
1.49264e-08
1.58278e-05
1.54114e-08
1.58298e-05
1.5575e-08
1.58319e-05
1.54699e-08
1.5834e-05
1.52472e-08
1.58364e-05
1.49028e-08
1.58389e-05
1.44246e-08
1.58418e-05
1.381e-08
1.5845e-05
1.30439e-08
1.58487e-05
1.21046e-08
1.5853e-05
1.09638e-08
1.58579e-05
9.57911e-09
1.58636e-05
7.86255e-09
1.58704e-05
5.74021e-09
1.58784e-05
3.19728e-09
1.58879e-05
7.70397e-11
1.58992e-05
-3.88832e-09
1.59129e-05
-8.72038e-09
1.59293e-05
-1.46155e-08
1.59492e-05
-2.18762e-08
1.59733e-05
-3.08326e-08
1.60025e-05
-4.18529e-08
1.60381e-05
-5.56356e-08
1.60809e-05
-7.23787e-08
1.6135e-05
-9.63277e-08
1.61921e-05
-1.20285e-07
-1.56052e-07
1.62105e-05
1.58137e-05
4.90463e-09
1.58171e-05
1.13571e-08
1.58193e-05
1.24246e-08
1.58215e-05
1.26825e-08
1.58237e-05
1.31791e-08
1.58258e-05
1.34919e-08
1.58279e-05
1.33815e-08
1.58301e-05
1.30806e-08
1.58324e-05
1.25838e-08
1.58349e-05
1.18812e-08
1.58378e-05
1.09702e-08
1.5841e-05
9.82788e-09
1.58447e-05
8.4348e-09
1.58489e-05
6.76144e-09
1.58537e-05
4.77224e-09
1.58592e-05
2.31881e-09
1.58657e-05
-7.38092e-10
1.58733e-05
-4.35644e-09
1.58822e-05
-8.89627e-09
1.58929e-05
-1.45621e-08
1.59057e-05
-2.15254e-08
1.59212e-05
-3.0069e-08
1.59399e-05
-4.0576e-08
1.59625e-05
-5.35071e-08
1.59901e-05
-6.93988e-08
1.60235e-05
-8.90695e-08
1.60643e-05
-1.13185e-07
1.61115e-05
-1.43505e-07
1.61705e-05
-1.79332e-07
-2.11161e-07
1.62257e-05
1.58125e-05
3.33145e-09
1.58154e-05
8.52436e-09
1.58175e-05
1.02851e-08
1.58195e-05
1.0706e-08
1.58215e-05
1.11263e-08
1.58236e-05
1.14612e-08
1.58256e-05
1.13596e-08
1.58277e-05
1.09761e-08
1.583e-05
1.03221e-08
1.58324e-05
9.39698e-09
1.58352e-05
8.20076e-09
1.58383e-05
6.69506e-09
1.58419e-05
4.86271e-09
1.5846e-05
2.66244e-09
1.58507e-05
1.06694e-10
1.58561e-05
-3.07742e-09
1.58623e-05
-6.97779e-09
1.58697e-05
-1.17063e-08
1.58784e-05
-1.75899e-08
1.58887e-05
-2.49018e-08
1.59011e-05
-3.39198e-08
1.5916e-05
-4.50107e-08
1.59341e-05
-5.86381e-08
1.5956e-05
-7.53807e-08
1.59825e-05
-9.59372e-08
1.60147e-05
-1.21226e-07
1.60537e-05
-1.52205e-07
1.61001e-05
-1.89871e-07
1.6157e-05
-2.36276e-07
-2.7738e-07
1.62232e-05
1.58119e-05
2.35025e-09
1.58141e-05
6.39313e-09
1.5816e-05
8.31822e-09
1.58179e-05
8.89379e-09
1.58197e-05
9.24135e-09
1.58217e-05
9.49289e-09
1.58237e-05
9.38709e-09
1.58257e-05
8.91848e-09
1.5828e-05
8.11334e-09
1.58304e-05
6.97424e-09
1.58331e-05
5.49789e-09
1.58361e-05
3.6522e-09
1.58396e-05
1.41681e-09
1.58435e-05
-1.28804e-09
1.5848e-05
-4.41942e-09
1.58532e-05
-8.2772e-09
1.58593e-05
-1.29944e-08
1.58663e-05
-1.87761e-08
1.58747e-05
-2.59409e-08
1.58846e-05
-3.48223e-08
1.58965e-05
-4.57855e-08
1.59107e-05
-5.92814e-08
1.5928e-05
-7.5865e-08
1.59488e-05
-9.62263e-08
1.59741e-05
-1.21212e-07
1.60047e-05
-1.51858e-07
1.60419e-05
-1.89396e-07
1.60868e-05
-2.34717e-07
1.61414e-05
-2.90957e-07
-3.45504e-07
1.62096e-05
1.58116e-05
1.6915e-09
1.58133e-05
4.76406e-09
1.5815e-05
6.53318e-09
1.58168e-05
7.17988e-09
1.58185e-05
7.46563e-09
1.58204e-05
7.6211e-09
1.58223e-05
7.46989e-09
1.58243e-05
6.91777e-09
1.58265e-05
5.96944e-09
1.58288e-05
4.62672e-09
1.58314e-05
2.87669e-09
1.58344e-05
7.06209e-10
1.58377e-05
-1.90446e-09
1.58415e-05
-5.05199e-09
1.58458e-05
-8.75054e-09
1.58508e-05
-1.32442e-08
1.58565e-05
-1.87349e-08
1.58632e-05
-2.54872e-08
1.58711e-05
-3.38448e-08
1.58805e-05
-4.41987e-08
1.58917e-05
-5.69888e-08
1.59052e-05
-7.27406e-08
1.59214e-05
-9.20946e-08
1.5941e-05
-1.15845e-07
1.59648e-05
-1.44978e-07
1.59936e-05
-1.80681e-07
1.60286e-05
-2.24434e-07
1.60713e-05
-2.77354e-07
1.61234e-05
-3.43099e-07
-4.11885e-07
1.61898e-05
1.58114e-05
1.21165e-09
1.58127e-05
3.48362e-09
1.58143e-05
4.95581e-09
1.58159e-05
5.57941e-09
1.58176e-05
5.80637e-09
1.58193e-05
5.86136e-09
1.58212e-05
5.63201e-09
1.58231e-05
4.98989e-09
1.58252e-05
3.90341e-09
1.58274e-05
2.36741e-09
1.58299e-05
3.6862e-10
1.58327e-05
-2.10805e-09
1.58359e-05
-5.08035e-09
1.58395e-05
-8.63408e-09
1.58436e-05
-1.28464e-08
1.58483e-05
-1.79307e-08
1.58537e-05
-2.41403e-08
1.586e-05
-3.17862e-08
1.58674e-05
-4.12482e-08
1.58762e-05
-5.29643e-08
1.58866e-05
-6.74362e-08
1.58991e-05
-8.52592e-08
1.59142e-05
-1.07157e-07
1.59324e-05
-1.34026e-07
1.59544e-05
-1.66985e-07
1.59811e-05
-2.07386e-07
1.60136e-05
-2.5695e-07
1.60534e-05
-3.17187e-07
1.61023e-05
-3.91976e-07
-4.74703e-07
1.61651e-05
1.58113e-05
8.39733e-10
1.58124e-05
2.4496e-09
1.58138e-05
3.57453e-09
1.58152e-05
4.09491e-09
1.58168e-05
4.24687e-09
1.58185e-05
4.19828e-09
1.58202e-05
3.87331e-09
1.58221e-05
3.13442e-09
1.58241e-05
1.91588e-09
1.58262e-05
1.98842e-10
1.58286e-05
-2.02853e-09
1.58313e-05
-4.78146e-09
1.58343e-05
-8.08389e-09
1.58377e-05
-1.20116e-08
1.58415e-05
-1.66818e-08
1.58459e-05
-2.23064e-08
1.58509e-05
-2.917e-08
1.58568e-05
-3.76218e-08
1.58636e-05
-4.80791e-08
1.58717e-05
-6.1025e-08
1.58812e-05
-7.70153e-08
1.58927e-05
-9.67079e-08
1.59064e-05
-1.20902e-07
1.5923e-05
-1.50587e-07
1.5943e-05
-1.87006e-07
1.59673e-05
-2.31682e-07
1.59969e-05
-2.86564e-07
1.60333e-05
-3.53614e-07
1.60782e-05
-4.36825e-07
-5.32778e-07
1.61363e-05
1.58113e-05
5.38389e-10
1.58121e-05
1.5912e-09
1.58133e-05
2.36124e-09
1.58147e-05
2.72365e-09
1.58162e-05
2.77943e-09
1.58177e-05
2.62696e-09
1.58194e-05
2.20036e-09
1.58212e-05
1.36095e-09
1.58231e-05
1.79132e-11
1.58252e-05
-1.86354e-09
1.58274e-05
-4.29734e-09
1.58299e-05
-7.29712e-09
1.58327e-05
-1.08922e-08
1.58359e-05
-1.51577e-08
1.58394e-05
-2.02311e-08
1.58435e-05
-2.63356e-08
1.58481e-05
-3.37791e-08
1.58534e-05
-4.29432e-08
1.58596e-05
-5.42802e-08
1.58669e-05
-6.8312e-08
1.58755e-05
-8.56409e-08
1.58858e-05
-1.06979e-07
1.58981e-05
-1.33191e-07
1.59128e-05
-1.65352e-07
1.59307e-05
-2.0482e-07
1.59523e-05
-2.53278e-07
1.59786e-05
-3.12895e-07
1.60111e-05
-3.86082e-07
1.60511e-05
-4.76897e-07
-5.85064e-07
1.61034e-05
1.58112e-05
2.84976e-10
1.5812e-05
8.60038e-10
1.5813e-05
1.28734e-09
1.58143e-05
1.4602e-09
1.58157e-05
1.40047e-09
1.58172e-05
1.14283e-09
1.58187e-05
6.13504e-10
1.58204e-05
-3.26832e-10
1.58222e-05
-1.78628e-09
1.58242e-05
-3.81469e-09
1.58263e-05
-6.4301e-09
1.58287e-05
-9.64603e-09
1.58313e-05
-1.34944e-08
1.58342e-05
-1.8054e-08
1.58374e-05
-2.34741e-08
1.58411e-05
-2.99919e-08
1.58452e-05
-3.79347e-08
1.585e-05
-4.77102e-08
1.58555e-05
-5.98003e-08
1.5862e-05
-7.47606e-08
1.58695e-05
-9.32323e-08
1.58785e-05
-1.15972e-07
1.58893e-05
-1.43903e-07
1.59021e-05
-1.78171e-07
1.59175e-05
-2.20233e-07
1.59361e-05
-2.71918e-07
1.59588e-05
-3.3559e-07
1.59868e-05
-4.14079e-07
1.60214e-05
-5.1149e-07
-6.30548e-07
1.60669e-05
1.58112e-05
6.47104e-11
1.58118e-05
2.22531e-10
1.58128e-05
3.27521e-10
1.58139e-05
2.96207e-10
1.58152e-05
1.06144e-10
1.58166e-05
-2.58788e-10
1.58181e-05
-8.88987e-10
1.58197e-05
-1.927e-09
1.58215e-05
-3.49264e-09
1.58233e-05
-5.6487e-09
1.58253e-05
-8.41864e-09
1.58274e-05
-1.18168e-08
1.58298e-05
-1.58768e-08
1.58325e-05
-2.06816e-08
1.58354e-05
-2.63895e-08
1.58386e-05
-3.32495e-08
1.58423e-05
-4.1605e-08
1.58465e-05
-5.18846e-08
1.58513e-05
-6.45942e-08
1.58568e-05
-8.03164e-08
1.58633e-05
-9.97231e-08
1.58709e-05
-1.23607e-07
1.588e-05
-1.52935e-07
1.58907e-05
-1.88911e-07
1.59036e-05
-2.33074e-07
1.5919e-05
-2.87373e-07
1.59378e-05
-3.54334e-07
1.59608e-05
-4.3715e-07
1.59893e-05
-5.39956e-07
-6.68232e-07
1.6027e-05
1.58112e-05
-1.31149e-10
1.58117e-05
-3.44195e-10
1.58126e-05
-5.40701e-10
1.58137e-05
-7.80002e-10
1.58149e-05
-1.10894e-09
1.58162e-05
-1.58227e-09
1.58176e-05
-2.30962e-09
1.58191e-05
-3.43883e-09
1.58208e-05
-5.09811e-09
1.58225e-05
-7.36088e-09
1.58243e-05
-1.02565e-08
1.58263e-05
-1.38009e-08
1.58284e-05
-1.80292e-08
1.58308e-05
-2.30278e-08
1.58334e-05
-2.89616e-08
1.58362e-05
-3.60893e-08
1.58394e-05
-4.47667e-08
1.58429e-05
-5.5438e-08
1.58469e-05
-6.86269e-08
1.58516e-05
-8.49361e-08
1.58569e-05
-1.0506e-07
1.58631e-05
-1.29817e-07
1.58704e-05
-1.60204e-07
1.58789e-05
-1.9747e-07
1.58891e-05
-2.43208e-07
1.59012e-05
-2.99459e-07
1.59157e-05
-3.68868e-07
1.59335e-05
-4.54914e-07
1.59552e-05
-5.61739e-07
-6.97206e-07
1.59842e-05
1.58111e-05
-3.07313e-10
1.58117e-05
-8.57064e-10
1.58125e-05
-1.3362e-09
1.58135e-05
-1.78144e-09
1.58146e-05
-2.25213e-09
1.58158e-05
-2.83277e-09
1.58172e-05
-3.65161e-09
1.58186e-05
-4.86307e-09
1.58201e-05
-6.60119e-09
1.58217e-05
-8.94788e-09
1.58234e-05
-1.19387e-08
1.58252e-05
-1.55918e-08
1.58271e-05
-1.99435e-08
1.58291e-05
-2.50824e-08
1.58314e-05
-3.11782e-08
1.58338e-05
-3.84965e-08
1.58364e-05
-4.74015e-08
1.58393e-05
-5.83478e-08
1.58426e-05
-7.1871e-08
1.58462e-05
-8.85865e-08
1.58503e-05
-1.09202e-07
1.58551e-05
-1.34551e-07
1.58605e-05
-1.6565e-07
1.58668e-05
-2.03769e-07
1.58742e-05
-2.50534e-07
1.58827e-05
-3.08038e-07
1.58929e-05
-3.78997e-07
1.5905e-05
-4.67081e-07
1.59197e-05
-5.76393e-07
-7.1669e-07
1.59392e-05
1.58111e-05
-4.68458e-10
1.58116e-05
-1.32886e-09
1.58123e-05
-2.07395e-09
1.58133e-05
-2.72009e-09
1.58144e-05
-3.332e-09
1.58155e-05
-4.01641e-09
1.58168e-05
-4.91895e-09
1.58181e-05
-6.20107e-09
1.58195e-05
-8.00119e-09
1.5821e-05
-1.04079e-08
1.58225e-05
-1.34624e-08
1.58241e-05
-1.71856e-08
1.58258e-05
-2.16143e-08
1.58275e-05
-2.68386e-08
1.58294e-05
-3.30309e-08
1.58314e-05
-4.04607e-08
1.58335e-05
-4.94969e-08
1.58357e-05
-6.05991e-08
1.58382e-05
-7.43086e-08
1.58408e-05
-9.1246e-08
1.58437e-05
-1.12124e-07
1.5847e-05
-1.37781e-07
1.58505e-05
-1.69235e-07
1.58545e-05
-2.07762e-07
1.5859e-05
-2.54992e-07
1.5864e-05
-3.13031e-07
1.58696e-05
-3.84606e-07
1.5876e-05
-4.73468e-07
1.58832e-05
-5.83627e-07
-7.2612e-07
1.58927e-05
1.58111e-05
-6.18719e-10
1.58116e-05
-1.77091e-09
1.58123e-05
-2.76825e-09
1.58131e-05
-3.60787e-09
1.58142e-05
-4.35683e-09
1.58153e-05
-5.13916e-09
1.58165e-05
-6.11587e-09
1.58177e-05
-7.45515e-09
1.5819e-05
-9.299e-09
1.58204e-05
-1.1741e-08
1.58217e-05
-1.48273e-08
1.58231e-05
-1.85808e-08
1.58246e-05
-2.3039e-08
1.5826e-05
-2.82927e-08
1.58275e-05
-3.45149e-08
1.5829e-05
-4.19763e-08
1.58306e-05
-5.10461e-08
1.58321e-05
-6.2184e-08
1.58338e-05
-7.59306e-08
1.58354e-05
-9.29046e-08
1.58371e-05
-1.13815e-07
1.58388e-05
-1.39493e-07
1.58405e-05
-1.70946e-07
1.58422e-05
-2.09435e-07
1.58438e-05
-2.56566e-07
1.58452e-05
-3.14414e-07
1.58462e-05
-3.85658e-07
1.58468e-05
-4.74013e-07
1.58465e-05
-5.83324e-07
-7.25208e-07
1.58455e-05
1.58111e-05
-7.62065e-10
1.58115e-05
-2.19377e-09
1.58122e-05
-3.43288e-09
1.5813e-05
-4.45709e-09
1.5814e-05
-5.33501e-09
1.58151e-05
-6.20659e-09
1.58162e-05
-7.2469e-09
1.58174e-05
-8.62942e-09
1.58186e-05
-1.0498e-08
1.58198e-05
-1.29497e-08
1.5821e-05
-1.60346e-08
1.58222e-05
-1.97779e-08
1.58234e-05
-2.42175e-08
1.58245e-05
-2.94438e-08
1.58257e-05
-3.56292e-08
1.58267e-05
-4.30421e-08
1.58277e-05
-5.20482e-08
1.58286e-05
-6.31021e-08
1.58294e-05
-7.67377e-08
1.58301e-05
-9.35644e-08
1.58306e-05
-1.14279e-07
1.58308e-05
-1.39694e-07
1.58306e-05
-1.70794e-07
1.583e-05
-2.08804e-07
1.58287e-05
-2.55279e-07
1.58265e-05
-3.12223e-07
1.58231e-05
-3.82206e-07
1.58178e-05
-4.68789e-07
1.58101e-05
-5.75569e-07
-7.14e-07
1.57989e-05
1.58111e-05
-9.02505e-10
1.58115e-05
-2.60836e-09
1.58122e-05
-4.08193e-09
1.5813e-05
-5.28026e-09
1.58139e-05
-6.27547e-09
1.5815e-05
-7.22543e-09
1.5816e-05
-8.31809e-09
1.58171e-05
-9.7292e-09
1.58182e-05
-1.16022e-08
1.58193e-05
-1.40368e-08
1.58204e-05
-1.70867e-08
1.58214e-05
-2.0779e-08
1.58223e-05
-2.51519e-08
1.58232e-05
-3.02946e-08
1.58239e-05
-3.63768e-08
1.58245e-05
-4.36621e-08
1.5825e-05
-5.25086e-08
1.58252e-05
-6.33608e-08
1.58252e-05
-7.67397e-08
1.58249e-05
-9.32385e-08
1.58242e-05
-1.13533e-07
1.58229e-05
-1.38409e-07
1.58209e-05
-1.68813e-07
1.5818e-05
-2.05916e-07
1.58139e-05
-2.512e-07
1.58083e-05
-3.06557e-07
1.58005e-05
-3.74392e-07
1.57897e-05
-4.57999e-07
1.57748e-05
-5.60654e-07
-6.92911e-07
1.57537e-05
1.58111e-05
-1.04444e-09
1.58115e-05
-3.02668e-09
1.58122e-05
-4.73056e-09
1.5813e-05
-6.09073e-09
1.58139e-05
-7.18823e-09
1.58149e-05
-8.20372e-09
1.58159e-05
-9.33639e-09
1.58169e-05
-1.07601e-08
1.58179e-05
-1.2616e-08
1.58189e-05
-1.50061e-08
1.58198e-05
-1.79875e-08
1.58206e-05
-2.15886e-08
1.58213e-05
-2.58473e-08
1.58219e-05
-3.0851e-08
1.58223e-05
-3.67652e-08
1.58224e-05
-4.38455e-08
1.58224e-05
-5.24387e-08
1.5822e-05
-6.29744e-08
1.58212e-05
-7.59549e-08
1.58199e-05
-9.19507e-08
1.5818e-05
-1.11609e-07
1.58153e-05
-1.35679e-07
1.58115e-05
-1.65058e-07
1.58064e-05
-2.00849e-07
1.57997e-05
-2.44435e-07
1.57907e-05
-2.97566e-07
1.57787e-05
-3.62435e-07
1.57627e-05
-4.41974e-07
1.57411e-05
-5.39068e-07
-6.62726e-07
1.57109e-05
1.58111e-05
-1.19314e-09
1.58116e-05
-3.4632e-09
1.58122e-05
-5.39624e-09
1.5813e-05
-6.9028e-09
1.58139e-05
-8.08349e-09
1.58149e-05
-9.14974e-09
1.58158e-05
-1.03091e-08
1.58168e-05
-1.17282e-08
1.58177e-05
-1.35446e-08
1.58186e-05
-1.58628e-08
1.58194e-05
-1.87425e-08
1.582e-05
-2.22129e-08
1.58204e-05
-2.63111e-08
1.58207e-05
-3.11221e-08
1.58208e-05
-3.68053e-08
1.58205e-05
-4.36059e-08
1.58199e-05
-5.18554e-08
1.58189e-05
-6.19641e-08
1.58174e-05
-7.44102e-08
1.58152e-05
-8.97354e-08
1.58121e-05
-1.08551e-07
1.5808e-05
-1.31563e-07
1.58025e-05
-1.59607e-07
1.57954e-05
-1.93706e-07
1.57861e-05
-2.35127e-07
1.5774e-05
-2.85453e-07
1.57582e-05
-3.46626e-07
1.57373e-05
-4.21155e-07
1.57098e-05
-5.11479e-07
-6.24563e-07
1.56716e-05
1.58111e-05
-1.35547e-09
1.58116e-05
-3.93645e-09
1.58123e-05
-6.09953e-09
1.58131e-05
-7.73122e-09
1.5814e-05
-8.97128e-09
1.58149e-05
-1.00723e-08
1.58159e-05
-1.12442e-08
1.58168e-05
-1.26402e-08
1.58176e-05
-1.43939e-08
1.58184e-05
-1.66131e-08
1.5819e-05
-1.9359e-08
1.58195e-05
-2.26604e-08
1.58197e-05
-2.65533e-08
1.58197e-05
-3.11198e-08
1.58194e-05
-3.65118e-08
1.58188e-05
-4.29611e-08
1.58177e-05
-5.07809e-08
1.58161e-05
-6.03574e-08
1.58138e-05
-7.21402e-08
1.58107e-05
-8.66362e-08
1.58066e-05
-1.04416e-07
1.58011e-05
-1.26132e-07
1.57941e-05
-1.52554e-07
1.5785e-05
-1.84614e-07
1.57733e-05
-2.23449e-07
1.57583e-05
-2.70457e-07
1.5739e-05
-3.27314e-07
1.57139e-05
-3.96062e-07
1.56811e-05
-4.78685e-07
-5.79797e-07
1.56364e-05
1.58112e-05
-1.54104e-09
1.58117e-05
-4.47136e-09
1.58125e-05
-6.86504e-09
1.58133e-05
-8.59085e-09
1.58142e-05
-9.8615e-09
1.58151e-05
-1.09813e-08
1.5816e-05
-1.21505e-08
1.58169e-05
-1.35029e-08
1.58177e-05
-1.51705e-08
1.58183e-05
-1.72643e-08
1.58188e-05
-1.98453e-08
1.58191e-05
-2.2941e-08
1.58191e-05
-2.6586e-08
1.58188e-05
-3.08591e-08
1.58182e-05
-3.59031e-08
1.58172e-05
-4.19339e-08
1.58157e-05
-4.92429e-08
1.58135e-05
-5.81888e-08
1.58106e-05
-6.91875e-08
1.58066e-05
-8.27067e-08
1.58015e-05
-9.92697e-08
1.57948e-05
-1.19473e-07
1.57863e-05
-1.44012e-07
1.57754e-05
-1.73719e-07
1.57615e-05
-2.09596e-07
1.57439e-05
-2.52849e-07
1.57215e-05
-3.0488e-07
1.56927e-05
-3.67266e-07
1.56556e-05
-4.41561e-07
-5.29968e-07
1.56057e-05
1.58112e-05
-1.7641e-09
1.58118e-05
-5.103e-09
1.58127e-05
-7.7219e-09
1.58136e-05
-9.49532e-09
1.58145e-05
-1.07639e-08
1.58154e-05
-1.18874e-08
1.58163e-05
-1.30371e-08
1.58171e-05
-1.43237e-08
1.58178e-05
-1.58814e-08
1.58184e-05
-1.78243e-08
1.58187e-05
-2.02106e-08
1.58189e-05
-2.30656e-08
1.58187e-05
-2.64223e-08
1.58182e-05
-3.03561e-08
1.58173e-05
-3.49994e-08
1.58159e-05
-4.05492e-08
1.58139e-05
-4.72726e-08
1.58112e-05
-5.54967e-08
1.58077e-05
-6.56004e-08
1.5803e-05
-7.80072e-08
1.57969e-05
-9.31896e-08
1.57891e-05
-1.11683e-07
1.57792e-05
-1.34105e-07
1.57666e-05
-1.61184e-07
1.57508e-05
-1.93784e-07
1.57309e-05
-2.32917e-07
1.57057e-05
-2.79726e-07
1.56738e-05
-3.35354e-07
1.56333e-05
-4.00993e-07
-4.76558e-07
1.55799e-05
1.58112e-05
-2.04719e-09
1.5812e-05
-5.88223e-09
1.5813e-05
-8.70329e-09
1.5814e-05
-1.04555e-08
1.58149e-05
-1.16882e-08
1.58158e-05
-1.28021e-08
1.58167e-05
-1.39122e-08
1.58175e-05
-1.51094e-08
1.58181e-05
-1.6535e-08
1.58186e-05
-1.83036e-08
1.58189e-05
-2.04672e-08
1.58188e-05
-2.30482e-08
1.58185e-05
-2.60813e-08
1.58178e-05
-2.96339e-08
1.58166e-05
-3.38259e-08
1.58149e-05
-3.88376e-08
1.58125e-05
-4.49068e-08
1.58094e-05
-5.23267e-08
1.58052e-05
-6.14352e-08
1.57998e-05
-7.26075e-08
1.57929e-05
-8.62617e-08
1.57841e-05
-1.0287e-07
1.57729e-05
-1.22969e-07
1.57589e-05
-1.47182e-07
1.57414e-05
-1.76236e-07
1.57194e-05
-2.10957e-07
1.56919e-05
-2.5225e-07
1.56575e-05
-3.00878e-07
1.56143e-05
-3.57803e-07
-4.21061e-07
1.55588e-05
1.58113e-05
-2.42865e-09
1.58123e-05
-6.88305e-09
1.58135e-05
-9.84232e-09
1.58145e-05
-1.14795e-08
1.58155e-05
-1.2648e-08
1.58164e-05
-1.3737e-08
1.58173e-05
-1.47807e-08
1.5818e-05
-1.5863e-08
1.58186e-05
-1.71359e-08
1.5819e-05
-1.87083e-08
1.58192e-05
-2.06232e-08
1.5819e-05
-2.29013e-08
1.58185e-05
-2.55756e-08
1.58176e-05
-2.87091e-08
1.58162e-05
-3.24085e-08
1.58142e-05
-3.68314e-08
1.58115e-05
-4.21859e-08
1.58079e-05
-4.87277e-08
1.58032e-05
-5.67512e-08
1.57972e-05
-6.65801e-08
1.57895e-05
-7.85763e-08
1.57798e-05
-9.31476e-08
1.57675e-05
-1.10748e-07
1.57522e-05
-1.31895e-07
1.57332e-05
-1.57188e-07
1.57095e-05
-1.87268e-07
1.56801e-05
-2.22839e-07
1.56436e-05
-2.64338e-07
1.55984e-05
-3.12695e-07
-3.64583e-07
1.5542e-05
1.58115e-05
-2.98046e-09
1.58128e-05
-8.21135e-09
1.58142e-05
-1.11564e-08
1.58153e-05
-1.25714e-08
1.58163e-05
-1.36661e-08
1.58172e-05
-1.47098e-08
1.58181e-05
-1.56538e-08
1.58189e-05
-1.65976e-08
1.58194e-05
-1.76992e-08
1.58198e-05
-1.90546e-08
1.58198e-05
-2.06962e-08
1.58196e-05
-2.26436e-08
1.58189e-05
-2.49287e-08
1.58178e-05
-2.76086e-08
1.58162e-05
-3.0776e-08
1.58139e-05
-3.45651e-08
1.58109e-05
-3.91515e-08
1.58069e-05
-4.47518e-08
1.58018e-05
-5.16139e-08
1.57952e-05
-6.00056e-08
1.57869e-05
-7.02317e-08
1.57764e-05
-8.26376e-08
1.57632e-05
-9.7592e-08
1.57468e-05
-1.15511e-07
1.57265e-05
-1.36868e-07
1.57014e-05
-1.62135e-07
1.56704e-05
-1.91849e-07
1.56322e-05
-2.26133e-07
1.55857e-05
-2.66179e-07
-3.07871e-07
1.55289e-05
1.58118e-05
-3.84631e-09
1.58136e-05
-1.00254e-08
1.58151e-05
-1.26264e-08
1.58163e-05
-1.37224e-08
1.58173e-05
-1.47485e-08
1.58184e-05
-1.57125e-08
1.58192e-05
-1.65223e-08
1.58199e-05
-1.7312e-08
1.58205e-05
-1.82284e-08
1.58208e-05
-1.93495e-08
1.58208e-05
-2.06962e-08
1.58204e-05
-2.22894e-08
1.58196e-05
-2.41601e-08
1.58184e-05
-2.63584e-08
1.58166e-05
-2.89622e-08
1.58141e-05
-3.20804e-08
1.58108e-05
-3.58537e-08
1.58065e-05
-4.0458e-08
1.5801e-05
-4.60941e-08
1.57939e-05
-5.2969e-08
1.5785e-05
-6.13313e-08
1.57739e-05
-7.14648e-08
1.57599e-05
-8.36556e-08
1.57426e-05
-9.82224e-08
1.57213e-05
-1.15522e-07
1.5695e-05
-1.35855e-07
1.56628e-05
-1.59623e-07
1.56232e-05
-1.86591e-07
1.55757e-05
-2.18605e-07
-2.5051e-07
1.55183e-05
1.58124e-05
-5.29313e-09
1.58149e-05
-1.25306e-08
1.58165e-05
-1.42483e-08
1.58178e-05
-1.50077e-08
1.5819e-05
-1.59379e-08
1.582e-05
-1.6744e-08
1.58209e-05
-1.73837e-08
1.58216e-05
-1.80127e-08
1.58221e-05
-1.87323e-08
1.58224e-05
-1.96036e-08
1.58223e-05
-2.06362e-08
1.58219e-05
-2.18546e-08
1.5821e-05
-2.32876e-08
1.58196e-05
-2.4979e-08
1.58177e-05
-2.69922e-08
1.5815e-05
-2.94092e-08
1.58115e-05
-3.23347e-08
1.58069e-05
-3.5904e-08
1.58011e-05
-4.02669e-08
1.57937e-05
-4.55605e-08
1.57843e-05
-5.19872e-08
1.57726e-05
-5.97683e-08
1.57581e-05
-6.90992e-08
1.57401e-05
-8.02166e-08
1.57179e-05
-9.33766e-08
1.56908e-05
-1.08725e-07
1.56577e-05
-1.26511e-07
1.5617e-05
-1.45948e-07
1.55688e-05
-1.7041e-07
-1.906e-07
1.55089e-05
1.58135e-05
-7.83982e-09
1.58166e-05
-1.56372e-08
1.58183e-05
-1.59026e-08
1.58198e-05
-1.65286e-08
1.58211e-05
-1.72596e-08
1.58222e-05
-1.78141e-08
1.58231e-05
-1.82641e-08
1.58238e-05
-1.87226e-08
1.58243e-05
-1.92328e-08
1.58245e-05
-1.98353e-08
1.58244e-05
-2.05383e-08
1.58239e-05
-2.13657e-08
1.5823e-05
-2.23435e-08
1.58215e-05
-2.3509e-08
1.58194e-05
-2.49121e-08
1.58166e-05
-2.66045e-08
1.58129e-05
-2.86494e-08
1.58082e-05
-3.11451e-08
1.58021e-05
-3.42018e-08
1.57944e-05
-3.78612e-08
1.57847e-05
-4.22876e-08
1.57726e-05
-4.76606e-08
1.57576e-05
-5.40767e-08
1.57391e-05
-6.16912e-08
1.57163e-05
-7.0658e-08
1.56887e-05
-8.10351e-08
1.5655e-05
-9.28764e-08
1.56137e-05
-1.04589e-07
1.55645e-05
-1.21233e-07
-1.22111e-07
1.5496e-05
1.5817e-05
-1.38428e-08
1.58203e-05
-1.897e-08
1.58223e-05
-1.78553e-08
1.58237e-05
-1.79728e-08
1.58249e-05
-1.84388e-08
1.58258e-05
-1.87459e-08
1.58265e-05
-1.89598e-08
1.5827e-05
-1.9181e-08
1.58272e-05
-1.9436e-08
1.58271e-05
-1.97389e-08
1.58266e-05
-2.00951e-08
1.58258e-05
-2.05167e-08
1.58245e-05
-2.10168e-08
1.58226e-05
-2.16147e-08
1.582e-05
-2.23367e-08
1.58166e-05
-2.32074e-08
1.58122e-05
-2.42583e-08
1.58066e-05
-2.5546e-08
1.57995e-05
-2.71331e-08
1.57907e-05
-2.90198e-08
1.57797e-05
-3.13079e-08
1.57661e-05
-3.41012e-08
1.57495e-05
-3.74274e-08
1.57292e-05
-4.1371e-08
1.57045e-05
-4.60129e-08
1.56748e-05
-5.13223e-08
1.56393e-05
-5.7352e-08
1.55965e-05
-6.18113e-08
1.55426e-05
-6.73115e-08
-2.59724e-08
1.54465e-05
1.57971e-05
1.57782e-05
1.57603e-05
1.57423e-05
1.57239e-05
1.57051e-05
1.56862e-05
1.5667e-05
1.56476e-05
1.56278e-05
1.56077e-05
1.55872e-05
1.55662e-05
1.55446e-05
1.55222e-05
1.5499e-05
1.54748e-05
1.54492e-05
1.54221e-05
1.53931e-05
1.53618e-05
1.53277e-05
1.52902e-05
1.52489e-05
1.52029e-05
1.51515e-05
1.50942e-05
1.50324e-05
1.49651e-05
1.49391e-05
1.55291e-05
-9.07154e-06
9.35696e-06
1.51948e-05
-9.15692e-06
9.49123e-06
1.48044e-05
-9.21643e-06
9.60681e-06
1.43691e-05
-9.2503e-06
9.68561e-06
1.3909e-05
-9.27954e-06
9.73968e-06
1.34373e-05
-9.31151e-06
9.78325e-06
1.29602e-05
-9.34703e-06
9.82413e-06
1.24803e-05
-9.38573e-06
9.86557e-06
1.19987e-05
-9.42749e-06
9.90909e-06
1.15155e-05
-9.47225e-06
9.95543e-06
1.10306e-05
-9.52005e-06
1.00049e-05
1.05439e-05
-9.57116e-06
1.00579e-05
1.00552e-05
-9.62612e-06
1.01148e-05
9.56446e-06
-9.68569e-06
1.01764e-05
9.07174e-06
-9.75085e-06
1.02436e-05
8.57693e-06
-9.82284e-06
1.03177e-05
8.07985e-06
-9.90323e-06
1.04003e-05
7.58023e-06
-9.99407e-06
1.04937e-05
7.07765e-06
-1.00981e-05
1.06007e-05
6.57149e-06
-1.02189e-05
1.07251e-05
6.06092e-06
-1.03616e-05
1.08722e-05
5.54418e-06
-1.05334e-05
1.10502e-05
5.02064e-06
-1.07437e-05
1.12672e-05
4.4822e-06
-1.10118e-05
1.15502e-05
3.93691e-06
-1.13455e-05
1.18908e-05
3.3422e-06
-1.18379e-05
1.24326e-05
2.75375e-06
-1.23865e-05
1.2975e-05
2.00158e-06
-1.35849e-05
1.4337e-05
1.23071e-06
-1.44886e-05
1.52594e-05
-1.85679e-05
1.97986e-05
1.58067e-05
-8.6677e-06
1.5354e-05
-8.70426e-06
1.48778e-05
-8.7402e-06
1.43957e-05
-8.76821e-06
1.39144e-05
-8.79824e-06
1.3435e-05
-8.83212e-06
1.29568e-05
-8.86883e-06
1.24786e-05
-8.90751e-06
1.19993e-05
-8.94821e-06
1.15184e-05
-8.99129e-06
1.10354e-05
-9.03714e-06
1.05505e-05
-9.08625e-06
1.00637e-05
-9.13924e-06
9.57481e-06
-9.19684e-06
9.08395e-06
-9.25999e-06
8.59092e-06
-9.32982e-06
8.09552e-06
-9.40783e-06
7.59742e-06
-9.49597e-06
7.09615e-06
-9.59681e-06
6.59104e-06
-9.71381e-06
6.08111e-06
-9.85168e-06
5.56478e-06
-1.00171e-05
5.04034e-06
-1.02192e-05
4.50226e-06
-1.04737e-05
3.95173e-06
-1.0795e-05
3.36005e-06
-1.12462e-05
2.75794e-06
-1.17844e-05
2.01294e-06
-1.28399e-05
1.23487e-06
-1.37105e-05
-1.73331e-05
1.57704e-05
-8.2124e-06
1.53046e-05
-8.2385e-06
1.48336e-05
-8.26922e-06
1.43643e-05
-8.29887e-06
1.3895e-05
-8.32893e-06
1.34243e-05
-8.36142e-06
1.29514e-05
-8.39593e-06
1.2476e-05
-8.43218e-06
1.19984e-05
-8.47055e-06
1.15186e-05
-8.51152e-06
1.10369e-05
-8.55546e-06
1.05534e-05
-8.60275e-06
1.00681e-05
-8.65391e-06
9.58086e-06
-8.70962e-06
9.09159e-06
-8.77072e-06
8.60011e-06
-8.83834e-06
8.10616e-06
-8.91388e-06
7.60937e-06
-8.99919e-06
7.10924e-06
-9.09668e-06
6.60504e-06
-9.20961e-06
6.0957e-06
-9.34235e-06
5.57966e-06
-9.50105e-06
5.05474e-06
-9.69431e-06
4.51659e-06
-9.93556e-06
3.96259e-06
-1.0241e-05
3.37268e-06
-1.06563e-05
2.76035e-06
-1.11721e-05
2.02082e-06
-1.21003e-05
1.23329e-06
-1.2923e-05
-1.60998e-05
1.57627e-05
-7.75185e-06
1.52995e-05
-7.77532e-06
1.48323e-05
-7.80198e-06
1.43631e-05
-7.82967e-06
1.38924e-05
-7.85831e-06
1.34199e-05
-7.8889e-06
1.29456e-05
-7.92161e-06
1.24698e-05
-7.95635e-06
1.19925e-05
-7.99331e-06
1.15138e-05
-8.0328e-06
1.10335e-05
-8.07514e-06
1.05515e-05
-8.12072e-06
1.00676e-05
-8.17006e-06
9.5818e-06
-8.22381e-06
9.0939e-06
-8.28282e-06
8.60369e-06
-8.34813e-06
8.1109e-06
-8.42109e-06
7.61513e-06
-8.50342e-06
7.11583e-06
-8.59738e-06
6.6122e-06
-8.70597e-06
6.10312e-06
-8.83327e-06
5.58696e-06
-8.98489e-06
5.06135e-06
-9.1687e-06
4.52234e-06
-9.39655e-06
3.96544e-06
-9.68409e-06
3.37557e-06
-1.00664e-05
2.75474e-06
-1.05513e-05
2.01983e-06
-1.13654e-05
1.22604e-06
-1.21292e-05
-1.48737e-05
1.57464e-05
-7.28871e-06
1.52815e-05
-7.3104e-06
1.4814e-05
-7.33445e-06
1.43449e-05
-7.36059e-06
1.38749e-05
-7.38832e-06
1.34037e-05
-7.41773e-06
1.29312e-05
-7.44904e-06
1.24571e-05
-7.48229e-06
1.19815e-05
-7.51768e-06
1.15042e-05
-7.5555e-06
1.10251e-05
-7.5961e-06
1.05443e-05
-7.63989e-06
1.00616e-05
-7.68735e-06
9.57691e-06
-7.73913e-06
9.09009e-06
-7.796e-06
8.60091e-06
-7.85895e-06
8.10903e-06
-7.92921e-06
7.61401e-06
-8.0084e-06
7.11526e-06
-8.09863e-06
6.61194e-06
-8.20265e-06
6.10286e-06
-8.32419e-06
5.58634e-06
-8.46837e-06
5.05989e-06
-8.64225e-06
4.51967e-06
-8.85633e-06
3.96037e-06
-9.12479e-06
3.36957e-06
-9.47564e-06
2.74227e-06
-9.92398e-06
2.01102e-06
-1.06342e-05
1.21189e-06
-1.133e-05
-1.36619e-05
1.5726e-05
-6.82489e-06
1.52609e-05
-6.84535e-06
1.47942e-05
-6.86777e-06
1.43263e-05
-6.89261e-06
1.38571e-05
-6.91921e-06
1.33867e-05
-6.94732e-06
1.29148e-05
-6.97711e-06
1.24413e-05
-7.00883e-06
1.19663e-05
-7.04268e-06
1.14898e-05
-7.07893e-06
1.10116e-05
-7.11791e-06
1.05317e-05
-7.15997e-06
1.00499e-05
-7.20561e-06
9.56618e-06
-7.25539e-06
9.08024e-06
-7.31006e-06
8.59183e-06
-7.37054e-06
8.1006e-06
-7.43798e-06
7.60608e-06
-7.51388e-06
7.10762e-06
-7.60017e-06
6.60435e-06
-7.69938e-06
6.09503e-06
-7.81487e-06
5.57791e-06
-7.95125e-06
5.05045e-06
-8.1148e-06
4.5088e-06
-8.31469e-06
3.94735e-06
-8.56334e-06
3.35509e-06
-8.88337e-06
2.72292e-06
-9.29181e-06
1.99496e-06
-9.90622e-06
1.19251e-06
-1.05276e-05
-1.24693e-05
1.57012e-05
-6.36099e-06
1.52363e-05
-6.3804e-06
1.477e-05
-6.40151e-06
1.43025e-05
-6.42511e-06
1.38338e-05
-6.45053e-06
1.33639e-05
-6.47736e-06
1.28925e-05
-6.50579e-06
1.24198e-05
-6.53609e-06
1.19456e-05
-6.56849e-06
1.14699e-05
-6.60322e-06
1.09926e-05
-6.64055e-06
1.05135e-05
-6.68088e-06
1.00325e-05
-6.72462e-06
9.54944e-06
-6.77236e-06
9.06412e-06
-6.82475e-06
8.57625e-06
-6.88266e-06
8.08543e-06
-6.94716e-06
7.59116e-06
-7.01961e-06
7.09276e-06
-7.10177e-06
6.58931e-06
-7.19593e-06
6.07953e-06
-7.3051e-06
5.56164e-06
-7.43335e-06
5.03305e-06
-7.58621e-06
4.48991e-06
-7.77154e-06
3.92651e-06
-7.99994e-06
3.33262e-06
-8.28949e-06
2.697e-06
-8.65619e-06
1.97258e-06
-9.1818e-06
1.16864e-06
-9.72365e-06
-1.13007e-05
1.56724e-05
-5.89708e-06
1.52075e-05
-5.91557e-06
1.47416e-05
-5.93557e-06
1.42745e-05
-5.95802e-06
1.38063e-05
-5.98228e-06
1.33368e-05
-6.00789e-06
1.2866e-05
-6.03499e-06
1.23938e-05
-6.06391e-06
1.19202e-05
-6.09487e-06
1.1445e-05
-6.12806e-06
1.09682e-05
-6.16376e-06
1.04897e-05
-6.20233e-06
1.00092e-05
-6.24417e-06
9.52668e-06
-6.2898e-06
9.04178e-06
-6.33985e-06
8.55422e-06
-6.3951e-06
8.06359e-06
-6.45653e-06
7.56936e-06
-6.52538e-06
7.07081e-06
-6.60322e-06
6.56699e-06
-6.69211e-06
6.0566e-06
-6.79471e-06
5.53781e-06
-6.91456e-06
5.00802e-06
-7.05642e-06
4.46338e-06
-7.2269e-06
3.89824e-06
-7.43479e-06
3.30287e-06
-7.69412e-06
2.66503e-06
-8.01835e-06
1.94451e-06
-8.46128e-06
1.14117e-06
-8.92032e-06
-1.01595e-05
1.56395e-05
-5.43319e-06
1.51748e-05
-5.45085e-06
1.47091e-05
-5.46985e-06
1.42423e-05
-5.4912e-06
1.37743e-05
-5.51432e-06
1.33051e-05
-5.53872e-06
1.28347e-05
-5.56455e-06
1.23629e-05
-5.59212e-06
1.18897e-05
-5.62165e-06
1.14149e-05
-5.65332e-06
1.09386e-05
-5.68738e-06
1.04604e-05
-5.72417e-06
9.98029e-06
-5.76406e-06
9.49803e-06
-5.80754e-06
9.01335e-06
-5.85517e-06
8.52591e-06
-5.90766e-06
8.03528e-06
-5.9659e-06
7.5409e-06
-6.031e-06
7.04203e-06
-6.10436e-06
6.5377e-06
-6.18778e-06
6.02658e-06
-6.28358e-06
5.50682e-06
-6.3948e-06
4.97582e-06
-6.52543e-06
4.42979e-06
-6.68086e-06
3.86315e-06
-6.86815e-06
3.26661e-06
-7.09758e-06
2.62771e-06
-7.37945e-06
1.91158e-06
-7.74515e-06
1.11112e-06
-8.11985e-06
-9.04842e-06
1.56029e-05
-4.96924e-06
1.51382e-05
-4.98614e-06
1.46726e-05
-5.00424e-06
1.42059e-05
-5.02453e-06
1.37381e-05
-5.04652e-06
1.32692e-05
-5.06975e-06
1.2799e-05
-5.09434e-06
1.23274e-05
-5.12058e-06
1.18545e-05
-5.14868e-06
1.138e-05
-5.17883e-06
1.09038e-05
-5.21124e-06
1.04259e-05
-5.24623e-06
9.94595e-06
-5.28413e-06
9.46381e-06
-5.32539e-06
8.97916e-06
-5.37052e-06
8.49167e-06
-5.42016e-06
8.00087e-06
-5.4751e-06
7.5062e-06
-5.53632e-06
7.00689e-06
-5.60505e-06
6.50194e-06
-5.68284e-06
5.99002e-06
-5.77166e-06
5.46928e-06
-5.87406e-06
4.93715e-06
-5.9933e-06
4.38988e-06
-6.13359e-06