/*--------------------------------*- C++ -*----------------------------------*\
  =========                 |
  \\      /  F ield         | OpenFOAM: The Open Source CFD Toolbox
   \\    /   O peration     | Website:  https://openfoam.org
    \\  /    A nd           | Version:  11
     \\/     M anipulation  |
\*---------------------------------------------------------------------------*/
FoamFile
{
    format      ascii;
    class       surfaceScalarField;
    location    "7";
    object      phi;
}
// * * * * * * * * * * * * * * * * * * * * * * * * * * * * * * * * * * * * * //

dimensions      [0 3 -1 0 0 0 0];

internalField   nonuniform List<scalar> 
24840
(
1.92407e-05
7.45077e-09
1.92291e-05
1.16244e-08
1.92175e-05
1.15863e-08
1.92058e-05
1.16858e-08
1.9194e-05
1.18213e-08
1.91823e-05
1.16869e-08
1.91712e-05
1.11082e-08
1.91611e-05
1.00554e-08
1.91525e-05
8.58343e-09
1.91458e-05
6.69538e-09
1.91415e-05
4.37321e-09
1.91399e-05
1.52496e-09
1.9142e-05
-2.07393e-09
1.91483e-05
-6.27908e-09
1.91593e-05
-1.10214e-08
1.91758e-05
-1.64397e-08
1.91983e-05
-2.25926e-08
1.92278e-05
-2.94465e-08
1.92655e-05
-3.77097e-08
1.93134e-05
-4.78728e-08
1.93732e-05
-5.98356e-08
1.94471e-05
-7.38816e-08
1.95376e-05
-9.04998e-08
1.96478e-05
-1.10168e-07
1.97811e-05
-1.33388e-07
1.99415e-05
-1.60383e-07
2.01338e-05
-1.92271e-07
2.03594e-05
-2.25591e-07
2.06352e-05
-2.75794e-07
-2.74144e-07
2.09093e-05
1.92521e-05
3.46778e-09
1.92551e-05
8.66612e-09
1.92571e-05
9.55599e-09
1.92585e-05
1.03373e-08
1.92596e-05
1.06314e-08
1.92608e-05
1.04803e-08
1.92623e-05
9.68023e-09
1.92642e-05
8.09026e-09
1.92671e-05
5.7344e-09
1.92712e-05
2.58484e-09
1.92771e-05
-1.47431e-09
1.92851e-05
-6.50115e-09
1.92956e-05
-1.26361e-08
1.93093e-05
-1.99436e-08
1.93269e-05
-2.85946e-08
1.93493e-05
-3.89088e-08
1.93782e-05
-5.13995e-08
1.94151e-05
-6.64197e-08
1.94608e-05
-8.3421e-08
1.95153e-05
-1.02305e-07
1.95796e-05
-1.24196e-07
1.96559e-05
-1.50123e-07
1.97463e-05
-1.80893e-07
1.98535e-05
-2.1739e-07
1.99807e-05
-2.60639e-07
2.01318e-05
-3.11487e-07
2.03112e-05
-3.71598e-07
2.05234e-05
-4.37844e-07
2.07743e-05
-5.26635e-07
-5.58912e-07
2.1059e-05
1.92494e-05
2.20139e-09
1.92518e-05
6.28223e-09
1.92532e-05
8.12776e-09
1.92544e-05
9.17722e-09
1.92554e-05
9.56601e-09
1.92565e-05
9.44599e-09
1.92576e-05
8.56162e-09
1.92592e-05
6.5225e-09
1.92616e-05
3.27873e-09
1.92654e-05
-1.20081e-09
1.9271e-05
-7.09302e-09
1.9279e-05
-1.44908e-08
1.92899e-05
-2.35597e-08
1.93044e-05
-3.44384e-08
1.93231e-05
-4.73077e-08
1.93467e-05
-6.24564e-08
1.93756e-05
-8.03089e-08
1.94104e-05
-1.01237e-07
1.94523e-05
-1.25298e-07
1.95028e-05
-1.52786e-07
1.95633e-05
-1.84717e-07
1.96355e-05
-2.2234e-07
1.97215e-05
-2.66916e-07
1.9824e-05
-3.19846e-07
1.99461e-05
-3.82759e-07
2.00917e-05
-4.57097e-07
2.02655e-05
-5.4536e-07
2.04722e-05
-6.44522e-07
2.07182e-05
-7.72713e-07
-8.52532e-07
2.10119e-05
1.92488e-05
1.52362e-09
1.92504e-05
4.6514e-09
1.92517e-05
6.8573e-09
1.92527e-05
8.21743e-09
1.92535e-05
8.7542e-09
1.92543e-05
8.63808e-09
1.92553e-05
7.6001e-09
1.92567e-05
5.10099e-09
1.92589e-05
1.10049e-09
1.92624e-05
-4.75487e-09
1.92677e-05
-1.24011e-08
1.92753e-05
-2.20826e-08
1.92857e-05
-3.39451e-08
1.92994e-05
-4.81576e-08
1.9317e-05
-6.49356e-08
1.93392e-05
-8.45853e-08
1.93664e-05
-1.07508e-07
1.93993e-05
-1.34125e-07
1.94388e-05
-1.64827e-07
1.94862e-05
-2.00245e-07
1.9543e-05
-2.41511e-07
1.96108e-05
-2.90094e-07
1.96916e-05
-3.47678e-07
1.97879e-05
-4.16203e-07
1.99031e-05
-4.97939e-07
2.0041e-05
-5.95056e-07
2.02066e-05
-7.10887e-07
2.04055e-05
-8.43481e-07
2.06437e-05
-1.01087e-06
-1.14364e-06
2.09348e-05
1.92485e-05
1.12317e-09
1.92495e-05
3.66927e-09
1.92505e-05
5.89473e-09
1.92513e-05
7.42383e-09
1.92519e-05
8.1559e-09
1.92525e-05
8.0223e-09
1.92533e-05
6.7633e-09
1.92546e-05
3.80477e-09
1.92567e-05
-1.02856e-09
1.926e-05
-8.0273e-09
1.92649e-05
-1.73129e-08
1.92719e-05
-2.90909e-08
1.92815e-05
-4.3528e-08
1.92942e-05
-6.08103e-08
1.93104e-05
-8.11742e-08
1.93308e-05
-1.04936e-07
1.93558e-05
-1.32512e-07
1.9386e-05
-1.64402e-07
1.94224e-05
-2.01217e-07
1.9466e-05
-2.43834e-07
1.95181e-05
-2.93563e-07
1.95801e-05
-3.5213e-07
1.96541e-05
-4.21632e-07
1.97424e-05
-5.0456e-07
1.98483e-05
-6.03863e-07
1.99759e-05
-7.22572e-07
2.01299e-05
-8.64937e-07
2.03171e-05
-1.03064e-06
2.05432e-05
-1.23701e-06
-1.42467e-06
2.08242e-05
1.92484e-05
8.80317e-10
1.9249e-05
3.01945e-09
1.92498e-05
5.16493e-09
1.92504e-05
6.81358e-09
1.92509e-05
7.64649e-09
1.92514e-05
7.47098e-09
1.92521e-05
6.05586e-09
1.92532e-05
2.70813e-09
1.92551e-05
-2.87776e-09
1.9258e-05
-1.09585e-08
1.92624e-05
-2.1744e-08
1.92688e-05
-3.54278e-08
1.92774e-05
-5.21911e-08
1.92889e-05
-7.2232e-08
1.93035e-05
-9.57999e-08
1.93218e-05
-1.23226e-07
1.93442e-05
-1.54949e-07
1.93714e-05
-1.91541e-07
1.94039e-05
-2.33762e-07
1.94427e-05
-2.82679e-07
1.9489e-05
-3.398e-07
1.9544e-05
-4.07119e-07
1.96095e-05
-4.87139e-07
1.96878e-05
-5.82904e-07
1.9782e-05
-6.98078e-07
1.98961e-05
-8.3665e-07
2.00351e-05
-1.00392e-06
2.02061e-05
-1.20159e-06
2.04153e-05
-1.4463e-06
-1.6907e-06
2.06814e-05
1.92483e-05
7.15425e-10
1.92487e-05
2.57242e-09
1.92493e-05
4.64442e-09
1.92497e-05
6.36419e-09
1.92501e-05
7.23998e-09
1.92505e-05
7.04642e-09
1.92511e-05
5.5151e-09
1.9252e-05
1.7844e-09
1.92536e-05
-4.4649e-09
1.92562e-05
-1.35222e-08
1.926e-05
-2.56297e-08
1.92656e-05
-4.0991e-08
1.92732e-05
-5.97937e-08
1.92832e-05
-8.22413e-08
1.9296e-05
-1.08588e-07
1.9312e-05
-1.39172e-07
1.93315e-05
-1.74452e-07
1.9355e-05
-2.15055e-07
1.93831e-05
-2.61844e-07
1.94164e-05
-3.16034e-07
1.94559e-05
-3.79313e-07
1.95027e-05
-4.53929e-07
1.95584e-05
-5.42764e-07
1.96249e-05
-6.49398e-07
1.9705e-05
-7.78229e-07
1.98026e-05
-9.34273e-07
1.99227e-05
-1.12402e-06
2.00727e-05
-1.35155e-06
2.02594e-05
-1.63303e-06
-1.93533e-06
2.0504e-05
1.92483e-05
5.96253e-10
1.92486e-05
2.25871e-09
1.92489e-05
4.28137e-09
1.92492e-05
6.04707e-09
1.92496e-05
6.9176e-09
1.92499e-05
6.70915e-09
1.92503e-05
5.11282e-09
1.9251e-05
1.05287e-09
1.92523e-05
-5.77311e-09
1.92545e-05
-1.56767e-08
1.92578e-05
-2.89185e-08
1.92625e-05
-4.57102e-08
1.9269e-05
-6.6241e-08
1.92774e-05
-9.07124e-08
1.92882e-05
-1.19374e-07
1.93016e-05
-1.52563e-07
1.93179e-05
-1.90744e-07
1.93374e-05
-2.34574e-07
1.93606e-05
-2.84981e-07
1.93878e-05
-3.43282e-07
1.94198e-05
-4.1131e-07
1.94574e-05
-4.91531e-07
1.95018e-05
-5.87163e-07
1.95547e-05
-7.02285e-07
1.96185e-05
-8.42006e-07
1.96966e-05
-1.01239e-06
1.97938e-05
-1.22123e-06
1.99175e-05
-1.47526e-06
2.00749e-05
-1.79047e-06
-2.15025e-06
2.02899e-05
1.92482e-05
5.07609e-10
1.92484e-05
2.03427e-09
1.92487e-05
4.02734e-09
1.92489e-05
5.82466e-09
1.92492e-05
6.66974e-09
1.92494e-05
6.46517e-09
1.92497e-05
4.83998e-09
1.92502e-05
5.08856e-10
1.92513e-05
-6.80044e-09
1.9253e-05
-1.74033e-08
1.92556e-05
-3.1575e-08
1.92595e-05
-4.95322e-08
1.92647e-05
-7.146e-08
1.92715e-05
-9.75489e-08
1.92802e-05
-1.28033e-07
1.92908e-05
-1.63233e-07
1.93037e-05
-2.03605e-07
1.93189e-05
-2.49806e-07
1.93368e-05
-3.02793e-07
1.93574e-05
-3.63937e-07
1.93813e-05
-4.35166e-07
1.94088e-05
-5.19106e-07
1.94409e-05
-6.1924e-07
1.94787e-05
-7.40067e-07
1.9524e-05
-8.87334e-07
1.95798e-05
-1.06811e-06
1.965e-05
-1.29151e-06
1.97419e-05
-1.56713e-06
1.98625e-05
-1.91102e-06
-2.32506e-06
2.00373e-05
1.92482e-05
4.40188e-10
1.92484e-05
1.86946e-09
1.92485e-05
3.84652e-09
1.92487e-05
5.6679e-09
1.92489e-05
6.48787e-09
1.9249e-05
6.3005e-09
1.92492e-05
4.67338e-09
1.92496e-05
1.35031e-10
1.92503e-05
-7.55131e-09
1.92516e-05
-1.86966e-08
1.92536e-05
-3.35858e-08
1.92565e-05
-5.24344e-08
1.92605e-05
-7.54157e-08
1.92657e-05
-1.027e-07
1.92721e-05
-1.34494e-07
1.928e-05
-1.71088e-07
1.92893e-05
-2.12906e-07
1.93e-05
-2.6058e-07
1.93123e-05
-3.15052e-07
1.93261e-05
-3.77695e-07
1.93414e-05
-4.50467e-07
1.93583e-05
-5.36076e-07
1.93773e-05
-6.38171e-07
1.93987e-05
-7.61549e-07
1.94239e-05
-9.12467e-07
1.94546e-05
-1.09886e-06
1.94942e-05
-1.33106e-06
1.95485e-05
-1.62148e-06
1.9624e-05
-1.98646e-06
-2.44748e-06
1.97464e-05
1.92482e-05
3.87524e-10
1.92483e-05
1.74395e-09
1.92484e-05
3.71099e-09
1.92486e-05
5.55005e-09
1.92487e-05
6.35866e-09
1.92488e-05
6.19765e-09
1.92489e-05
4.58919e-09
1.92491e-05
-8.95032e-11
1.92496e-05
-8.04061e-09
1.92505e-05
-1.95669e-08
1.92518e-05
-3.49564e-08
1.92538e-05
-5.44171e-08
1.92565e-05
-7.81024e-08
1.926e-05
-1.06152e-07
1.92642e-05
-1.38736e-07
1.92692e-05
-1.76097e-07
1.92749e-05
-2.18605e-07
1.92812e-05
-2.66836e-07
1.92878e-05
-3.21671e-07
1.92945e-05
-3.8443e-07
1.93011e-05
-4.57027e-07
1.93072e-05
-5.42154e-07
1.93125e-05
-6.43495e-07
1.93169e-05
-7.65982e-07
1.93206e-05
-9.16172e-07
1.93244e-05
-1.10261e-06
1.93299e-05
-1.33659e-06
1.93414e-05
-1.63302e-06
1.93636e-05
-2.00859e-06
-2.50398e-06
1.94201e-05
1.92482e-05
3.45287e-10
1.92483e-05
1.64324e-09
1.92484e-05
3.59752e-09
1.92485e-05
5.4428e-09
1.92486e-05
6.26411e-09
1.92487e-05
6.13617e-09
1.92487e-05
4.56298e-09
1.92488e-05
-1.89569e-10
1.9249e-05
-8.29245e-09
1.92495e-05
-2.00379e-08
1.92503e-05
-3.57111e-08
1.92513e-05
-5.55056e-08
1.92528e-05
-7.95477e-08
1.92546e-05
-1.07939e-07
1.92566e-05
-1.40798e-07
1.92588e-05
-1.78305e-07
1.9261e-05
-2.20755e-07
1.92628e-05
-2.68635e-07
1.92638e-05
-3.22724e-07
1.92636e-05
-3.84226e-07
1.92615e-05
-4.54928e-07
1.92568e-05
-5.37391e-07
1.92485e-05
-6.35183e-07
1.92357e-05
-7.53161e-07
1.92174e-05
-8.97902e-07
1.9193e-05
-1.07818e-06
1.91622e-05
-1.30581e-06
1.91267e-05
-1.59753e-06
1.90882e-05
-1.9701e-06
-2.4811e-06
1.90653e-05
1.92482e-05
3.09598e-10
1.92483e-05
1.55503e-09
1.92484e-05
3.48752e-09
1.92485e-05
5.32575e-09
1.92486e-05
6.18312e-09
1.92486e-05
6.09201e-09
1.92486e-05
4.5646e-09
1.92486e-05
-1.96759e-10
1.92487e-05
-8.33918e-09
1.92488e-05
-2.01455e-08
1.92489e-05
-3.58912e-08
1.92492e-05
-5.57484e-08
1.92495e-05
-7.98096e-08
1.92496e-05
-1.0813e-07
1.92496e-05
-1.40767e-07
1.92491e-05
-1.77824e-07
1.92479e-05
-2.19501e-07
1.92454e-05
-2.66164e-07
1.92411e-05
-3.18446e-07
1.92343e-05
-3.77376e-07
1.92239e-05
-4.44526e-07
1.92087e-05
-5.22206e-07
1.91872e-05
-6.13695e-07
1.91576e-05
-7.23531e-07
1.91176e-05
-8.5797e-07
1.9065e-05
-1.02554e-06
1.89971e-05
-1.23792e-06
1.89122e-05
-1.51258e-06
1.88079e-05
-1.86586e-06
-2.3674e-06
1.86942e-05
1.92482e-05
2.76779e-10
1.92483e-05
1.46882e-09
1.92484e-05
3.36467e-09
1.92485e-05
5.18258e-09
1.92486e-05
6.09033e-09
1.92487e-05
6.03853e-09
1.92487e-05
4.56198e-09
1.92486e-05
-1.46043e-10
1.92485e-05
-8.22038e-09
1.92483e-05
-1.99363e-08
1.9248e-05
-3.55526e-08
1.92474e-05
-5.52142e-08
1.92466e-05
-7.8974e-08
1.92453e-05
-1.06834e-07
1.92433e-05
-1.38784e-07
1.92403e-05
-1.74836e-07
1.92359e-05
-2.15076e-07
1.92295e-05
-2.59724e-07
1.92202e-05
-3.09229e-07
1.92072e-05
-3.64383e-07
1.91892e-05
-4.26462e-07
1.91644e-05
-4.97401e-07
1.91307e-05
-5.80012e-07
1.90854e-05
-6.78256e-07
1.90251e-05
-7.97686e-07
1.89456e-05
-9.46021e-07
1.88417e-05
-1.13399e-06
1.87075e-05
-1.37842e-06
1.85359e-05
-1.69427e-06
-2.15611e-06
1.83246e-05
1.92482e-05
2.4366e-10
1.92483e-05
1.37479e-09
1.92484e-05
3.21462e-09
1.92486e-05
4.99572e-09
1.92487e-05
5.9598e-09
1.92488e-05
5.94834e-09
1.92489e-05
4.5231e-09
1.92488e-05
-7.52697e-11
1.92485e-05
-7.98168e-09
1.92481e-05
-1.94655e-08
1.92473e-05
-3.47641e-08
1.92461e-05
-5.39895e-08
1.92442e-05
-7.71515e-08
1.92416e-05
-1.04195e-07
1.92379e-05
-1.35033e-07
1.92326e-05
-1.69581e-07
1.92253e-05
-2.07795e-07
1.92153e-05
-2.49728e-07
1.92017e-05
-2.95611e-07
1.91833e-05
-3.45948e-07
1.91584e-05
-4.01646e-07
1.91252e-05
-4.64152e-07
1.90808e-05
-5.35642e-07
1.90218e-05
-6.19245e-07
1.89436e-05
-7.19429e-07
1.88401e-05
-8.42512e-07
1.87035e-05
-9.97398e-07
1.85237e-05
-1.19867e-06
1.82881e-05
-1.45864e-06
-1.84794e-06
1.79799e-05
1.92482e-05
2.07149e-10
1.92483e-05
1.26351e-09
1.92485e-05
3.02364e-09
1.92487e-05
4.7481e-09
1.92489e-05
5.76758e-09
1.92491e-05
5.79383e-09
1.92492e-05
4.41272e-09
1.92491e-05
-2.44805e-11
1.92488e-05
-7.67189e-09
1.92481e-05
-1.87951e-08
1.9247e-05
-3.36041e-08
1.92452e-05
-5.21751e-08
1.92425e-05
-7.44718e-08
1.92387e-05
-1.0038e-07
1.92334e-05
-1.29735e-07
1.92261e-05
-1.62348e-07
1.92164e-05
-1.98039e-07
1.92033e-05
-2.36678e-07
1.9186e-05
-2.78252e-07
1.9163e-05
-3.22944e-07
1.91326e-05
-3.71228e-07
1.90924e-05
-4.23973e-07
1.90393e-05
-4.82575e-07
1.89692e-05
-5.49113e-07
1.88764e-05
-6.26624e-07
1.87533e-05
-7.19483e-07
1.85899e-05
-8.33928e-07
1.83719e-05
-9.80678e-07
1.80814e-05
-1.1681e-06
-1.45338e-06
1.76868e-05
1.92482e-05
1.64338e-10
1.92483e-05
1.12544e-09
1.92486e-05
2.77831e-09
1.92489e-05
4.42612e-09
1.92492e-05
5.48326e-09
1.92494e-05
5.54829e-09
1.92496e-05
4.19897e-09
1.92496e-05
-3.06267e-11
1.92493e-05
-7.34152e-09
1.92485e-05
-1.7991e-08
1.92471e-05
-3.21577e-08
1.92448e-05
-4.98811e-08
1.92414e-05
-7.10793e-08
1.92366e-05
-9.55792e-08
1.923e-05
-1.23139e-07
1.92211e-05
-1.53467e-07
1.92093e-05
-1.86242e-07
1.91938e-05
-2.21146e-07
1.91734e-05
-2.57912e-07
1.91469e-05
-2.96379e-07
1.91122e-05
-3.3655e-07
1.90669e-05
-3.78653e-07
1.90075e-05
-4.23205e-07
1.89294e-05
-4.71076e-07
1.88264e-05
-5.2361e-07
1.86898e-05
-5.82816e-07
1.85074e-05
-6.516e-07
1.82622e-05
-7.35466e-07
1.79318e-05
-8.3768e-07
-9.93536e-07
1.7472e-05
1.92482e-05
1.11847e-10
1.92484e-05
9.51429e-10
1.92487e-05
2.46677e-09
1.92491e-05
4.01758e-09
1.92495e-05
5.07857e-09
1.92498e-05
5.18344e-09
1.92502e-05
3.85103e-09
1.92503e-05
-1.32701e-10
1.925e-05
-7.04171e-09
1.92491e-05
-1.71196e-08
1.92475e-05
-3.05124e-08
1.92448e-05
-4.7223e-08
1.92409e-05
-6.71261e-08
1.92353e-05
-8.99935e-08
1.92277e-05
-1.15511e-07
1.92175e-05
-1.43287e-07
1.92041e-05
-1.72867e-07
1.91867e-05
-2.03748e-07
1.91642e-05
-2.35411e-07
1.91352e-05
-2.67346e-07
1.90977e-05
-2.99075e-07
1.90492e-05
-3.30164e-07
1.89862e-05
-3.60203e-07
1.89039e-05
-3.88773e-07
1.87957e-05
-4.1539e-07
1.86523e-05
-4.39463e-07
1.84609e-05
-4.60188e-07
1.82024e-05
-4.76994e-07
1.78521e-05
-4.8737e-07
-4.99023e-07
1.73576e-05
1.92482e-05
4.49032e-11
1.92484e-05
7.34158e-10
1.92488e-05
2.07775e-09
1.92493e-05
3.50623e-09
1.92499e-05
4.53502e-09
1.92504e-05
4.66624e-09
1.92509e-05
3.34666e-09
1.92511e-05
-3.69105e-10
1.92509e-05
-6.82545e-09
1.925e-05
-1.62485e-08
1.92483e-05
-2.87551e-08
1.92454e-05
-4.43152e-08
1.9241e-05
-6.27646e-08
1.92348e-05
-8.38258e-08
1.92264e-05
-1.07119e-07
1.92153e-05
-1.32166e-07
1.92008e-05
-1.58389e-07
1.91822e-05
-1.85116e-07
1.91584e-05
-2.11589e-07
1.9128e-05
-2.3697e-07
1.90893e-05
-2.60318e-07
1.90396e-05
-2.80553e-07
1.89758e-05
-2.96359e-07
1.88931e-05
-3.06039e-07
1.8785e-05
-3.07295e-07
1.86424e-05
-2.96925e-07
1.84527e-05
-2.7042e-07
1.81966e-05
-2.20927e-07
1.78494e-05
-1.40202e-07
-6.68943e-09
1.73571e-05
1.92482e-05
-4.42392e-11
1.92485e-05
4.68398e-10
1.9249e-05
1.59939e-09
1.92496e-05
2.8733e-09
1.92503e-05
3.82982e-09
1.9251e-05
3.95978e-09
1.92517e-05
2.66964e-09
1.92521e-05
-7.67693e-10
1.9252e-05
-6.73233e-09
1.92512e-05
-1.54362e-08
1.92494e-05
-2.69684e-08
1.92463e-05
-4.12703e-08
1.92417e-05
-5.81451e-08
1.92352e-05
-7.72756e-08
1.92263e-05
-9.82294e-08
1.92146e-05
-1.20455e-07
1.91995e-05
-1.43271e-07
1.91802e-05
-1.65863e-07
1.91559e-05
-1.87265e-07
1.91253e-05
-2.06345e-07
1.90867e-05
-2.21752e-07
1.9038e-05
-2.31819e-07
1.8976e-05
-2.34405e-07
1.88966e-05
-2.26649e-07
1.87939e-05
-2.04587e-07
1.86596e-05
-1.62642e-07
1.84822e-05
-9.30306e-08
1.82443e-05
1.70558e-08
1.79236e-05
1.80478e-07
4.45241e-07
1.74716e-05
1.92482e-05
-1.60696e-10
1.92486e-05
1.41621e-10
1.92492e-05
1.01699e-09
1.92499e-05
2.09906e-09
1.92508e-05
2.94575e-09
1.92517e-05
3.04239e-09
1.92526e-05
1.80223e-09
1.92532e-05
-1.35408e-09
1.92533e-05
-6.80067e-09
1.92526e-05
-1.4737e-08
1.92508e-05
-2.52276e-08
1.92477e-05
-3.81907e-08
1.9243e-05
-5.34058e-08
1.92362e-05
-7.05271e-08
1.92271e-05
-8.90853e-08
1.92151e-05
-1.08476e-07
1.91998e-05
-1.27942e-07
1.91805e-05
-1.46557e-07
1.91564e-05
-1.63192e-07
1.91266e-05
-1.7648e-07
1.90895e-05
-1.8473e-07
1.90435e-05
-1.85793e-07
1.89859e-05
-1.76845e-07
1.89134e-05
-1.54058e-07
1.88208e-05
-1.12081e-07
1.87015e-05
-4.33195e-08
1.85466e-05
6.19424e-08
1.83407e-05
2.22935e-07
1.80669e-05
4.54282e-07
8.23574e-07
1.76885e-05
1.92483e-05
-2.99302e-10
1.92487e-05
-2.73514e-10
1.92494e-05
3.10547e-10
1.92503e-05
1.16519e-09
1.92514e-05
1.86838e-09
1.92525e-05
1.90267e-09
1.92536e-05
7.2495e-10
1.92544e-05
-2.14926e-09
1.92547e-05
-7.06236e-09
1.92541e-05
-1.41968e-08
1.92525e-05
-2.35971e-08
1.92495e-05
-3.51653e-08
1.92447e-05
-4.86674e-08
1.9238e-05
-6.37428e-08
1.92288e-05
-7.99026e-08
1.92168e-05
-9.65144e-08
1.92017e-05
-1.12777e-07
1.91828e-05
-1.27691e-07
1.91596e-05
-1.40023e-07
1.91314e-05
-1.48238e-07
1.9097e-05
-1.50405e-07
1.90553e-05
-1.44028e-07
1.90042e-05
-1.25785e-07
1.89413e-05
-9.11521e-08
1.88631e-05
-3.38468e-08
1.8765e-05
5.47563e-08
1.86391e-05
1.87849e-07
1.84771e-05
3.84907e-07
1.82664e-05
6.64965e-07
1.10419e-06
1.79858e-05
1.92483e-05
-4.64616e-10
1.92488e-05
-8.00577e-10
1.92497e-05
-5.52545e-10
1.92508e-05
5.27747e-11
1.92521e-05
5.87689e-10
1.92534e-05
5.38804e-10
1.92547e-05
-5.77011e-10
1.92558e-05
-3.17072e-09
1.92562e-05
-7.54136e-09
1.92559e-05
-1.38515e-08
1.92544e-05
-2.21289e-08
1.92515e-05
-3.22678e-08
1.92469e-05
-4.40318e-08
1.92402e-05
-5.7059e-08
1.92312e-05
-7.08614e-08
1.92195e-05
-8.48058e-08
1.92048e-05
-9.80809e-08
1.91867e-05
-1.09664e-07
1.9165e-05
-1.18273e-07
1.91391e-05
-1.22294e-07
1.91083e-05
-1.19667e-07
1.9072e-05
-1.07704e-07
1.9029e-05
-8.28081e-08
1.89779e-05
-4.00761e-08
1.8917e-05
2.71298e-08
1.88431e-05
1.28654e-07
1.87528e-05
2.78087e-07
1.86418e-05
4.95888e-07
1.85044e-05
8.02433e-07
1.27319e-06
1.83354e-05
1.92483e-05
-6.71669e-10
1.9249e-05
-1.47577e-09
1.92501e-05
-1.60804e-09
1.92514e-05
-1.25495e-09
1.92529e-05
-9.0056e-10
1.92545e-05
-1.05033e-09
1.9256e-05
-2.11201e-09
1.92572e-05
-4.42707e-09
1.9258e-05
-8.25259e-09
1.92578e-05
-1.37248e-08
1.92566e-05
-2.08576e-08
1.92538e-05
-2.95488e-08
1.92494e-05
-3.95715e-08
1.92429e-05
-5.0575e-08
1.92341e-05
-6.20933e-08
1.92228e-05
-7.35213e-08
1.92088e-05
-8.40749e-08
1.91919e-05
-9.27558e-08
1.9172e-05
-9.83012e-08
1.91488e-05
-9.91049e-08
1.91222e-05
-9.3098e-08
1.90921e-05
-7.75688e-08
1.90581e-05
-4.88836e-08
1.90202e-05
-2.17281e-09
1.89779e-05
6.94944e-08
1.89307e-05
1.75833e-07
1.88785e-05
3.30238e-07
1.88219e-05
5.52522e-07
1.87612e-05
8.63122e-07
1.32813e-06
1.87063e-05
1.92484e-05
-9.57002e-10
1.92493e-05
-2.36805e-09
1.92506e-05
-2.8896e-09
1.92521e-05
-2.76027e-09
1.92538e-05
-2.60357e-09
1.92556e-05
-2.87616e-09
1.92574e-05
-3.88664e-09
1.92589e-05
-5.92229e-09
1.92598e-05
-9.20432e-09
1.926e-05
-1.38339e-08
1.92589e-05
-1.98111e-08
1.92564e-05
-2.70504e-08
1.92522e-05
-3.53454e-08
1.9246e-05
-4.43653e-08
1.92376e-05
-5.36891e-08
1.92268e-05
-6.27715e-08
1.92136e-05
-7.08909e-08
1.9198e-05
-7.71229e-08
1.918e-05
-8.02899e-08
1.91598e-05
-7.88811e-08
1.91376e-05
-7.09384e-08
1.91139e-05
-5.38907e-08
1.90894e-05
-2.4311e-08
1.90649e-05
2.22956e-08
1.90415e-05
9.2862e-08
1.90213e-05
1.961e-07
1.90071e-05
3.44399e-07
1.90039e-05
5.55737e-07
1.90175e-05
8.49495e-07
1.27595e-06
1.90697e-05
1.92486e-05
-1.39039e-09
1.92498e-05
-3.61381e-09
1.92514e-05
-4.42857e-09
1.9253e-05
-4.44436e-09
1.92549e-05
-4.50093e-09
1.9257e-05
-4.91665e-09
1.9259e-05
-5.88466e-09
1.92607e-05
-7.65109e-09
1.92619e-05
-1.03962e-08
1.92622e-05
-1.41771e-08
1.92614e-05
-1.89835e-08
1.92591e-05
-2.4774e-08
1.92552e-05
-3.13712e-08
1.92493e-05
-3.84587e-08
1.92412e-05
-4.56856e-08
1.92311e-05
-5.26006e-08
1.92188e-05
-5.85749e-08
1.92044e-05
-6.28049e-08
1.91884e-05
-6.42604e-08
1.91711e-05
-6.16065e-08
1.91533e-05
-5.31051e-08
1.91359e-05
-3.64721e-08
1.91203e-05
-8.69846e-09
1.91086e-05
3.39898e-08
1.91032e-05
9.81943e-08
1.91084e-05
1.90945e-07
1.91296e-05
3.23202e-07
1.91754e-05
5.09905e-07
1.92562e-05
7.68754e-07
1.13002e-06
1.94021e-05
1.92488e-05
-2.10706e-09
1.92507e-05
-5.45458e-09
1.92525e-05
-6.26486e-09
1.92544e-05
-6.36199e-09
1.92566e-05
-6.64702e-09
1.92588e-05
-7.17439e-09
1.9261e-05
-8.06674e-09
1.9263e-05
-9.58322e-09
1.92644e-05
-1.18291e-08
1.9265e-05
-1.47721e-08
1.92644e-05
-1.83867e-08
1.92624e-05
-2.2736e-08
1.92587e-05
-2.76711e-08
1.92531e-05
-3.28628e-08
1.92455e-05
-3.80781e-08
1.92358e-05
-4.2991e-08
1.92243e-05
-4.70815e-08
1.92113e-05
-4.97159e-08
1.91971e-05
-5.00688e-08
1.91825e-05
-4.70528e-08
1.91686e-05
-3.92372e-08
1.91569e-05
-2.47588e-08
1.91495e-05
-1.23896e-09
1.91489e-05
3.4516e-08
1.91597e-05
8.74354e-08
1.91872e-05
1.63429e-07
1.92391e-05
2.71278e-07
1.93267e-05
4.22355e-07
1.94641e-05
6.31387e-07
9.0729e-07
1.96868e-05
1.92495e-05
-3.45091e-09
1.9252e-05
-8.01022e-09
1.9254e-05
-8.23759e-09
1.92562e-05
-8.52635e-09
1.92585e-05
-9.01555e-09
1.9261e-05
-9.64407e-09
1.92634e-05
-1.0499e-08
1.92656e-05
-1.17535e-08
1.92672e-05
-1.34202e-08
1.92679e-05
-1.55059e-08
1.92676e-05
-1.80813e-08
1.92659e-05
-2.09968e-08
1.92624e-05
-2.41956e-08
1.92571e-05
-2.75683e-08
1.92499e-05
-3.08801e-08
1.92409e-05
-3.39878e-08
1.92303e-05
-3.64626e-08
1.92185e-05
-3.78858e-08
1.92061e-05
-3.76765e-08
1.91941e-05
-3.50486e-08
1.91838e-05
-2.89488e-08
1.9177e-05
-1.79931e-08
1.91764e-05
-6.21241e-10
1.91857e-05
2.52575e-08
1.92099e-05
6.31884e-08
1.92561e-05
1.1722e-07
1.93331e-05
1.9433e-07
1.9453e-05
3.02384e-07
1.9634e-05
4.50455e-07
6.27748e-07
1.99135e-05
1.92521e-05
-7.39028e-09
1.92553e-05
-1.12563e-08
1.92581e-05
-1.10187e-08
1.92606e-05
-1.09939e-08
1.92628e-05
-1.12282e-08
1.92647e-05
-1.1594e-08
1.92663e-05
-1.20867e-08
1.92674e-05
-1.28046e-08
1.92677e-05
-1.37862e-08
1.92673e-05
-1.50312e-08
1.92657e-05
-1.65323e-08
1.92629e-05
-1.82131e-08
1.92588e-05
-2.00322e-08
1.92531e-05
-2.18799e-08
1.92458e-05
-2.36321e-08
1.92371e-05
-2.52458e-08
1.92271e-05
-2.64507e-08
1.92162e-05
-2.70416e-08
1.92053e-05
-2.6729e-08
1.91954e-05
-2.51316e-08
1.91882e-05
-2.1746e-08
1.9186e-05
-1.58514e-08
1.91918e-05
-6.37609e-09
1.9209e-05
7.98858e-09
1.92426e-05
2.96814e-08
1.92989e-05
6.08797e-08
1.93899e-05
1.03293e-07
1.95314e-05
1.60933e-07
1.97383e-05
2.43535e-07
3.22753e-07
2.00433e-05
1.92407e-05
1.92295e-05
1.92185e-05
1.92075e-05
1.91962e-05
1.91847e-05
1.91726e-05
1.91598e-05
1.9146e-05
1.91309e-05
1.91144e-05
1.90962e-05
1.90762e-05
1.90543e-05
1.90307e-05
1.90054e-05
1.8979e-05
1.89519e-05
1.89252e-05
1.89001e-05
1.88783e-05
1.88625e-05
1.88561e-05
1.88641e-05
1.88938e-05
1.89546e-05
1.90579e-05
1.92189e-05
1.94624e-05
1.97851e-05
2.04621e-05
-9.6586e-06
1.01058e-05
2.00113e-05
-9.74394e-06
1.01948e-05
1.95384e-05
-9.82423e-06
1.02971e-05
1.90404e-05
-9.89442e-06
1.03924e-05
1.85265e-05
-9.96528e-06
1.04792e-05
1.79969e-05
-1.00348e-05
1.05645e-05
1.74541e-05
-1.01049e-05
1.06476e-05
1.69007e-05
-1.01761e-05
1.07294e-05
1.63388e-05
-1.02497e-05
1.08116e-05
1.57693e-05
-1.03265e-05
1.0896e-05
1.51923e-05
-1.04065e-05
1.09835e-05
1.46074e-05
-1.049e-05
1.10749e-05
1.4014e-05
-1.05772e-05
1.11706e-05
1.34115e-05
-1.06685e-05
1.1271e-05
1.27991e-05
-1.07647e-05
1.13771e-05
1.21761e-05
-1.08668e-05
1.14898e-05
1.15416e-05
-1.0976e-05
1.16106e-05
1.08942e-05
-1.10937e-05
1.17411e-05
1.02322e-05
-1.12215e-05
1.18834e-05
9.55327e-06
-1.13613e-05
1.20403e-05
8.85434e-06
-1.15158e-05
1.22147e-05
8.13128e-06
-1.1688e-05
1.24111e-05
7.37852e-06
-1.18817e-05
1.26345e-05
6.58833e-06
-1.2102e-05
1.28922e-05
5.74983e-06
-1.23539e-05
1.31924e-05
4.84737e-06
-1.26471e-05
1.35496e-05
3.86256e-06
-1.29822e-05
1.3967e-05
2.7416e-06
-1.33926e-05
1.45135e-05
1.52332e-06
-1.3777e-05
1.49953e-05
-1.45895e-05
1.61128e-05
2.05887e-05
-9.18825e-06
2.00915e-05
-9.24674e-06
1.95746e-05
-9.30736e-06
1.90468e-05
-9.36661e-06
1.85095e-05
-9.42802e-06
1.79628e-05
-9.4881e-06
1.74102e-05
-9.55227e-06
1.68527e-05
-9.61856e-06
1.62897e-05
-9.68666e-06
1.57202e-05
-9.75698e-06
1.51434e-05
-9.82973e-06
1.45584e-05
-9.90511e-06
1.39648e-05
-9.98352e-06
1.33619e-05
-1.00656e-05
1.27492e-05
-1.01519e-05
1.21258e-05
-1.02434e-05
1.14907e-05
-1.03409e-05
1.08424e-05
-1.04454e-05
1.01791e-05
-1.05582e-05
9.49836e-06
-1.06805e-05
8.79692e-06
-1.08144e-05
8.07064e-06
-1.09617e-05
7.31398e-06
-1.1125e-05
6.51934e-06
-1.13073e-05
5.67654e-06
-1.15111e-05
4.77135e-06
-1.17419e-05
3.78447e-06
-1.19953e-05
2.68567e-06
-1.22938e-05
1.46711e-06
-1.25584e-05
-1.31224e-05
2.05086e-05
-8.68498e-06
1.99944e-05
-8.7326e-06
1.94706e-05
-8.78354e-06
1.89411e-05
-8.83706e-06
1.84053e-05
-8.89224e-06
1.78658e-05
-8.94863e-06
1.73201e-05
-9.00656e-06
1.67675e-05
-9.06597e-06
1.62076e-05
-9.12678e-06
1.56399e-05
-9.1893e-06
1.50641e-05
-9.25389e-06
1.44798e-05
-9.32087e-06
1.38869e-05
-9.39061e-06
1.32849e-05
-9.46355e-06
1.26731e-05
-9.54015e-06
1.20506e-05
-9.62091e-06
1.14161e-05
-9.70644e-06
1.07681e-05
-9.79742e-06
1.01046e-05
-9.89467e-06
9.42317e-06
-9.99911e-06
8.72058e-06
-1.01118e-05
7.99269e-06
-1.02338e-05
7.23405e-06
-1.03664e-05
6.43739e-06
-1.05107e-05
5.59319e-06
-1.06669e-05
4.68828e-06
-1.0837e-05
3.70555e-06
-1.10126e-05
2.62167e-06
-1.12099e-05
1.41211e-06
-1.13489e-05
-1.17102e-05
2.0425e-05
-8.17522e-06
1.99085e-05
-8.21609e-06
1.93849e-05
-8.25986e-06
1.88551e-05
-8.30733e-06
1.83196e-05
-8.35668e-06
1.77778e-05
-8.40684e-06
1.72291e-05
-8.45789e-06
1.66733e-05
-8.5102e-06
1.61105e-05
-8.56394e-06
1.55405e-05
-8.6193e-06
1.49631e-05
-8.67648e-06
1.43779e-05
-8.73568e-06
1.37844e-05
-8.79713e-06
1.31819e-05
-8.86107e-06
1.25696e-05
-8.92778e-06
1.19463e-05
-8.99761e-06
1.13107e-05
-9.07091e-06
1.06614e-05
-9.1481e-06
9.99634e-06
-9.22958e-06
9.31301e-06
-9.31578e-06
8.60829e-06
-9.40706e-06
7.87812e-06
-9.50366e-06
7.11731e-06
-9.60558e-06
6.3191e-06
-9.71247e-06
5.47482e-06
-9.82263e-06
4.57271e-06
-9.93492e-06
3.59853e-06
-1.00384e-05
2.53209e-06
-1.01435e-05
1.34808e-06
-1.01649e-05
-1.03622e-05
2.03092e-05
-7.6602e-06
1.97885e-05
-7.69534e-06
1.92614e-05
-7.7328e-06
1.87286e-05
-7.77447e-06
1.819e-05
-7.81817e-06
1.76456e-05
-7.86239e-06
1.7095e-05
-7.90726e-06
1.6538e-05
-7.9532e-06
1.59744e-05
-8.00041e-06
1.5404e-05
-8.04889e-06
1.48263e-05
-8.09874e-06
1.42407e-05
-8.15008e-06
1.36466e-05
-8.20304e-06
1.30433e-05
-8.25777e-06
1.24299e-05
-8.31442e-06
1.18055e-05
-8.37314e-06
1.11686e-05
-8.43407e-06
1.05178e-05
-8.4973e-06
9.85112e-06
-8.56288e-06
9.16608e-06
-8.63074e-06
8.45965e-06
-8.70063e-06
7.72803e-06
-8.77204e-06
6.9664e-06
-8.84395e-06
6.16863e-06
-8.9147e-06
5.32709e-06
-8.98109e-06
4.4316e-06
-9.03943e-06
3.47058e-06
-9.07734e-06
2.42627e-06
-9.09914e-06
1.27914e-06
-9.01774e-06
-9.08303e-06
2.01622e-05
-7.14105e-06
1.9638e-05
-7.17112e-06
1.91081e-05
-7.20294e-06
1.85729e-05
-7.2392e-06
1.80322e-05
-7.27748e-06
1.74858e-05
-7.31601e-06
1.69334e-05
-7.35489e-06
1.63748e-05
-7.39458e-06
1.58096e-05
-7.43523e-06
1.52375e-05
-7.4768e-06
1.46581e-05
-7.51928e-06
1.40708e-05
-7.56274e-06
1.34749e-05
-7.60723e-06
1.28699e-05
-7.65277e-06
1.22549e-05
-7.69936e-06
1.16287e-05
-7.74696e-06
1.09901e-05
-7.79549e-06
1.03376e-05
-7.84477e-06
9.66922e-06
-7.89449e-06
8.98266e-06
-7.94418e-06
8.27509e-06
-7.99307e-06
7.54302e-06
-8.03996e-06
6.78212e-06
-8.08305e-06
5.98704e-06
-8.11962e-06
5.15125e-06
-8.1453e-06
4.26631e-06
-8.15448e-06
3.32311e-06
-8.13414e-06
2.30681e-06
-8.08285e-06
1.20588e-06
-7.91681e-06
-7.87714e-06
1.9981e-05
-6.61795e-06
1.94532e-05
-6.64339e-06
1.89203e-05
-6.67e-06
1.83822e-05
-6.70108e-06
1.78388e-05
-6.73408e-06
1.72898e-05
-6.76707e-06
1.6735e-05
-6.8001e-06
1.61741e-05
-6.83368e-06
1.56068e-05
-6.8679e-06
1.50327e-05
-6.90267e-06
1.44513e-05
-6.9379e-06
1.38621e-05
-6.97357e-06
1.32645e-05
-7.00964e-06
1.26578e-05
-7.04603e-06
1.2041e-05
-7.08259e-06
1.14132e-05
-7.11912e-06
1.0773e-05
-7.15534e-06
1.01191e-05
-7.19082e-06
9.44955e-06
-7.22499e-06
8.76235e-06
-7.25698e-06
8.0549e-06
-7.28562e-06
7.3241e-06
-7.30916e-06
6.56622e-06
-7.32517e-06
5.77674e-06
-7.33015e-06
4.95035e-06
-7.3189e-06
4.08035e-06
-7.28449e-06
3.16e-06
-7.21379e-06
2.17771e-06
-7.10055e-06
1.12933e-06
-6.86844e-06
-6.74781e-06
1.97629e-05
-6.09094e-06
1.92316e-05
-6.11209e-06
1.86954e-05
-6.13387e-06
1.81543e-05
-6.15997e-06
1.76081e-05
-6.18784e-06
1.70564e-05
-6.21544e-06
1.64991e-05
-6.24279e-06
1.59359e-05
-6.27039e-06
1.53662e-05
-6.2983e-06
1.47899e-05
-6.32636e-06
1.42065e-05
-6.35442e-06
1.36153e-05
-6.38239e-06
1.30158e-05
-6.41015e-06
1.24073e-05
-6.43749e-06
1.17888e-05
-6.46418e-06
1.11596e-05
-6.48985e-06
1.05183e-05
-6.51405e-06
9.86362e-06
-6.53616e-06
9.19399e-06
-6.55535e-06
8.50749e-06
-6.57049e-06
7.80189e-06
-6.58002e-06
7.07457e-06
-6.58184e-06
6.32243e-06
-6.57304e-06
5.54188e-06
-6.5496e-06
4.7288e-06
-6.50582e-06
3.87829e-06
-6.43398e-06
2.98577e-06
-6.32127e-06
2.04316e-06
-6.15794e-06
1.05272e-06
-5.878e-06
-5.69509e-06
1.95064e-05
-5.56005e-06
1.89715e-05
-5.57722e-06
1.84322e-05
-5.59452e-06
1.7888e-05
-5.61583e-06
1.73389e-05
-5.6387e-06
1.67845e-05
-5.66106e-06
1.62246e-05
-5.68289e-06
1.56589e-05
-5.70465e-06
1.50869e-05
-5.72639e-06
1.45085e-05
-5.74789e-06
1.3923e-05
-5.76894e-06
1.333e-05
-5.78939e-06
1.27289e-05
-5.80904e-06
1.2119e-05
-5.8276e-06
1.14995e-05
-5.84472e-06
1.08696e-05
-5.85993e-06
1.02282e-05
-5.87263e-06
9.57407e-06
-5.88203e-06
8.90584e-06
-5.88712e-06
8.22191e-06
-5.88655e-06
7.52041e-06
-5.87852e-06
6.79924e-06
-5.86067e-06
6.05599e-06
-5.82979e-06
5.28796e-06
-5.78157e-06
4.49225e-06
-5.7101e-06
3.66562e-06
-5.60735e-06
2.80549e-06
-5.46114e-06
1.90719e-06
-5.25965e-06
9.77738e-07
-4.94855e-06
-4.71735e-06
1.92117e-05
-5.02542e-06
1.86734e-05
-5.03892e-06
1.8131e-05
-5.05209e-06
1.7584e-05
-5.06881e-06
1.70321e-05
-5.08682e-06
1.64752e-05
-5.1041e-06
1.59129e-05
-5.12059e-06
1.53449e-05
-5.13672e-06
1.4771e-05
-5.15249e-06
1.41908e-05
-5.16765e-06
1.36038e-05
-5.18194e-06
1.30095e-05
-5.19515e-06
1.24075e-05
-5.20702e-06
1.17971e-05
-5.21719e-06
1.11776e-05
-5.22522e-06
1.05482e-05
-5.23055e-06
9.90808e-06
-5.23247e-06
9.25613e-06
-5.23009e-06
8.59124e-06
-5.22223e-06
7.91211e-06
-5.20742e-06
7.2173e-06
-5.18371e-06
6.50522e-06
-5.14859e-06
5.77415e-06
-5.09872e-06
5.02228e-06
-5.0297e-06
4.24781e-06
-4.93563e-06
3.44903e-06
-4.80857e-06
2.62511e-06
-4.63723e-06
1.77431e-06
-4.40884e-06