/*--------------------------------*- C++ -*----------------------------------*\
  =========                 |
  \\      /  F ield         | OpenFOAM: The Open Source CFD Toolbox
   \\    /   O peration     | Website:  https://openfoam.org
    \\  /    A nd           | Version:  11
     \\/     M anipulation  |
\*---------------------------------------------------------------------------*/
FoamFile
{
    format      ascii;
    class       surfaceScalarField;
    location    "7";
    object      phi;
}
// * * * * * * * * * * * * * * * * * * * * * * * * * * * * * * * * * * * * * //

dimensions      [0 3 -1 0 0 0 0];

internalField   nonuniform List<scalar> 
24840
(
1.53201e-05
1.3281e-08
1.53027e-05
1.73399e-08
1.52871e-05
1.56398e-08
1.52725e-05
1.45643e-08
1.52588e-05
1.37331e-08
1.52461e-05
1.26485e-08
1.52349e-05
1.12489e-08
1.52253e-05
9.6152e-09
1.52178e-05
7.49802e-09
1.52127e-05
5.03546e-09
1.52106e-05
2.08835e-09
1.52122e-05
-1.53345e-09
1.52182e-05
-5.99566e-09
1.52297e-05
-1.14933e-08
1.52479e-05
-1.82578e-08
1.52744e-05
-2.65059e-08
1.53112e-05
-3.67366e-08
1.53605e-05
-4.93799e-08
1.54247e-05
-6.41896e-08
1.55069e-05
-8.22144e-08
1.5612e-05
-1.0507e-07
1.57452e-05
-1.3318e-07
1.59127e-05
-1.67546e-07
1.61223e-05
-2.09537e-07
1.63828e-05
-2.60476e-07
1.67048e-05
-3.21998e-07
1.71021e-05
-3.97364e-07
1.75844e-05
-4.82307e-07
1.81941e-05
-6.09658e-07
-6.13295e-07
1.88074e-05
1.53394e-05
7.18164e-09
1.53439e-05
1.29067e-08
1.53483e-05
1.12039e-08
1.53531e-05
9.73823e-09
1.53587e-05
8.14377e-09
1.53654e-05
5.97078e-09
1.53734e-05
3.25443e-09
1.53829e-05
1.47433e-10
1.53942e-05
-3.8924e-09
1.54078e-05
-8.50554e-09
1.5424e-05
-1.40863e-08
1.54433e-05
-2.08763e-08
1.54665e-05
-2.91592e-08
1.54942e-05
-3.92457e-08
1.55275e-05
-5.15321e-08
1.55675e-05
-6.64719e-08
1.56154e-05
-8.46671e-08
1.56729e-05
-1.06925e-07
1.57442e-05
-1.35434e-07
1.58331e-05
-1.71126e-07
1.59421e-05
-2.14111e-07
1.60754e-05
-2.66424e-07
1.62383e-05
-3.30421e-07
1.64374e-05
-4.08687e-07
1.66811e-05
-5.04148e-07
1.69794e-05
-6.20286e-07
1.73444e-05
-7.62364e-07
1.77903e-05
-9.28273e-07
1.83355e-05
-1.1548e-06
-1.28098e-06
1.90032e-05
1.53363e-05
4.19185e-09
1.53404e-05
8.86332e-09
1.53438e-05
7.77917e-09
1.5348e-05
5.51541e-09
1.53532e-05
3.00367e-09
1.53593e-05
-2.11891e-10
1.53667e-05
-4.13825e-09
1.53758e-05
-8.9091e-09
1.53865e-05
-1.4656e-08
1.53995e-05
-2.14089e-08
1.54149e-05
-2.95303e-08
1.54334e-05
-3.93998e-08
1.54557e-05
-5.14456e-08
1.54826e-05
-6.61561e-08
1.55152e-05
-8.41246e-08
1.55548e-05
-1.06076e-07
1.56031e-05
-1.32933e-07
1.56621e-05
-1.65908e-07
1.57336e-05
-2.06964e-07
1.58203e-05
-2.57819e-07
1.59261e-05
-3.1988e-07
1.60553e-05
-3.95653e-07
1.62133e-05
-4.88454e-07
1.64068e-05
-6.02125e-07
1.66438e-05
-7.41202e-07
1.69344e-05
-9.10845e-07
1.72908e-05
-1.11881e-06
1.77271e-05
-1.36452e-06
1.82618e-05
-1.68959e-06
-1.94435e-06
1.89252e-05
1.53351e-05
2.39398e-09
1.53386e-05
5.3481e-09
1.5342e-05
4.37539e-09
1.53459e-05
1.63794e-09
1.53508e-05
-1.85646e-09
1.53567e-05
-6.10374e-09
1.53639e-05
-1.13243e-08
1.53726e-05
-1.76265e-08
1.5383e-05
-2.5085e-08
1.53955e-05
-3.3898e-08
1.54104e-05
-4.44729e-08
1.54284e-05
-5.73177e-08
1.54499e-05
-7.30053e-08
1.5476e-05
-9.21907e-08
1.55075e-05
-1.15657e-07
1.55458e-05
-1.44365e-07
1.55924e-05
-1.7952e-07
1.56491e-05
-2.22673e-07
1.57181e-05
-2.75932e-07
1.58019e-05
-3.41587e-07
1.5904e-05
-4.22005e-07
1.60287e-05
-5.20408e-07
1.61813e-05
-6.41022e-07
1.63681e-05
-7.88917e-07
1.65971e-05
-9.70186e-07
1.6878e-05
-1.19179e-06
1.72229e-05
-1.46372e-06
1.76468e-05
-1.78836e-06
1.81655e-05
-2.2083e-06
-2.59403e-06
1.88152e-05
1.53345e-05
1.20846e-09
1.53373e-05
2.57249e-09
1.53404e-05
1.26112e-09
1.53441e-05
-2.0404e-09
1.53487e-05
-6.43661e-09
1.53543e-05
-1.17736e-08
1.53613e-05
-1.82396e-08
1.53696e-05
-2.59701e-08
1.53796e-05
-3.50838e-08
1.53916e-05
-4.58593e-08
1.54059e-05
-5.87805e-08
1.5423e-05
-7.44696e-08
1.54436e-05
-9.36351e-08
1.54685e-05
-1.17087e-07
1.54987e-05
-1.4579e-07
1.55352e-05
-1.80922e-07
1.55797e-05
-2.23952e-07
1.56337e-05
-2.76738e-07
1.56995e-05
-3.41654e-07
1.57793e-05
-4.21474e-07
1.58767e-05
-5.19352e-07
1.59956e-05
-6.39293e-07
1.6141e-05
-7.86419e-07
1.6319e-05
-9.66977e-07
1.65374e-05
-1.18855e-06
1.68055e-05
-1.45994e-06
1.71351e-05
-1.79326e-06
1.75413e-05
-2.19457e-06
1.80388e-05
-2.70582e-06
-3.22061e-06
1.86654e-05
1.53342e-05
3.56327e-10
1.53364e-05
3.36179e-10
1.53393e-05
-1.62538e-09
1.53428e-05
-5.52355e-09
1.53471e-05
-1.07553e-08
1.53525e-05
-1.71342e-08
1.5359e-05
-2.47864e-08
1.53669e-05
-3.38678e-08
1.53764e-05
-4.45511e-08
1.53877e-05
-5.71768e-08
1.54012e-05
-7.23089e-08
1.54174e-05
-9.0675e-08
1.54369e-05
-1.13111e-07
1.54604e-05
-1.40574e-07
1.54888e-05
-1.74195e-07
1.55232e-05
-2.15355e-07
1.5565e-05
-2.65762e-07
1.56159e-05
-3.27558e-07
1.56776e-05
-4.03421e-07
1.57527e-05
-4.96572e-07
1.58442e-05
-6.10842e-07
1.59559e-05
-7.50994e-07
1.60925e-05
-9.23017e-07
1.62598e-05
-1.13427e-06
1.6465e-05
-1.39378e-06
1.67173e-05
-1.71216e-06
1.70276e-05
-2.10362e-06
1.74112e-05
-2.57814e-06
1.7882e-05
-3.17666e-06
-3.81776e-06
1.84792e-05
1.5334e-05
-3.24321e-10
1.53359e-05
-1.50208e-09
1.53385e-05
-4.23222e-09
1.53417e-05
-8.75075e-09
1.53457e-05
-1.47672e-08
1.53507e-05
-2.21287e-08
1.53568e-05
-3.09073e-08
1.53642e-05
-4.12576e-08
1.53731e-05
-5.3401e-08
1.53836e-05
-6.77424e-08
1.53962e-05
-8.49239e-08
1.54113e-05
-1.05771e-07
1.54295e-05
-1.31237e-07
1.54513e-05
-1.62412e-07
1.54777e-05
-2.0058e-07
1.55096e-05
-2.47305e-07
1.55484e-05
-3.04516e-07
1.55954e-05
-3.74615e-07
1.56526e-05
-4.60586e-07
1.57221e-05
-5.66069e-07
1.58067e-05
-6.95479e-07
1.591e-05
-8.54278e-07
1.60363e-05
-1.04928e-06
1.61909e-05
-1.2889e-06
1.63806e-05
-1.58349e-06
1.66139e-05
-1.94546e-06
1.69013e-05
-2.39105e-06
1.72575e-05
-2.93427e-06
1.76959e-05
-3.61505e-06
-4.37845e-06
1.82566e-05
1.53339e-05
-8.78912e-10
1.53354e-05
-3.04256e-09
1.53377e-05
-6.55149e-09
1.53407e-05
-1.17127e-08
1.53444e-05
-1.84713e-08
1.5349e-05
-2.6741e-08
1.53547e-05
-3.65623e-08
1.53615e-05
-4.808e-08
1.53697e-05
-6.15567e-08
1.53794e-05
-7.74611e-08
1.5391e-05
-9.65087e-08
1.54048e-05
-1.19613e-07
1.54214e-05
-1.47833e-07
1.54414e-05
-1.82377e-07
1.54655e-05
-2.2467e-07
1.54946e-05
-2.76439e-07
1.55299e-05
-3.3981e-07
1.55727e-05
-4.17424e-07
1.56247e-05
-5.1255e-07
1.56878e-05
-6.2921e-07
1.57646e-05
-7.72328e-07
1.58584e-05
-9.47992e-07
1.59729e-05
-1.16378e-06
1.6113e-05
-1.42905e-06
1.6285e-05
-1.75543e-06
1.64965e-05
-2.15698e-06
1.67573e-05
-2.65192e-06
1.70813e-05
-3.25823e-06
1.74813e-05
-4.01505e-06
-4.89486e-06
1.79977e-05
1.53338e-05
-1.33087e-09
1.53351e-05
-4.35542e-09
1.53371e-05
-8.60137e-09
1.53398e-05
-1.44022e-08
1.53432e-05
-2.18528e-08
1.53474e-05
-3.09415e-08
1.53526e-05
-4.17012e-08
1.53587e-05
-5.42687e-08
1.53661e-05
-6.89389e-08
1.53749e-05
-8.62379e-08
1.53853e-05
-1.06948e-07
1.53978e-05
-1.32062e-07
1.54127e-05
-1.62729e-07
1.54306e-05
-2.00266e-07
1.54521e-05
-2.46218e-07
1.54781e-05
-3.02457e-07
1.55096e-05
-3.71282e-07
1.55477e-05
-4.55544e-07
1.5594e-05
-5.58771e-07
1.56501e-05
-6.85319e-07
1.57183e-05
-8.40551e-07
1.58014e-05
-1.0311e-06
1.59028e-05
-1.26522e-06
1.60269e-05
-1.55313e-06
1.6179e-05
-1.90756e-06
1.63661e-05
-2.34408e-06
1.6597e-05
-2.8828e-06
1.68843e-05
-3.54548e-06
1.72399e-05
-4.37069e-06
-5.35854e-06
1.77036e-05
1.53337e-05
-1.70797e-09
1.53348e-05
-5.48302e-09
1.53366e-05
-1.04021e-08
1.5339e-05
-1.68085e-08
1.53421e-05
-2.489e-08
1.53458e-05
-3.47026e-08
1.53504e-05
-4.62869e-08
1.53559e-05
-5.97751e-08
1.53625e-05
-7.54863e-08
1.53702e-05
-9.39959e-08
1.53794e-05
-1.16147e-07
1.53904e-05
-1.42999e-07
1.54034e-05
-1.75782e-07
1.54191e-05
-2.15901e-07
1.54379e-05
-2.65009e-07
1.54605e-05
-3.25096e-07
1.54878e-05
-3.98612e-07
1.55209e-05
-4.88585e-07
1.55609e-05
-5.98769e-07
1.56093e-05
-7.338e-07
1.56682e-05
-8.9941e-07
1.57398e-05
-1.10269e-06
1.5827e-05
-1.35246e-06
1.59336e-05
-1.65968e-06
1.60641e-05
-2.03802e-06
1.62244e-05
-2.50438e-06
1.64221e-05
-3.08053e-06
1.66683e-05
-3.79174e-06
1.69738e-05
-4.67612e-06
-5.7607e-06
1.73759e-05
1.53337e-05
-2.02816e-09
1.53346e-05
-6.45093e-09
1.53362e-05
-1.19698e-08
1.53383e-05
-1.89271e-08
1.5341e-05
-2.75685e-08
1.53443e-05
-3.80039e-08
1.53483e-05
-5.0289e-08
1.53531e-05
-6.45565e-08
1.53587e-05
-8.11437e-08
1.53654e-05
-1.00667e-07
1.53733e-05
-1.2402e-07
1.53826e-05
-1.52321e-07
1.53937e-05
-1.86864e-07
1.54069e-05
-2.29129e-07
1.54227e-05
-2.80853e-07
1.54418e-05
-3.44128e-07
1.54647e-05
-4.21523e-07
1.54923e-05
-5.16213e-07
1.55257e-05
-6.32132e-07
1.5566e-05
-7.74147e-07
1.56149e-05
-9.48278e-07
1.56742e-05
-1.16199e-06
1.57463e-05
-1.42455e-06
1.58341e-05
-1.74748e-06
1.59413e-05
-2.14526e-06
1.60728e-05
-2.63583e-06
1.62346e-05
-3.24236e-06
1.6436e-05
-3.99312e-06
1.66857e-05
-4.92585e-06
-6.09265e-06
1.70176e-05
1.53336e-05
-2.30107e-09
1.53344e-05
-7.27769e-09
1.53358e-05
-1.33188e-08
1.53376e-05
-2.07589e-08
1.53399e-05
-2.98782e-08
1.53427e-05
-4.08283e-08
1.53461e-05
-5.36829e-08
1.53502e-05
-6.85785e-08
1.53549e-05
-8.58663e-08
1.53604e-05
-1.06194e-07
1.53669e-05
-1.30498e-07
1.53745e-05
-1.59942e-07
1.53835e-05
-1.95871e-07
1.53942e-05
-2.39822e-07
1.5407e-05
-2.93598e-07
1.54222e-05
-3.59367e-07
1.54405e-05
-4.3979e-07
1.54624e-05
-5.38153e-07
1.54888e-05
-6.58526e-07
1.55206e-05
-8.05947e-07
1.5559e-05
-9.86652e-07
1.56054e-05
-1.20836e-06
1.56615e-05
-1.48069e-06
1.57296e-05
-1.81556e-06
1.58123e-05
-2.22801e-06
1.59132e-05
-2.73674e-06
1.60368e-05
-3.36596e-06
1.61901e-05
-4.14634e-06
1.63793e-05
-5.11507e-06
-6.34632e-06
1.66329e-05
1.53336e-05
-2.53249e-09
1.53343e-05
-7.97768e-09
1.53354e-05
-1.44618e-08
1.5337e-05
-2.23069e-08
1.53389e-05
-3.18135e-08
1.53412e-05
-4.31641e-08
1.5344e-05
-5.64505e-08
1.53472e-05
-7.18151e-08
1.5351e-05
-8.96197e-08
1.53553e-05
-1.10535e-07
1.53604e-05
-1.35529e-07
1.53662e-05
-1.65798e-07
1.53731e-05
-2.02723e-07
1.53811e-05
-2.47883e-07
1.53906e-05
-3.03124e-07
1.5402e-05
-3.70669e-07
1.54154e-05
-4.53239e-07
1.54314e-05
-5.54195e-07
1.54506e-05
-6.77697e-07
1.54736e-05
-8.28891e-07
1.55011e-05
-1.01415e-06
1.5534e-05
-1.24136e-06
1.55737e-05
-1.52031e-06
1.56213e-05
-1.86319e-06
1.56786e-05
-2.28533e-06
1.57478e-05
-2.80588e-06
1.58314e-05
-3.44964e-06
1.5934e-05
-4.24886e-06
1.60588e-05
-5.23992e-06
-6.51486e-06
1.62274e-05
1.53335e-05
-2.72665e-09
1.53341e-05
-8.56254e-09
1.53351e-05
-1.54105e-08
1.53363e-05
-2.35771e-08
1.53379e-05
-3.33731e-08
1.53397e-05
-4.50047e-08
1.53419e-05
-5.85802e-08
1.53443e-05
-7.42492e-08
1.53471e-05
-9.23801e-08
1.53502e-05
-1.13659e-07
1.53537e-05
-1.39073e-07
1.53578e-05
-1.6984e-07
1.53624e-05
-2.07362e-07
1.53678e-05
-2.53241e-07
1.5374e-05
-3.09349e-07
1.53813e-05
-3.77934e-07
1.53898e-05
-4.61751e-07
1.53998e-05
-5.64196e-07
1.54115e-05
-6.89471e-07
1.54254e-05
-8.42771e-07
1.54418e-05
-1.03052e-06
1.54611e-05
-1.26066e-06
1.54838e-05
-1.54306e-06
1.55106e-05
-1.88993e-06
1.55419e-05
-2.31667e-06
1.55786e-05
-2.84252e-06
1.56212e-05
-3.49232e-06
1.56715e-05
-4.2991e-06
1.57294e-05
-5.29781e-06
-6.59331e-06
1.58078e-05
1.53335e-05
-2.88714e-09
1.5334e-05
-9.04261e-09
1.53347e-05
-1.61768e-08
1.53357e-05
-2.45778e-08
1.53369e-05
-3.45601e-08
1.53383e-05
-4.63487e-08
1.53398e-05
-6.00674e-08
1.53414e-05
-7.58719e-08
1.53431e-05
-9.41343e-08
1.5345e-05
-1.15548e-07
1.53471e-05
-1.41108e-07
1.53493e-05
-1.72041e-07
1.53517e-05
-2.09756e-07
1.53543e-05
-2.55859e-07
1.53571e-05
-3.12224e-07
1.53603e-05
-3.81106e-07
1.53638e-05
-4.65259e-07
1.53677e-05
-5.68078e-07
1.5372e-05
-6.93759e-07
1.53767e-05
-8.47483e-07
1.53818e-05
-1.03565e-06
1.53873e-05
-1.26616e-06
1.53931e-05
-1.54878e-06
1.53987e-05
-1.89562e-06
1.54039e-05
-2.32185e-06
1.54078e-05
-2.84643e-06
1.54092e-05
-3.49372e-06
1.54067e-05
-4.29652e-06
1.53966e-05
-5.28772e-06
-6.57913e-06
1.53824e-05
1.53335e-05
-3.01747e-09
1.53338e-05
-9.42814e-09
1.53344e-05
-1.67737e-08
1.53352e-05
-2.53201e-08
1.5336e-05
-3.53818e-08
1.53369e-05
-4.72002e-08
1.53377e-05
-6.09141e-08
1.53385e-05
-7.66835e-08
1.53393e-05
-9.48805e-08
1.53399e-05
-1.16197e-07
1.53404e-05
-1.41629e-07
1.53408e-05
-1.72396e-07
1.53409e-05
-2.09897e-07
1.53408e-05
-2.55725e-07
1.53403e-05
-3.1174e-07
1.53394e-05
-3.80174e-07
1.53379e-05
-4.63753e-07
1.53356e-05
-5.65833e-07
1.53324e-05
-6.90556e-07
1.5328e-05
-8.4303e-07
1.53219e-05
-1.02955e-06
1.53136e-05
-1.25787e-06
1.53024e-05
-1.53755e-06
1.52871e-05
-1.88039e-06
1.52664e-05
-2.30108e-06
1.52379e-05
-2.81796e-06
1.51985e-05
-3.4543e-06
1.51437e-05
-4.24175e-06
1.50663e-05
-5.21036e-06
-6.47274e-06
1.496e-05
1.53334e-05
-3.12149e-09
1.53337e-05
-9.73046e-09
1.53342e-05
-1.72163e-08
1.53347e-05
-2.58181e-08
1.53351e-05
-3.58491e-08
1.53355e-05
-4.75687e-08
1.53357e-05
-6.11293e-08
1.53357e-05
-7.66928e-08
1.53355e-05
-9.46272e-08
1.53349e-05
-1.15618e-07
1.53339e-05
-1.40646e-07
1.53324e-05
-1.70915e-07
1.53303e-05
-2.07799e-07
1.53275e-05
-2.5286e-07
1.53237e-05
-3.07922e-07
1.53187e-05
-3.75172e-07
1.53122e-05
-4.57278e-07
1.53039e-05
-5.57519e-07
1.52933e-05
-6.7994e-07
1.52797e-05
-8.29517e-07
1.52626e-05
-1.01237e-06
1.52407e-05
-1.23601e-06
1.52128e-05
-1.50967e-06
1.51771e-05
-1.84465e-06
1.5131e-05
-2.25497e-06
1.5071e-05
-2.75795e-06
1.4992e-05
-3.37531e-06
1.48868e-05
-4.1366e-06
1.47447e-05
-5.06828e-06
-6.27773e-06
1.45497e-05
1.53334e-05
-3.2037e-09
1.53336e-05
-9.96292e-09
1.5334e-05
-1.75225e-08
1.53342e-05
-2.60889e-08
1.53344e-05
-3.59771e-08
1.53343e-05
-4.74689e-08
1.53339e-05
-6.0729e-08
1.53331e-05
-7.59172e-08
1.53318e-05
-9.33939e-08
1.53301e-05
-1.13831e-07
1.53276e-05
-1.38187e-07
1.53243e-05
-1.67633e-07
1.532e-05
-2.03503e-07
1.53145e-05
-2.47313e-07
1.53074e-05
-3.00832e-07
1.52984e-05
-3.66177e-07
1.5287e-05
-4.4593e-07
1.52728e-05
-5.43261e-07
1.52549e-05
-6.62071e-07
1.52325e-05
-8.07152e-07
1.52046e-05
-9.84381e-07
1.51695e-05
-1.20094e-06
1.51254e-05
-1.46562e-06
1.50699e-05
-1.78909e-06
1.49994e-05
-2.18446e-06
1.49092e-05
-2.66777e-06
1.47926e-05
-3.25873e-06
1.464e-05
-3.98398e-06
1.44375e-05
-4.8658e-06
-6.00082e-06
1.41606e-05
1.53334e-05
-3.26968e-09
1.53336e-05
-1.01422e-08
1.53338e-05
-1.7714e-08
1.53338e-05
-2.6153e-08
1.53336e-05
-3.57843e-08
1.53331e-05
-4.69209e-08
1.53321e-05
-5.97359e-08
1.53306e-05
-7.43825e-08
1.53284e-05
-9.12104e-08
1.53254e-05
-1.10872e-07
1.53215e-05
-1.34294e-07
1.53165e-05
-1.62601e-07
1.53101e-05
-1.97072e-07
1.53019e-05
-2.39163e-07
1.52917e-05
-2.90566e-07
1.52788e-05
-3.5331e-07
1.52627e-05
-4.29861e-07
1.52427e-05
-5.23247e-07
1.52178e-05
-6.37185e-07
1.51869e-05
-7.76235e-07
1.51485e-05
-9.45969e-07
1.51007e-05
-1.15317e-06
1.50412e-05
-1.40607e-06
1.49667e-05
-1.71461e-06
1.48731e-05
-2.09082e-06
1.47545e-05
-2.54922e-06
1.4603e-05
-3.10719e-06
1.44068e-05
-3.78782e-06
1.41498e-05
-4.60879e-06
-5.65157e-06
1.38005e-05
1.53334e-05
-3.32669e-09
1.53335e-05
-1.02902e-08
1.53336e-05
-1.78181e-08
1.53335e-05
-2.60335e-08
1.5333e-05
-3.52919e-08
1.53321e-05
-4.59496e-08
1.53305e-05
-5.81788e-08
1.53282e-05
-7.21219e-08
1.53251e-05
-8.81162e-08
1.53211e-05
-1.06789e-07
1.53158e-05
-1.29025e-07
1.53091e-05
-1.55889e-07
1.53006e-05
-1.88594e-07
1.529e-05
-2.28515e-07
1.52766e-05
-2.77256e-07
1.52601e-05
-3.36731e-07
1.52395e-05
-4.09269e-07
1.5214e-05
-4.97724e-07
1.51824e-05
-6.05593e-07
1.51433e-05
-7.37158e-07
1.50949e-05
-8.97633e-07
1.50351e-05
-1.09333e-06
1.49609e-05
-1.33187e-06
1.48687e-05
-1.62236e-06
1.47534e-05
-1.97561e-06
1.46087e-05
-2.40448e-06
1.44253e-05
-2.92382e-06
1.41903e-05
-3.55275e-06
1.38858e-05
-4.30432e-06
-5.24169e-06
1.34759e-05
1.53334e-05
-3.38535e-09
1.53335e-05
-1.04356e-08
1.53336e-05
-1.78596e-08
1.53333e-05
-2.57531e-08
1.53325e-05
-3.45335e-08
1.53312e-05
-4.45923e-08
1.53291e-05
-5.60946e-08
1.53262e-05
-6.91752e-08
1.53222e-05
-8.4158e-08
1.5317e-05
-1.0164e-07
1.53105e-05
-1.22451e-07
1.53022e-05
-1.47586e-07
1.52917e-05
-1.78175e-07
1.52787e-05
-2.15503e-07
1.52625e-05
-2.61064e-07
1.52425e-05
-3.16641e-07
1.52176e-05
-3.84402e-07
1.51869e-05
-4.66998e-07
1.51489e-05
-5.67675e-07
1.51022e-05
-6.90395e-07
1.50445e-05
-8.39969e-07
1.49734e-05
-1.0222e-06
1.48855e-05
-1.24401e-06
1.47768e-05
-1.51362e-06
1.46418e-05
-1.84059e-06
1.44733e-05
-2.23599e-06
1.42615e-05
-2.71209e-06
1.39927e-05
-3.28395e-06
1.36486e-05
-3.9602e-06
-4.78417e-06
1.31911e-05
1.53334e-05
-3.46095e-09
1.53336e-05
-1.06191e-08
1.53336e-05
-1.78778e-08
1.53332e-05
-2.53459e-08
1.53322e-05
-3.35355e-08
1.53305e-05
-4.2872e-08
1.53279e-05
-5.35212e-08
1.53243e-05
-6.55918e-08
1.53196e-05
-7.93959e-08
1.53134e-05
-9.54969e-08
1.53056e-05
-1.14659e-07
1.52958e-05
-1.37796e-07
1.52836e-05
-1.65944e-07
1.52684e-05
-2.00282e-07
1.52495e-05
-2.42181e-07
1.52261e-05
-2.93275e-07
1.51973e-05
-3.55549e-07
1.51617e-05
-4.31427e-07
1.51179e-05
-5.23873e-07
1.5064e-05
-6.36496e-07
1.49977e-05
-7.73664e-07
1.49161e-05
-9.40622e-07
1.48157e-05
-1.14359e-06
1.46919e-05
-1.38985e-06
1.4539e-05
-1.68768e-06
1.43494e-05
-2.04635e-06
1.4113e-05
-2.47567e-06
1.38158e-05
-2.98674e-06
1.344e-05
-3.58442e-06
-4.29229e-06
1.29481e-05
1.53335e-05
-3.57884e-09
1.53337e-05
-1.08968e-08
1.53338e-05
-1.79298e-08
1.53333e-05
-2.48317e-08
1.5332e-05
-3.23134e-08
1.533e-05
-4.08348e-08
1.5327e-05
-5.05045e-08
1.53228e-05
-6.14241e-08
1.53173e-05
-7.38973e-08
1.53103e-05
-8.84423e-08
1.53014e-05
-1.0575e-07
1.52902e-05
-1.26642e-07
1.52763e-05
-1.5205e-07
1.52591e-05
-1.83035e-07
1.52377e-05
-2.2083e-07
1.52113e-05
-2.66905e-07
1.51788e-05
-3.23042e-07
1.51388e-05
-3.91417e-07
1.50896e-05
-4.74685e-07
1.50292e-05
-5.76073e-07
1.4955e-05
-6.99478e-07
1.4864e-05
-8.49559e-07
1.47522e-05
-1.03181e-06
1.46149e-05
-1.25257e-06
1.44461e-05
-1.51888e-06
1.4238e-05
-1.83825e-06
1.39806e-05
-2.21822e-06
1.36601e-05
-2.66631e-06
1.32603e-05
-3.18462e-06
-3.77853e-06
1.27466e-05
1.53335e-05
-3.78269e-09
1.5334e-05
-1.1348e-08
1.53341e-05
-1.80522e-08
1.53335e-05
-2.42403e-08
1.53321e-05
-3.09126e-08
1.53298e-05
-3.85189e-08
1.53264e-05
-4.70913e-08
1.53217e-05
-5.67295e-08
1.53155e-05
-6.7732e-08
1.53076e-05
-8.05624e-08
1.52977e-05
-9.58293e-08
1.52853e-05
-1.14255e-07
1.52699e-05
-1.36655e-07
1.52509e-05
-1.63961e-07
1.52273e-05
-1.97256e-07
1.51982e-05
-2.37832e-07
1.51624e-05
-2.8725e-07
1.51184e-05
-3.4742e-07
1.50644e-05
-4.20664e-07
1.49981e-05
-5.09803e-07
1.49169e-05
-6.1824e-07
1.48174e-05
-7.50027e-07
1.46955e-05
-9.09923e-07
1.45463e-05
-1.1034e-06
1.43637e-05
-1.33626e-06
1.41398e-05
-1.61433e-06
1.38648e-05
-1.94323e-06
1.35259e-05
-2.32741e-06
1.31088e-05
-2.7675e-06
-3.25373e-06
1.2584e-05
1.53337e-05
-4.14674e-09
1.53344e-05
-1.20877e-08
1.53347e-05
-1.82747e-08
1.5334e-05
-2.35924e-08
1.53325e-05
-2.93839e-08
1.53299e-05
-3.5979e-08
1.53262e-05
-4.33366e-08
1.5321e-05
-5.15764e-08
1.53143e-05
-6.09855e-08
1.53057e-05
-7.19592e-08
1.52949e-05
-8.50214e-08
1.52814e-05
-1.00786e-07
1.52647e-05
-1.19942e-07
1.5244e-05
-1.43282e-07
1.52185e-05
-1.71728e-07
1.5187e-05
-2.06381e-07
1.51484e-05
-2.48571e-07
1.51009e-05
-2.99919e-07
1.50426e-05
-3.624e-07
1.49712e-05
-4.38406e-07
1.48838e-05
-5.30825e-07
1.47768e-05
-6.43087e-07
1.46462e-05
-7.79235e-07
1.44867e-05
-9.43941e-07
1.42923e-05
-1.14184e-06
1.40551e-05
-1.37713e-06
1.37658e-05
-1.65394e-06
1.34126e-05
-1.97421e-06
1.2984e-05
-2.33891e-06
-2.72667e-06
1.24569e-05
1.5334e-05
-4.81036e-09
1.53352e-05
-1.32908e-08
1.53355e-05
-1.85924e-08
1.53348e-05
-2.29013e-08
1.53332e-05
-2.77649e-08
1.53305e-05
-3.32472e-08
1.53264e-05
-3.9281e-08
1.53209e-05
-4.60253e-08
1.53136e-05
-5.37393e-08
1.53044e-05
-6.2734e-08
1.52928e-05
-7.34559e-08
1.52784e-05
-8.63946e-08
1.52606e-05
-1.02106e-07
1.52386e-05
-1.21235e-07
1.52114e-05
-1.44537e-07
1.51779e-05
-1.72909e-07
1.51368e-05
-2.07438e-07
1.50863e-05
-2.49445e-07
1.50244e-05
-3.00538e-07
1.49487e-05
-3.62661e-07
1.4856e-05
-4.38175e-07
1.47428e-05
-5.29866e-07
1.46047e-05
-6.41095e-07
1.44366e-05
-7.75885e-07
1.42325e-05
-9.37772e-07
1.39848e-05
-1.12936e-06
1.36847e-05
-1.35384e-06
1.33215e-05
-1.61103e-06
1.28875e-05
-1.90495e-06
-2.20385e-06
1.23647e-05
1.53345e-05
-6.02322e-09
1.53364e-05
-1.51888e-08
1.53369e-05
-1.90123e-08
1.53362e-05
-2.22576e-08
1.53346e-05
-2.61254e-08
1.53317e-05
-3.03653e-08
1.53274e-05
-3.49819e-08
1.53215e-05
-4.01546e-08
1.53139e-05
-4.6088e-08
1.53041e-05
-5.29904e-08
1.52919e-05
-6.1268e-08
1.52768e-05
-7.12514e-08
1.52581e-05
-8.33586e-08
1.52349e-05
-9.80846e-08
1.52064e-05
-1.16006e-07
1.51713e-05
-1.37813e-07
1.51282e-05
-1.64338e-07
1.50753e-05
-1.96595e-07
1.50106e-05
-2.35817e-07
1.49314e-05
-2.83483e-07
1.48347e-05
-3.41418e-07
1.47166e-05
-4.11747e-07
1.45727e-05
-4.97266e-07
1.43985e-05
-6.01621e-07
1.41879e-05
-7.27191e-07
1.39335e-05
-8.75035e-07
1.36276e-05
-1.04786e-06
1.32598e-05
-1.24325e-06
1.28269e-05
-1.47205e-06
-1.68654e-06
1.23096e-05
1.53356e-05
-8.28739e-09
1.53381e-05
-1.76957e-08
1.53386e-05
-1.94668e-08
1.53381e-05
-2.17978e-08
1.53365e-05
-2.45193e-08
1.53335e-05
-2.73713e-08
1.5329e-05
-3.05005e-08
1.53229e-05
-3.40491e-08
1.5315e-05
-3.81571e-08
1.53049e-05
-4.2872e-08
1.52922e-05
-4.86293e-08
1.52765e-05
-5.55566e-08
1.52571e-05
-6.39427e-08
1.52332e-05
-7.41272e-08
1.52037e-05
-8.65082e-08
1.51674e-05
-1.01565e-07
1.5123e-05
-1.19881e-07
1.50685e-05
-1.42163e-07
1.5002e-05
-1.69275e-07
1.49208e-05
-2.02258e-07
1.48217e-05
-2.42398e-07
1.47011e-05
-2.91163e-07
1.45549e-05
-3.5099e-07
1.43783e-05
-4.25095e-07
1.41652e-05
-5.14046e-07
1.39078e-05
-6.17679e-07
1.35986e-05
-7.38577e-07
1.32277e-05
-8.72342e-07
1.27924e-05
-1.03678e-06
-1.15479e-06
1.22606e-05
1.53394e-05
-1.43049e-08
1.53417e-05
-2.00923e-08
1.53417e-05
-1.94367e-08
1.53405e-05
-2.06046e-08
1.53381e-05
-2.21346e-08
1.53344e-05
-2.3615e-08
1.53291e-05
-2.52277e-08
1.53221e-05
-2.70694e-08
1.53132e-05
-2.92129e-08
1.5302e-05
-3.16373e-08
1.5288e-05
-3.46631e-08
1.52707e-05
-3.83104e-08
1.52495e-05
-4.27442e-08
1.52236e-05
-4.8156e-08
1.51918e-05
-5.47697e-08
1.51531e-05
-6.2858e-08
1.5106e-05
-7.27553e-08
1.50487e-05
-8.4871e-08
1.49791e-05
-9.97046e-08
1.48947e-05
-1.17867e-07
1.47924e-05
-1.40076e-07
1.46685e-05
-1.67206e-07
1.45172e-05
-1.99681e-07
1.43298e-05
-2.37745e-07
1.40994e-05
-2.83616e-07
1.38208e-05
-3.39121e-07
1.34861e-05
-4.03876e-07
1.30899e-05
-4.76108e-07
1.26167e-05
-5.63591e-07
-5.49049e-07
1.2011e-05
1.5319e-05
1.52989e-05
1.52795e-05
1.52589e-05
1.52368e-05
1.52131e-05
1.51879e-05
1.51608e-05
1.51316e-05
1.51e-05
1.50653e-05
1.5027e-05
1.49843e-05
1.49361e-05
1.48814e-05
1.48185e-05
1.47457e-05
1.46609e-05
1.45612e-05
1.44433e-05
1.43032e-05
1.4136e-05
1.39363e-05
1.36986e-05
1.3415e-05
1.30759e-05
1.2672e-05
1.21959e-05
1.16323e-05
1.10832e-05
1.85561e-05
-8.6783e-06
8.92963e-06
1.83357e-05
-8.86221e-06
9.08251e-06
1.80761e-05
-9.04735e-06
9.30703e-06
1.77793e-05
-9.2242e-06
9.52094e-06
1.74516e-05
-9.40146e-06
9.72915e-06
1.70996e-05
-9.58416e-06
9.93622e-06
1.67272e-05
-9.77426e-06
1.01466e-05
1.6337e-05
-9.97294e-06
1.03631e-05
1.59302e-05
-1.01812e-05
1.0588e-05
1.5507e-05
-1.03995e-05
1.08228e-05
1.50666e-05
-1.06284e-05
1.10687e-05
1.4608e-05
-1.0868e-05
1.13265e-05
1.413e-05
-1.1119e-05
1.1597e-05
1.36316e-05
-1.13826e-05
1.1881e-05
1.31116e-05
-1.16601e-05
1.21801e-05
1.25689e-05
-1.19536e-05
1.24963e-05
1.2002e-05
-1.22652e-05
1.28321e-05
1.14091e-05
-1.25977e-05
1.31906e-05
1.07878e-05
-1.29543e-05
1.35755e-05
1.01354e-05
-1.33392e-05
1.39916e-05
9.44799e-06
-1.37573e-05
1.44448e-05
8.72074e-06
-1.4215e-05
1.49422e-05
7.94726e-06
-1.472e-05
1.54935e-05
7.11928e-06
-1.52821e-05
1.61101e-05
6.22449e-06
-1.59136e-05
1.68084e-05
5.25041e-06
-1.66301e-05
1.76041e-05
4.1766e-06
-1.74527e-05
1.85265e-05
2.9302e-06
-1.8421e-05
1.96674e-05
1.64264e-06
-1.94281e-05
2.07156e-05
-2.10764e-05
2.2719e-05
1.87425e-05
-8.41768e-06
1.84432e-05
-8.56283e-06
1.81126e-05
-8.7168e-06
1.77623e-05
-8.87385e-06
1.73975e-05
-9.03674e-06
1.70209e-05
-9.20756e-06
1.66331e-05
-9.38647e-06
1.62336e-05
-9.57336e-06
1.58208e-05
-9.76841e-06
1.53932e-05
-9.97192e-06
1.49491e-05
-1.01843e-05
1.44873e-05
-1.04062e-05
1.40069e-05
-1.06385e-05
1.35069e-05
-1.08825e-05
1.29863e-05
-1.11396e-05
1.24439e-05
-1.14113e-05
1.18783e-05
-1.16996e-05
1.12874e-05
-1.20068e-05
1.06689e-05
-1.23358e-05
1.00198e-05
-1.26901e-05
9.33627e-06
-1.30738e-05
8.61338e-06
-1.34921e-05
7.84481e-06
-1.39514e-05
7.02225e-06
-1.44595e-05
6.13473e-06
-1.50261e-05
5.16819e-06
-1.56635e-05
4.10197e-06
-1.63865e-05
2.90036e-06
-1.72194e-05
1.59488e-06
-1.81226e-05
-1.94815e-05
1.86155e-05
-8.10796e-06
1.8289e-05
-8.2363e-06
1.79475e-05
-8.37529e-06
1.75957e-05
-8.52212e-06
1.72346e-05
-8.67567e-06
1.68628e-05
-8.83568e-06
1.64785e-05
-9.00215e-06
1.60804e-05
-9.17526e-06
1.56674e-05
-9.35542e-06
1.52386e-05
-9.54316e-06
1.47935e-05
-9.73913e-06
1.43313e-05
-9.94405e-06
1.38515e-05
-1.01588e-05
1.33533e-05
-1.03843e-05
1.28354e-05
-1.06217e-05
1.22966e-05
-1.08724e-05
1.17351e-05
-1.11381e-05
1.1149e-05
-1.14207e-05
1.05357e-05
-1.17225e-05
9.89212e-06
-1.20466e-05
9.21448e-06
-1.23961e-05
8.49782e-06
-1.27755e-05
7.73583e-06
-1.31894e-05
6.92038e-06
-1.36441e-05
6.04089e-06
-1.41466e-05
5.08352e-06
-1.47062e-05
4.02984e-06
-1.53328e-05
2.85258e-06
-1.60421e-05
1.54946e-06
-1.68195e-05
-1.7932e-05
1.84928e-05
-7.7856e-06
1.81598e-05
-7.90327e-06
1.78149e-05
-8.0304e-06
1.74592e-05
-8.16642e-06
1.70925e-05
-8.309e-06
1.67138e-05
-8.45694e-06
1.63222e-05
-8.61051e-06
1.59172e-05
-8.77027e-06
1.54984e-05
-8.93669e-06
1.50655e-05
-9.11021e-06
1.46177e-05
-9.29132e-06
1.41542e-05
-9.4806e-06
1.36742e-05
-9.67873e-06
1.31765e-05
-9.88657e-06
1.26598e-05
-1.01051e-05
1.21229e-05
-1.03355e-05
1.15639e-05
-1.05791e-05
1.09808e-05
-1.08376e-05
1.03711e-05
-1.11129e-05
9.73183e-06
-1.14072e-05
9.059e-06
-1.17233e-05
8.34781e-06
-1.20643e-05
7.59211e-06
-1.24337e-05
6.78414e-06
-1.28361e-05
5.91386e-06
-1.32763e-05
4.9684e-06
-1.37607e-05
3.93094e-06
-1.42954e-05
2.77949e-06
-1.48907e-05
1.49677e-06
-1.55367e-05
-1.64353e-05
1.83326e-05
-7.45281e-06
1.79904e-05
-7.56107e-06
1.76376e-05
-7.67756e-06
1.72744e-05
-7.80326e-06
1.69008e-05
-7.93542e-06
1.65162e-05
-8.07232e-06
1.61199e-05
-8.21423e-06
1.57115e-05
-8.36183e-06
1.52903e-05
-8.51553e-06
1.48557e-05
-8.67562e-06
1.44069e-05
-8.8425e-06
1.3943e-05
-9.01668e-06
1.34631e-05
-9.19881e-06
1.29661e-05
-9.38958e-06
1.24509e-05
-9.58984e-06
1.1916e-05
-9.80055e-06
1.13597e-05
-1.00228e-05
1.078e-05
-1.02579e-05
1.01744e-05
-1.05073e-05
9.53974e-06
-1.07726e-05
8.87234e-06
-1.10559e-05
8.16748e-06
-1.13594e-05
7.41928e-06
-1.16855e-05
6.6204e-06
-1.20372e-05
5.76147e-06
-1.24174e-05
4.83078e-06
-1.283e-05
3.81302e-06
-1.32776e-05
2.689e-06
-1.37667e-05
1.43717e-06
-1.42849e-05
-1.49981e-05
1.81379e-05
-7.11149e-06
1.7788e-05
-7.21123e-06
1.74286e-05
-7.31817e-06
1.70597e-05
-7.43433e-06
1.6681e-05
-7.55668e-06
1.62918e-05
-7.68315e-06
1.58915e-05
-7.81398e-06
1.54796e-05
-7.94994e-06
1.50555e-05
-8.09143e-06
1.46186e-05
-8.23866e-06
1.4168e-05
-8.39196e-06
1.37031e-05
-8.55178e-06
1.3223e-05
-8.71864e-06
1.27265e-05
-8.89312e-06
1.22125e-05
-9.07585e-06
1.16795e-05
-9.26758e-06
1.11259e-05
-9.46914e-06
1.05495e-05
-9.68149e-06
9.94791e-06
-9.90567e-06
9.31816e-06
-1.01429e-05
8.65659e-06
-1.03944e-05
7.95874e-06
-1.06615e-05
7.21909e-06
-1.09459e-05
6.43081e-06
-1.12489e-05
5.58532e-06
-1.15719e-05
4.6721e-06
-1.19168e-05
3.67735e-06
-1.22829e-05
2.58459e-06
-1.26739e-05
1.37189e-06
-1.30722e-05
-1.36262e-05
1.79076e-05
-6.76255e-06
1.75509e-05
-6.85448e-06
1.71853e-05
-6.95264e-06
1.68108e-05
-7.05983e-06
1.6427e-05
-7.17286e-06
1.60333e-05
-7.28944e-06
1.56291e-05
-7.40981e-06
1.5214e-05
-7.5348e-06
1.47873e-05
-7.66476e-06
1.43485e-05
-7.79983e-06
1.38968e-05
-7.94026e-06
1.34314e-05
-8.0864e-06
1.29514e-05
-8.23867e-06
1.24558e-05
-8.3975e-06
1.19433e-05
-8.56336e-06
1.14125e-05
-8.7368e-06
1.08618e-05
-8.9184e-06
1.02891e-05
-9.1088e-06
9.6921e-06
-9.30865e-06
9.0679e-06
-9.51866e-06
8.41306e-06
-9.73951e-06
7.7234e-06
-9.97188e-06
6.9938e-06
-1.02163e-05
6.21803e-06
-1.04732e-05
5.38836e-06
-1.07423e-05
4.49548e-06
-1.10239e-05
3.52719e-06
-1.13146e-05
2.46963e-06
-1.16163e-05
1.30249e-06
-1.19051e-05
-1.23237e-05
1.7642e-05
-6.40678e-06
1.7279e-05
-6.49152e-06
1.69079e-05
-6.58159e-06
1.65285e-05
-6.68035e-06
1.61402e-05
-6.78456e-06
1.57425e-05
-6.89183e-06
1.53351e-05
-7.00235e-06
1.49173e-05
-7.11697e-06
1.44885e-05
-7.23601e-06
1.40482e-05
-7.35954e-06
1.35957e-05
-7.48771e-06
1.31301e-05
-7.62081e-06
1.26506e-05
-7.75913e-06
1.2156e-05
-7.90299e-06
1.16454e-05
-8.0527e-06
1.11172e-05
-8.20861e-06
1.05699e-05
-8.37106e-06
1.00014e-05
-8.54038e-06
9.40968e-06
-8.7169e-06
8.79191e-06
-8.90089e-06
8.14489e-06
-9.09249e-06
7.46475e-06
-9.29175e-06
6.74687e-06
-9.49838e-06
5.98563e-06
-9.71194e-06
5.17421e-06
-9.93083e-06
4.30448e-06
-1.01542e-05
3.36592e-06
-1.0376e-05
2.34724e-06
-1.05977e-05
1.23061e-06
-1.07884e-05
-1.10931e-05
1.73417e-05
-6.0449e-06
1.69732e-05
-6.12305e-06
1.65973e-05
-6.20565e-06
1.62135e-05
-6.29649e-06
1.58213e-05
-6.39238e-06
1.54203e-05
-6.49086e-06
1.50101e-05
-6.59212e-06
1.459e-05
-6.69696e-06
1.41597e-05
-6.80566e-06
1.37184e-05
-6.91825e-06
1.32655e-05
-7.0348e-06
1.28002e-05
-7.1555e-06
1.23216e-05
-7.28057e-06
1.18288e-05
-7.41017e-06
1.13206e-05
-7.54448e-06
1.07956e-05
-7.68365e-06
1.02524e-05
-7.82782e-06
9.68908e-06
-7.97707e-06
9.10356e-06
-8.13139e-06
8.49334e-06
-8.29067e-06
7.85546e-06
-8.45461e-06
7.18643e-06
-8.62272e-06
6.48209e-06
-8.79404e-06
5.73751e-06
-8.96736e-06
4.94676e-06
-9.14008e-06
4.10291e-06
-9.31034e-06
3.19708e-06
-9.47019e-06
2.22036e-06
-9.62094e-06
1.15772e-06
-9.72579e-06
-9.9354e-06
1.70087e-05
-5.67767e-06
1.66354e-05
-5.74977e-06
1.62553e-05
-5.82553e-06
1.58678e-05
-5.90894e-06
1.54723e-05
-5.99697e-06
1.50687e-05
-6.08719e-06
1.46563e-05
-6.17974e-06
1.42347e-05
-6.27537e-06
1.38034e-05
-6.37434e-06
1.33617e-05
-6.4766e-06
1.29091e-05
-6.58216e-06
1.24447e-05
-6.69114e-06
1.19678e-05
-6.80364e-06
1.14774e-05
-6.91972e-06
1.09723e-05
-7.03943e-06
1.04514e-05
-7.16275e-06
9.91319e-06
-7.28961e-06
9.35598e-06
-7.41986e-06
8.77783e-06
-7.55323e-06
8.17646e-06
-7.68929e-06