/*--------------------------------*- C++ -*----------------------------------*\
  =========                 |
  \\      /  F ield         | OpenFOAM: The Open Source CFD Toolbox
   \\    /   O peration     | Website:  https://openfoam.org
    \\  /    A nd           | Version:  11
     \\/     M anipulation  |
\*---------------------------------------------------------------------------*/
FoamFile
{
    format      ascii;
    class       volVectorField;
    location    "7";
    object      U;
}
// * * * * * * * * * * * * * * * * * * * * * * * * * * * * * * * * * * * * * //

dimensions      [0 1 -1 0 0 0 0];

internalField   nonuniform List<vector> 
12600
(
(0.399657 0.00010189 0)
(0.399404 0.000174041 0)
(0.399028 0.00017869 0)
(0.398613 0.000175627 0)
(0.398226 0.000173502 0)
(0.39788 0.000169078 0)
(0.397569 0.000162067 0)
(0.397297 0.000152303 0)
(0.397071 0.000139374 0)
(0.396904 0.000123898 0)
(0.396809 0.000107448 0)
(0.396798 8.395e-05 0)
(0.396891 5.14352e-05 0)
(0.397113 9.04748e-06 0)
(0.397493 -4.1821e-05 0)
(0.398068 -9.7436e-05 0)
(0.398882 -0.000167237 0)
(0.399991 -0.000256588 0)
(0.401457 -0.000363359 0)
(0.403349 -0.000489781 0)
(0.405767 -0.000646524 0)
(0.408843 -0.000840906 0)
(0.412728 -0.0010804 0)
(0.417604 -0.00137453 0)
(0.423693 -0.00173487 0)
(0.431227 -0.00216817 0)
(0.440538 -0.00270753 0)
(0.451977 -0.00326861 0)
(0.46586 -0.00432128 0)
(0.485532 -0.00372407 0)
(0.400037 0.000148374 0)
(0.400178 0.000255037 0)
(0.400354 0.00022691 0)
(0.400462 0.000202869 0)
(0.400583 0.000182283 0)
(0.40074 0.000157753 0)
(0.400932 0.000128554 0)
(0.40116 9.55774e-05 0)
(0.40143 5.64588e-05 0)
(0.401753 8.4362e-06 0)
(0.402138 -5.06659e-05 0)
(0.402598 -0.000122383 0)
(0.403149 -0.000208555 0)
(0.403809 -0.000312449 0)
(0.404599 -0.000439191 0)
(0.405549 -0.000595891 0)
(0.406689 -0.000789098 0)
(0.408058 -0.00102636 0)
(0.409685 -0.00131954 0)
(0.411783 -0.00168186 0)
(0.414349 -0.00212599 0)
(0.417482 -0.00266925 0)
(0.421313 -0.00333405 0)
(0.426 -0.00414688 0)
(0.431731 -0.00513504 0)
(0.438749 -0.00633214 0)
(0.447326 -0.00779528 0)
(0.457867 -0.00947806 0)
(0.47061 -0.0118897 0)
(0.48668 -0.0126039 0)
(0.400023 7.61399e-05 0)
(0.400108 0.000124282 0)
(0.400224 0.000101673 0)
(0.400333 7.37681e-05 0)
(0.400448 4.7762e-05 0)
(0.40059 1.44003e-05 0)
(0.400766 -3.18622e-05 0)
(0.40098 -8.84626e-05 0)
(0.401238 -0.000152343 0)
(0.401544 -0.000227876 0)
(0.401911 -0.000318948 0)
(0.402351 -0.000429464 0)
(0.402879 -0.000564306 0)
(0.403516 -0.000729198 0)
(0.404286 -0.00093094 0)
(0.40522 -0.00117709 0)
(0.406357 -0.00147656 0)
(0.407744 -0.0018417 0)
(0.409434 -0.00230126 0)
(0.411484 -0.00287762 0)
(0.413975 -0.00358079 0)
(0.417014 -0.00443691 0)
(0.42073 -0.00548334 0)
(0.425279 -0.00676292 0)
(0.430848 -0.00832543 0)
(0.437686 -0.0102296 0)
(0.446029 -0.0125624 0)
(0.456407 -0.0153083 0)
(0.468663 -0.0189734 0)
(0.485353 -0.0215463 0)
(0.400015 4.33597e-05 0)
(0.400075 9.06157e-05 0)
(0.400174 8.55786e-05 0)
(0.400279 5.76299e-05 0)
(0.400391 2.13628e-05 0)
(0.400525 -2.54451e-05 0)
(0.400694 -8.71185e-05 0)
(0.400901 -0.000160557 0)
(0.40115 -0.000247842 0)
(0.401447 -0.000351467 0)
(0.401802 -0.000476134 0)
(0.402228 -0.000627782 0)
(0.402739 -0.000813187 0)
(0.403355 -0.00103995 0)
(0.4041 -0.0013171 0)
(0.405003 -0.00165571 0)
(0.406101 -0.00207016 0)
(0.407438 -0.00257957 0)
(0.409066 -0.0032116 0)
(0.411044 -0.00399204 0)
(0.41345 -0.00494525 0)
(0.416385 -0.0061096 0)
(0.419973 -0.00753594 0)
(0.424365 -0.00928447 0)
(0.429742 -0.0114267 0)
(0.436352 -0.0140429 0)
(0.444416 -0.0172523 0)
(0.45449 -0.0210624 0)
(0.46635 -0.0260426 0)
(0.482752 -0.0303132 0)
(0.40001 2.42079e-05 0)
(0.400054 5.09598e-05 0)
(0.400135 3.64437e-05 0)
(0.40023 -6.56056e-06 0)
(0.400338 -6.22746e-05 0)
(0.400468 -0.000128373 0)
(0.40063 -0.000207345 0)
(0.400828 -0.000301321 0)
(0.401067 -0.000412595 0)
(0.401352 -0.000544135 0)
(0.401692 -0.000701696 0)
(0.402099 -0.00089279 0)
(0.402588 -0.00112597 0)
(0.403177 -0.00141102 0)
(0.40389 -0.00175963 0)
(0.404753 -0.00218618 0)
(0.4058 -0.00270866 0)
(0.407075 -0.00334991 0)
(0.408626 -0.00413961 0)
(0.410511 -0.00511098 0)
(0.412805 -0.00630118 0)
(0.415602 -0.00775928 0)
(0.419021 -0.00954776 0)
(0.423208 -0.011742 0)
(0.428334 -0.0144329 0)
(0.434642 -0.0177257 0)
(0.442337 -0.0217681 0)
(0.451992 -0.026616 0)
(0.463314 -0.032833 0)
(0.479257 -0.0388442 0)
(0.400008 1.04311e-05 0)
(0.400041 1.77722e-05 0)
(0.400109 -4.29765e-06 0)
(0.400197 -5.13657e-05 0)
(0.4003 -0.000114227 0)
(0.400424 -0.000191312 0)
(0.400577 -0.000284579 0)
(0.400765 -0.000396089 0)
(0.40099 -0.000527792 0)
(0.40126 -0.000683571 0)
(0.401582 -0.00087042 0)
(0.401967 -0.00109742 0)
(0.402429 -0.00137493 0)
(0.402985 -0.00171477 0)
(0.403656 -0.00213093 0)
(0.40447 -0.00264052 0)
(0.405456 -0.00326477 0)
(0.406655 -0.00403039 0)
(0.408112 -0.00497107 0)
(0.409884 -0.00612676 0)
(0.41204 -0.00754438 0)
(0.414669 -0.00928274 0)
(0.417882 -0.0114158 0)
(0.421815 -0.0140345 0)
(0.426631 -0.0172497 0)
(0.432564 -0.0211914 0)
(0.4398 -0.0260352 0)
(0.448922 -0.0318877 0)
(0.459575 -0.039302 0)
(0.474878 -0.0470222 0)
(0.400006 4.69596e-07 0)
(0.400034 -8.73817e-06 0)
(0.400091 -4.04275e-05 0)
(0.400171 -9.60602e-05 0)
(0.400267 -0.000170898 0)
(0.400383 -0.000262977 0)
(0.400526 -0.000373228 0)
(0.400701 -0.000503525 0)
(0.400912 -0.000656489 0)
(0.401164 -0.000837097 0)
(0.401464 -0.00105342 0)
(0.401823 -0.00131584 0)
(0.402253 -0.00163629 0)
(0.402771 -0.00202842 0)
(0.403395 -0.00250839 0)
(0.40415 -0.00309588 0)
(0.405065 -0.00381521 0)
(0.406175 -0.00469675 0)
(0.407524 -0.00577829 0)
(0.409164 -0.00710565 0)
(0.411159 -0.00873391 0)
(0.413591 -0.0107315 0)
(0.416561 -0.0131839 0)
(0.420197 -0.0161967 0)
(0.424648 -0.0198992 0)
(0.430136 -0.0244454 0)
(0.436828 -0.0300385 0)
(0.445304 -0.0368387 0)
(0.455158 -0.0453855 0)
(0.46963 -0.0547665 0)
(0.400005 -8.18399e-06 0)
(0.400028 -3.07267e-05 0)
(0.400077 -7.26944e-05 0)
(0.400149 -0.000137193 0)
(0.400237 -0.000222439 0)
(0.400344 -0.000326951 0)
(0.400477 -0.000451242 0)
(0.400639 -0.000597189 0)
(0.400833 -0.000768113 0)
(0.401065 -0.000969935 0)
(0.401341 -0.00121174 0)
(0.401671 -0.00150514 0)
(0.402065 -0.00186358 0)
(0.402538 -0.00230244 0)
(0.403108 -0.00283984 0)
(0.403797 -0.00349777 0)
(0.404631 -0.00430332 0)
(0.405642 -0.0052902 0)
(0.406869 -0.00650019 0)
(0.408359 -0.00798443 0)
(0.410171 -0.00980538 0)
(0.412378 -0.0120403 0)
(0.415073 -0.0147854 0)
(0.418369 -0.0181596 0)
(0.422404 -0.0223096 0)
(0.427381 -0.0274124 0)
(0.433447 -0.0336983 0)
(0.441166 -0.0413811 0)
(0.450093 -0.050988 0)
(0.463525 -0.0619675 0)
(0.400004 -1.45549e-05 0)
(0.400023 -4.96114e-05 0)
(0.400066 -0.000101797 0)
(0.400129 -0.000175052 0)
(0.40021 -0.000269844 0)
(0.400308 -0.00038573 0)
(0.400429 -0.000523208 0)
(0.400576 -0.000684112 0)
(0.400752 -0.000872188 0)
(0.400962 -0.0010941 0)
(0.401211 -0.00135984 0)
(0.401507 -0.00168213 0)
(0.401861 -0.00207571 0)
(0.402286 -0.00255747 0)
(0.402796 -0.00314724 0)
(0.403412 -0.00386908 0)
(0.404156 -0.00475255 0)
(0.405057 -0.00583434 0)
(0.406149 -0.00715989 0)
(0.407474 -0.00878513 0)
(0.409084 -0.0107788 0)
(0.411043 -0.0132261 0)
(0.413431 -0.0162327 0)
(0.416351 -0.0199295 0)
(0.419922 -0.0244794 0)
(0.424327 -0.0300805 0)
(0.42969 -0.0369889 0)
(0.436547 -0.0454706 0)
(0.444425 -0.0560438 0)
(0.456594 -0.0685269 0)
(0.400004 -2.0075e-05 0)
(0.40002 -6.58851e-05 0)
(0.400057 -0.000127368 0)
(0.400113 -0.00020892 0)
(0.400185 -0.000312574 0)
(0.400273 -0.000438816 0)
(0.400381 -0.000588141 0)
(0.400512 -0.000762262 0)
(0.400669 -0.000965253 0)
(0.400855 -0.00120449 0)
(0.401074 -0.00149085 0)
(0.401335 -0.00183803 0)
(0.401646 -0.00226192 0)
(0.402017 -0.00278074 0)
(0.402463 -0.00341585 0)
(0.402999 -0.00419305 0)
(0.403646 -0.00514409 0)
(0.404428 -0.00630826 0)
(0.405374 -0.00773422 0)
(0.406519 -0.00948205 0)
(0.407909 -0.0116259 0)
(0.409598 -0.0142576 0)
(0.411654 -0.0174913 0)
(0.414165 -0.0214684 0)
(0.41723 -0.0263658 0)
(0.421009 -0.0324004 0)
(0.425599 -0.0398523 0)
(0.431494 -0.0490364 0)
(0.438207 -0.0604641 0)
(0.448885 -0.0743211 0)
(0.400003 -2.47452e-05 0)
(0.400017 -7.97833e-05 0)
(0.400049 -0.000149698 0)
(0.400098 -0.000239022 0)
(0.400161 -0.000350716 0)
(0.400239 -0.000485983 0)
(0.400334 -0.000645479 0)
(0.400448 -0.000830936 0)
(0.400583 -0.00104673 0)
(0.400744 -0.00130083 0)
(0.400932 -0.00160486 0)
(0.401155 -0.00197337 0)
(0.401419 -0.00242322 0)
(0.401734 -0.0029737 0)
(0.402111 -0.00364745 0)
(0.402562 -0.00447177 0)
(0.403105 -0.00548017 0)
(0.40376 -0.00671413 0)
(0.40455 -0.008225 0)
(0.405504 -0.0100763 0)
(0.40666 -0.0123466 0)
(0.408061 -0.0151331 0)
(0.409762 -0.0185569 0)
(0.411835 -0.0227683 0)
(0.414358 -0.0279554 0)
(0.417464 -0.0343515 0)
(0.421222 -0.042257 0)
(0.426065 -0.0520308 0)
(0.431509 -0.0641787 0)
(0.440473 -0.0792373 0)
(0.400003 -2.87164e-05 0)
(0.400014 -9.16986e-05 0)
(0.400042 -0.000169076 0)
(0.400084 -0.000265324 0)
(0.400139 -0.000383977 0)
(0.400206 -0.000526847 0)
(0.400286 -0.000694825 0)
(0.400383 -0.000889691 0)
(0.400496 -0.00111603 0)
(0.40063 -0.00138229 0)
(0.400785 -0.00170071 0)
(0.400968 -0.00208654 0)
(0.401184 -0.00255741 0)
(0.401439 -0.00313348 0)
(0.401743 -0.00383839 0)
(0.402105 -0.00470064 0)
(0.402539 -0.00575514 0)
(0.40306 -0.0070451 0)
(0.403686 -0.00862399 0)
(0.40444 -0.010558 0)
(0.40535 -0.0129291 0)
(0.406448 -0.0158387 0)
(0.407777 -0.0194132 0)
(0.409388 -0.0238093 0)
(0.411341 -0.0292244 0)
(0.413735 -0.0359038 0)
(0.416613 -0.0441644 0)
(0.420327 -0.0544015 0)
(0.424415 -0.0671148 0)
(0.431457 -0.0831593 0)
(0.400002 -3.20913e-05 0)
(0.400012 -0.000101847 0)
(0.400036 -0.000185638 0)
(0.400071 -0.000287814 0)
(0.400117 -0.000412264 0)
(0.400173 -0.000561263 0)
(0.400239 -0.000735935 0)
(0.400317 -0.000938135 0)
(0.400408 -0.00117261 0)
(0.400514 -0.00144818 0)
(0.400635 -0.00177757 0)
(0.400776 -0.00217654 0)
(0.400941 -0.00266332 0)
(0.401135 -0.00325873 0)
(0.401362 -0.00398715 0)
(0.401632 -0.00487792 0)
(0.401953 -0.00596701 0)
(0.402336 -0.00729885 0)
(0.402792 -0.00892841 0)
(0.403338 -0.0109238 0)
(0.403993 -0.0133692 0)
(0.404778 -0.0163691 0)
(0.40572 -0.0200531 0)
(0.406854 -0.0245825 0)
(0.408216 -0.0301605 0)
(0.40987 -0.0370403 0)
(0.41183 -0.0455499 0)
(0.414358 -0.0561115 0)
(0.417021 -0.0692157 0)
(0.421968 -0.0859879 0)
(0.400002 -3.49389e-05 0)
(0.40001 -0.000110392 0)
(0.40003 -0.000199539 0)
(0.400059 -0.000306559 0)
(0.400097 -0.000435542 0)
(0.400141 -0.000589106 0)
(0.400193 -0.0007686 0)
(0.400252 -0.000975968 0)
(0.40032 -0.00121608 0)
(0.400397 -0.00149801 0)
(0.400483 -0.00183481 0)
(0.400582 -0.00224262 0)
(0.400694 -0.00274006 0)
(0.400824 -0.00334835 0)
(0.400974 -0.00409235 0)
(0.401149 -0.00500193 0)
(0.401354 -0.00611369 0)
(0.401595 -0.00747278 0)
(0.401877 -0.00913508 0)
(0.402211 -0.0111697 0)
(0.402604 -0.0136622 0)
(0.403068 -0.0167183 0)
(0.403616 -0.0204696 0)
(0.404262 -0.0250791 0)
(0.405019 -0.0307525 0)
(0.405917 -0.0377466 0)
(0.406937 -0.0463938 0)
(0.408243 -0.057132 0)
(0.409439 -0.070437 0)
(0.412161 -0.0876418 0)
(0.400002 -3.73133e-05 0)
(0.400008 -0.000117474 0)
(0.400024 -0.000210932 0)
(0.400048 -0.000321653 0)
(0.400077 -0.000453821 0)
(0.40011 -0.000610322 0)
(0.400147 -0.00079271 0)
(0.400188 -0.00100302 0)
(0.400232 -0.00124619 0)
(0.40028 -0.00153145 0)
(0.400331 -0.00187204 0)
(0.400386 -0.0022843 0)
(0.400446 -0.00278701 0)
(0.400511 -0.00340159 0)
(0.400582 -0.00415309 0)
(0.400661 -0.00507161 0)
(0.400748 -0.00619393 0)
(0.400845 -0.00756546 0)
(0.400952 -0.0092423 0)
(0.40107 -0.0112938 0)
(0.401199 -0.0138057 0)
(0.401339 -0.0168839 0)
(0.401489 -0.0206595 0)
(0.401643 -0.0252954 0)
(0.401791 -0.030996 0)
(0.401927 -0.0380168 0)
(0.402002 -0.0466873 0)
(0.402072 -0.0574491 0)
(0.401789 -0.0707548 0)
(0.402219 -0.0880705 0)
(0.400001 -3.9263e-05 0)
(0.400007 -0.000123227 0)
(0.400019 -0.000219977 0)
(0.400037 -0.000333223 0)
(0.400058 -0.000467171 0)
(0.400081 -0.00062493 0)
(0.400103 -0.000808247 0)
(0.400125 -0.00101923 0)
(0.400145 -0.00126285 0)
(0.400164 -0.00154836 0)
(0.400179 -0.00188907 0)
(0.400191 -0.00230133 0)
(0.400198 -0.00280389 0)
(0.400198 -0.00341813 0)
(0.400191 -0.00416902 0)
(0.400173 -0.00508652 0)
(0.400142 -0.00620725 0)
(0.400094 -0.00757632 0)
(0.400025 -0.00924945 0)
(0.399928 -0.0112954 0)
(0.399793 -0.013799 0)
(0.399611 -0.016865 0)
(0.399363 -0.0206224 0)
(0.399028 -0.0252312 0)
(0.398572 -0.0308911 0)
(0.397953 -0.0378516 0)
(0.397092 -0.0464315 0)
(0.39594 -0.0570632 0)
(0.394196 -0.0701667 0)
(0.392338 -0.0872592 0)
(0.400001 -4.08382e-05 0)
(0.400005 -0.000127793 0)
(0.400015 -0.00022686 0)
(0.400028 -0.000341432 0)
(0.400041 -0.000475711 0)
(0.400053 -0.00063302 0)
(0.400061 -0.000815286 0)
(0.400064 -0.00102466 0)
(0.400061 -0.00126609 0)
(0.400051 -0.00154878 0)
(0.400031 -0.00188594 0)
(0.399999 -0.00229376 0)
(0.399953 -0.00279076 0)
(0.399889 -0.00339804 0)
(0.399803 -0.00414022 0)
(0.39969 -0.00504681 0)
(0.399542 -0.00615385 0)
(0.399352 -0.00750569 0)
(0.399108 -0.00915701 0)
(0.398798 -0.0111752 0)
(0.398403 -0.0136433 0)
(0.397901 -0.0166633 0)
(0.397263 -0.0203607 0)
(0.396447 -0.0248901 0)
(0.3954 -0.0304433 0)
(0.394044 -0.0372589 0)
(0.392273 -0.045638 0)
(0.38994 -0.0559909 0)
(0.386785 -0.0686946 0)
(0.38272 -0.0852349 0)
(0.400001 -4.20958e-05 0)
(0.400004 -0.000131335 0)
(0.400011 -0.000231792 0)
(0.40002 -0.000346488 0)
(0.400026 -0.00047962 0)
(0.400027 -0.000634756 0)
(0.400021 -0.000813989 0)
(0.400006 -0.00101948 0)
(0.39998 -0.00125611 0)
(0.399941 -0.00153292 0)
(0.399886 -0.0018629 0)
(0.399813 -0.00226189 0)
(0.399715 -0.00274799 0)
(0.399588 -0.00334179 0)
(0.399425 -0.00406728 0)
(0.399217 -0.00495323 0)
(0.398955 -0.0060347 0)
(0.398625 -0.00735479 0)
(0.39821 -0.00896658 0)
(0.397691 -0.0109354 0)
(0.397042 -0.0133413 0)
(0.39623 -0.0162827 0)
(0.395212 -0.0198796 0)
(0.39393 -0.0242794 0)
(0.392312 -0.029663 0)
(0.390249 -0.0362537 0)
(0.38761 -0.0443286 0)
(0.384159 -0.054264 0)
(0.379677 -0.066385 0)
(0.373562 -0.0820672 0)
(0.400001 -4.31052e-05 0)
(0.400003 -0.000134049 0)
(0.400008 -0.000235035 0)
(0.400013 -0.000348628 0)
(0.400012 -0.00047911 0)
(0.400003 -0.000630377 0)
(0.399983 -0.000804633 0)
(0.399951 -0.001004 0)
(0.399903 -0.00123323 0)
(0.399837 -0.00150117 0)
(0.399748 -0.00182041 0)
(0.399633 -0.00220629 0)
(0.399485 -0.00267627 0)
(0.399297 -0.00325022 0)
(0.399059 -0.00395126 0)
(0.398761 -0.00480708 0)
(0.398387 -0.00585143 0)
(0.397921 -0.0071257 0)
(0.397341 -0.0086808 0)
(0.396621 -0.0105792 0)
(0.395727 -0.0128974 0)
(0.394615 -0.0157288 0)
(0.393232 -0.019187 0)
(0.391506 -0.0234098 0)
(0.389344 -0.0285651 0)
(0.386614 -0.0348573 0)
(0.383161 -0.0425342 0)
(0.378679 -0.0519285 0)
(0.37298 -0.0633065 0)
(0.365039 -0.0778665 0)
(0.400001 -4.39555e-05 0)
(0.400003 -0.00013618 0)
(0.400006 -0.000236915 0)
(0.400007 -0.000348181 0)
(0.400001 -0.000474459 0)
(0.399983 -0.00062014 0)
(0.39995 -0.00078752 0)
(0.399901 -0.000978583 0)
(0.399832 -0.00119792 0)
(0.399739 -0.00145408 0)
(0.399618 -0.00175916 0)
(0.399464 -0.00212779 0)
(0.399267 -0.00257663 0)
(0.39902 -0.00312459 0)
(0.398711 -0.00379369 0)
(0.398325 -0.00461028 0)
(0.397845 -0.0056064 0)
(0.397249 -0.00682134 0)
(0.396511 -0.00830332 0)
(0.395599 -0.0101114 0)
(0.39447 -0.0123176 0)
(0.393074 -0.0150095 0)
(0.391345 -0.0182929 0)
(0.389199 -0.0222951 0)
(0.386528 -0.0271686 0)
(0.383179 -0.0330964 0)
(0.378978 -0.0402935 0)
(0.373567 -0.0490421 0)
(0.366786 -0.0595464 0)
(0.357291 -0.0727765 0)
(0.400001 -4.47709e-05 0)
(0.400003 -0.000138063 0)
(0.400006 -0.000237746 0)
(0.400004 -0.000345406 0)
(0.399992 -0.000466049 0)
(0.399966 -0.000604532 0)
(0.399921 -0.000763135 0)
(0.399856 -0.000943733 0)
(0.399767 -0.00115074 0)
(0.399649 -0.00139233 0)
(0.399498 -0.00167995 0)
(0.399306 -0.00202738 0)
(0.399064 -0.00245029 0)
(0.398761 -0.00296645 0)
(0.398384 -0.00359655 0)
(0.397915 -0.00436528 0)
(0.397334 -0.00530269 0)
(0.396616 -0.00644556 0)
(0.395729 -0.00783894 0)
(0.394635 -0.00953789 0)
(0.393286 -0.0116094 0)
(0.391623 -0.0141343 0)
(0.389571 -0.0172099 0)
(0.387034 -0.0209516 0)
(0.383893 -0.0254958 0)
(0.379979 -0.0310019 0)
(0.375103 -0.0376509 0)
(0.368878 -0.0456708 0)
(0.361163 -0.0552049 0)
(0.350419 -0.0669643 0)
(0.400001 -4.57279e-05 0)
(0.400003 -0.000140149 0)
(0.400007 -0.000237941 0)
(0.400004 -0.000340647 0)
(0.399988 -0.000454242 0)
(0.399953 -0.000583942 0)
(0.399897 -0.000731997 0)
(0.399818 -0.000900106 0)
(0.39971 -0.00109249 0)
(0.399569 -0.00131689 0)
(0.399389 -0.00158394 0)
(0.399162 -0.00190642 0)
(0.398877 -0.00229881 0)
(0.398522 -0.00277757 0)
(0.398082 -0.00336185 0)
(0.397536 -0.00407448 0)
(0.396861 -0.00494322 0)
(0.396028 -0.00600197 0)
(0.395002 -0.00729222 0)
(0.39374 -0.00886456 0)
(0.392187 -0.0107803 0)
(0.390277 -0.0131132 0)
(0.387927 -0.015951 0)
(0.385032 -0.0193972 0)
(0.381464 -0.0235708 0)
(0.377043 -0.0286074 0)
(0.371572 -0.0346542 0)
(0.364651 -0.041885 0)
(0.356159 -0.0503886 0)
(0.344475 -0.0606074 0)
(0.400001 -4.70864e-05 0)
(0.400005 -0.000143057 0)
(0.400011 -0.000238186 0)
(0.400008 -0.000334413 0)
(0.399987 -0.000439356 0)
(0.399945 -0.000558689 0)
(0.39988 -0.000694445 0)
(0.399787 -0.000848151 0)
(0.399662 -0.00102387 0)
(0.3995 -0.00122878 0)
(0.399293 -0.00147261 0)
(0.399034 -0.00176696 0)
(0.39871 -0.00212495 0)
(0.398308 -0.00256156 0)
(0.397809 -0.00309416 0)
(0.397192 -0.0037435 0)
(0.396431 -0.00453474 0)
(0.395493 -0.00549859 0)
(0.39434 -0.00667259 0)
(0.392924 -0.00810239 0)
(0.391184 -0.00984319 0)
(0.389049 -0.0119611 0)
(0.386429 -0.0145344 0)
(0.383212 -0.0176538 0)
(0.379262 -0.0214215 0)
(0.374395 -0.0259495 0)
(0.368409 -0.0313531 0)
(0.360908 -0.0377558 0)
(0.351791 -0.0452027 0)
(0.339459 -0.0538794 0)
(0.400002 -4.92274e-05 0)
(0.400009 -0.000147572 0)
(0.400018 -0.00023898 0)
(0.400016 -0.000327057 0)
(0.399993 -0.000422046 0)
(0.399945 -0.000529772 0)
(0.39987 -0.000651486 0)
(0.399765 -0.000788628 0)
(0.399625 -0.0009452 0)
(0.399443 -0.00112778 0)
(0.399213 -0.0013451 0)
(0.398924 -0.00160747 0)
(0.398565 -0.0019266 0)
(0.39812 -0.0023158 0)
(0.397568 -0.00279056 0)
(0.396888 -0.0033693 0)
(0.396049 -0.0040744 0)
(0.395018 -0.00493313 0)
(0.393751 -0.00597876 0)
(0.392196 -0.00725171 0)
(0.390289 -0.00880072 0)
(0.387953 -0.010684 0)
(0.385092 -0.0129698 0)
(0.38159 -0.0157371 0)
(0.377305 -0.0190711 0)
(0.372052 -0.0230609 0)
(0.365629 -0.027794 0)
(0.357657 -0.0333491 0)
(0.348053 -0.039743 0)
(0.335326 -0.0469361 0)
(0.400003 -5.32362e-05 0)
(0.400015 -0.000154992 0)
(0.400031 -0.000240577 0)
(0.400032 -0.000318235 0)
(0.400005 -0.000402218 0)
(0.399952 -0.00049783 0)
(0.399869 -0.00060513 0)
(0.399754 -0.000725379 0)
(0.399601 -0.000862434 0)
(0.399402 -0.00102209 0)
(0.399151 -0.00121193 0)
(0.398837 -0.00144083 0)
(0.398447 -0.00171884 0)
(0.397963 -0.0020575 0)
(0.397366 -0.00247024 0)
(0.396629 -0.00297301 0)
(0.395723 -0.00358516 0)
(0.394608 -0.00433022 0)
(0.393241 -0.00523689 0)
(0.391565 -0.00633999 0)
(0.389512 -0.00768155 0)
(0.387 -0.00931155 0)
(0.383929 -0.0112887 0)
(0.380178 -0.0136803 0)
(0.375606 -0.016556 0)
(0.370026 -0.019983 0)
(0.363241 -0.0240256 0)
(0.354896 -0.0287259 0)
(0.344927 -0.0340932 0)
(0.332017 -0.039908 0)
(0.400005 -6.01345e-05 0)
(0.400026 -0.000167532 0)
(0.400052 -0.000244665 0)
(0.400056 -0.000308447 0)
(0.400027 -0.000377736 0)
(0.399968 -0.000456999 0)
(0.39988 -0.000545638 0)
(0.399756 -0.000644972 0)
(0.399591 -0.000758534 0)
(0.399377 -0.000891193 0)
(0.399108 -0.00104957 0)
(0.398773 -0.00124099 0)
(0.398356 -0.00147371 0)
(0.39784 -0.00175729 0)
(0.397204 -0.00210291 0)
(0.396419 -0.00252392 0)
(0.395455 -0.0030365 0)
(0.39427 -0.00366033 0)
(0.392818 -0.00441933 0)
(0.391039 -0.00534248 0)
(0.388862 -0.00646482 0)
(0.3862 -0.00782804 0)
(0.382951 -0.00948163 0)
(0.378991 -0.0114824 0)
(0.37418 -0.0138843 0)
(0.368337 -0.0167337 0)
(0.361269 -0.020079 0)
(0.352654 -0.0239312 0)
(0.342448 -0.0283229 0)
(0.329551 -0.0329005 0)
(0.400009 -7.17166e-05 0)
(0.400045 -0.000185633 0)
(0.400087 -0.00025538 0)
(0.400095 -0.000311088 0)
(0.400065 -0.000371004 0)
(0.400002 -0.000436973 0)
(0.399909 -0.000509166 0)
(0.399778 -0.000589797 0)
(0.399603 -0.000681858 0)
(0.399378 -0.000788543 0)
(0.399094 -0.000915405 0)
(0.39874 -0.00106843 0)
(0.398302 -0.00125419 0)
(0.397761 -0.00148027 0)
(0.397092 -0.00175554 0)
(0.39627 -0.00209058 0)
(0.395258 -0.00249817 0)
(0.394018 -0.00299387 0)
(0.392497 -0.00359662 0)
(0.390637 -0.00432928 0)
(0.388362 -0.00521968 0)
(0.385584 -0.00630066 0)
(0.382196 -0.00761405 0)
(0.378079 -0.00921053 0)
(0.373101 -0.0111273 0)
(0.367086 -0.0133884 0)
(0.359854 -0.0160345 0)
(0.3511 -0.0190481 0)
(0.340822 -0.0225202 0)
(0.328057 -0.0259762 0)
(0.400016 -9.67478e-05 0)
(0.400076 -0.000192638 0)
(0.400135 -0.000231269 0)
(0.400146 -0.000268346 0)
(0.400114 -0.000313081 0)
(0.400051 -0.000361111 0)
(0.399954 -0.000412389 0)
(0.399817 -0.000469877 0)
(0.399636 -0.000536686 0)
(0.399402 -0.000615991 0)
(0.399108 -0.00071044 0)
(0.398741 -0.000823857 0)
(0.398287 -0.000961157 0)
(0.397726 -0.00112793 0)
(0.397035 -0.00133063 0)
(0.396185 -0.00157706 0)
(0.395141 -0.00187666 0)
(0.393862 -0.0022409 0)
(0.392297 -0.00268367 0)
(0.390386 -0.00322162 0)
(0.388054 -0.0038755 0)
(0.385214 -0.00466829 0)
(0.381763 -0.00563373 0)
(0.377586 -0.00682396 0)
(0.372546 -0.00826495 0)
(0.366457 -0.00995459 0)
(0.359151 -0.0119224 0)
(0.350283 -0.0141256 0)
(0.340001 -0.0167223 0)
(0.326898 -0.0189796 0)
(0.400025 -0.000160992 0)
(0.400182 -0.000316771 0)
(0.400243 -0.000312081 0)
(0.40022 -0.000325831 0)
(0.400165 -0.000351937 0)
(0.400083 -0.000380252 0)
(0.399967 -0.00041204 0)
(0.399809 -0.00044827 0)
(0.399603 -0.000489817 0)
(0.399342 -0.00053438 0)
(0.399015 -0.000592784 0)
(0.398612 -0.000663751 0)
(0.398114 -0.000749808 0)
(0.397504 -0.000854565 0)
(0.396757 -0.000982291 0)
(0.395845 -0.00113807 0)
(0.394734 -0.00132809 0)
(0.393383 -0.0015599 0)
(0.391741 -0.00184278 0)
(0.389749 -0.00218802 0)
(0.387333 -0.00260923 0)
(0.384402 -0.00312245 0)
(0.380867 -0.00374644 0)
(0.37652 -0.00450354 0)
(0.371081 -0.00541279 0)
(0.364484 -0.0064875 0)
(0.356591 -0.0077422 0)
(0.346974 -0.00913251 0)
(0.336127 -0.0108635 0)
(0.3207 -0.011487 0)
(0.399646 -0.000110723 0)
(0.399351 -0.000187326 0)
(0.398891 -0.000204464 0)
(0.398348 -0.000215174 0)
(0.397777 -0.000227846 0)
(0.397179 -0.000240388 0)
(0.396545 -0.000252673 0)
(0.395865 -0.000265937 0)
(0.395133 -0.000281441 0)
(0.394341 -0.000300601 0)
(0.393479 -0.000322876 0)
(0.392531 -0.000348882 0)
(0.391479 -0.000380075 0)
(0.390299 -0.000417987 0)
(0.388964 -0.000464262 0)
(0.387439 -0.000520905 0)
(0.385681 -0.000590402 0)
(0.383639 -0.000675781 0)
(0.381249 -0.000780682 0)
(0.378432 -0.000909658 0)
(0.375094 -0.00106783 0)
(0.371118 -0.0012628 0)
(0.36637 -0.00149924 0)
(0.360705 -0.00177152 0)
(0.353957 -0.00208732 0)
(0.345903 -0.00246731 0)
(0.336292 -0.00292362 0)
(0.324856 -0.00340841 0)
(0.311644 -0.00416713 0)
(0.291116 -0.00362671 0)
(0.49206 -0.00844671 8.73161e-21)
(0.498901 -0.0130465 -1.40649e-17)
(0.505231 -0.0183361 1.41245e-17)
(0.510499 -0.02418 7.09654e-18)
(0.515174 -0.0304799 5.3567e-18)
(0.519542 -0.0372084 1.07943e-17)
(0.523688 -0.0443997 5.42324e-18)
(0.527672 -0.0521166 1.45904e-17)
(0.531565 -0.0604137 7.35832e-18)
(0.535415 -0.0693295 3.69454e-18)
(0.539239 -0.0788973 -3.73492e-18)
(0.543026 -0.0891556 7.50418e-18)
(0.546765 -0.100154 3.8075e-18)
(0.55045 -0.111957 3.82663e-18)
(0.554085 -0.124642 7.71003e-18)
(0.55768 -0.138309 3.90647e-18)
(0.561251 -0.153076 1.17408e-17)
(0.564818 -0.169088 0)
(0.568405 -0.186524 0)
(0.572038 -0.205603 3.95721e-18)
(0.575752 -0.2266 -2.8502e-20)
(0.579582 -0.249863 4.02429e-18)
(0.583591 -0.275816 0)
(0.587767 -0.305073 7.94037e-18)
(0.592411 -0.33815 3.92018e-18)
(0.596655 -0.376776 -3.96987e-18)
(0.603924 -0.419053 3.85027e-18)
(0.602581 -0.479431 3.7967e-18)
(0.626831 -0.514803 1.07237e-17)
(0.585011 -0.658427 -3.36909e-18)
(0.498104 -0.0185555 -7.07329e-18)
(0.502714 -0.0233123 8.00076e-18)
(0.506672 -0.0290074 -8.05704e-18)
(0.510037 -0.0351614 0)
(0.513227 -0.0416702 -7.28827e-18)
(0.516442 -0.0485842 -7.33234e-18)
(0.519687 -0.0559815 -1.84796e-18)
(0.522943 -0.0639123 -1.30566e-17)
(0.526201 -0.0723999 -7.51399e-18)
(0.529438 -0.0814644 -7.60225e-18)
(0.53262 -0.0911379 3.82189e-18)
(0.535717 -0.101467 -3.86776e-18)
(0.538712 -0.112513 -7.77441e-18)
(0.541602 -0.124345 -7.84267e-18)
(0.54439 -0.137049 -7.91151e-18)
(0.54708 -0.150724 -7.98029e-18)
(0.549673 -0.16549 -1.61455e-17)
(0.552169 -0.181492 4.05834e-18)
(0.55457 -0.198907 -4.116e-18)
(0.556872 -0.217952 -1.24178e-17)
(0.559074 -0.238897 3.68979e-20)
(0.561167 -0.262077 -4.62775e-20)
(0.563142 -0.287906 -5.33156e-20)
(0.564938 -0.316953 -1.26913e-17)
(0.566653 -0.349743 -8.45279e-18)
(0.567593 -0.387752 -4.10954e-18)
(0.569999 -0.429781 1.37808e-19)
(0.564713 -0.486661 -1.11976e-19)
(0.580832 -0.52583 -1.17515e-17)
(0.533492 -0.658084 0)
(0.495407 -0.0279835 0)
(0.498696 -0.0326979 0)
(0.501698 -0.0383754 0)
(0.504619 -0.0445653 -9.21388e-19)
(0.50758 -0.0511502 8.36854e-18)
(0.510574 -0.0581556 -1.87506e-18)
(0.513537 -0.0656233 1.8961e-18)
(0.516423 -0.0735776 7.63564e-18)
(0.519209 -0.0820429 -1.92671e-18)
(0.521881 -0.091058 9.72809e-18)
(0.524427 -0.100674 3.92741e-18)
(0.52684 -0.110947 -3.97762e-18)
(0.529118 -0.12194 4.00539e-18)
(0.531259 -0.133723 -4.0594e-18)
(0.533255 -0.146376 -8.21172e-18)
(0.535093 -0.159999 8.29801e-18)
(0.536759 -0.174708 8.33261e-18)
(0.538233 -0.190649 0)
(0.539493 -0.207993 0)
(0.540509 -0.226953 8.57008e-18)
(0.541244 -0.247789 0)
(0.541643 -0.270822 1.31479e-17)
(0.541637 -0.296448 4.42527e-18)
(0.541101 -0.325186 8.79204e-18)
(0.539986 -0.357574 1.32003e-17)
(0.53765 -0.39483 4.47613e-18)
(0.535538 -0.436324 0)
(0.52638 -0.490018 1.74101e-17)
(0.533634 -0.532351 0)
(0.482903 -0.652452 8.20911e-18)
(0.492405 -0.0376563 0)
(0.495143 -0.042569 0)
(0.497645 -0.0483499 0)
(0.500195 -0.0545923 -7.54626e-18)
(0.502753 -0.0612019 0)
(0.505225 -0.0682082 0)
(0.507575 -0.0756581 0)
(0.509803 -0.0835869 7.85229e-18)
(0.511912 -0.092029 0)
(0.513898 -0.101025 0)
(0.515751 -0.110621 0)
(0.517458 -0.120867 -8.20127e-18)
(0.519002 -0.131818 -8.29539e-18)
(0.520366 -0.143542 -4.178e-18)
(0.521526 -0.156122 -3.49045e-20)
(0.522458 -0.169655 -8.52439e-18)
(0.523132 -0.184257 1.73e-20)
(0.523514 -0.200069 1.31958e-17)
(0.523561 -0.217257 4.42366e-18)
(0.523217 -0.236023 -4.499e-18)
(0.52241 -0.256612 -4.52041e-18)
(0.521045 -0.279324 -4.52007e-18)
(0.518997 -0.304528 -4.60691e-18)
(0.516088 -0.332692 1.41086e-17)
(0.512138 -0.364331 0)
(0.506558 -0.400427 -1.42435e-17)
(0.500127 -0.44075 -4.79042e-18)
(0.487171 -0.491193 2.6504e-19)
(0.485987 -0.534418 -1.41425e-17)
(0.432701 -0.642264 6.09384e-19)
(0.48836 -0.0469309 0)
(0.490527 -0.0519067 7.55944e-18)
(0.492432 -0.0576723 -9.52955e-19)
(0.494454 -0.0638896 1.63831e-17)
(0.496487 -0.0704916 0)
(0.4984 -0.0775038 0)
(0.500172 -0.0849615 7.97369e-18)
(0.501819 -0.0928914 -8.03509e-18)
(0.50334 -0.101321 0)
(0.504715 -0.110286 0)
(0.505921 -0.11983 0)
(0.506937 -0.130003 8.41893e-18)
(0.507741 -0.140864 8.52299e-18)
(0.508309 -0.152483 -4.32114e-18)
(0.508612 -0.164941 1.31302e-17)
(0.508616 -0.178332 0)
(0.50828 -0.192767 9.03607e-18)
(0.507552 -0.208379 -1.36994e-17)
(0.506368 -0.225325 -4.63438e-18)
(0.504649 -0.243792 0)
(0.502291 -0.264007 0)
(0.499164 -0.286246 0)
(0.495092 -0.310841 0)
(0.489849 -0.338206 -4.90204e-18)
(0.483155 -0.368815 -5.03218e-18)
(0.474452 -0.403449 5.00738e-18)
(0.463985 -0.442149 5.15241e-18)
(0.447419 -0.489161 -1.01439e-17)
(0.438353 -0.531981 1.01992e-17)
(0.383679 -0.627871 -9.89091e-18)
(0.483359 -0.0558096 -7.64206e-18)
(0.484996 -0.060857 -7.22542e-18)
(0.486348 -0.066647 -1.46306e-18)
(0.487872 -0.0728783 -5.90869e-18)
(0.489413 -0.0794893 -1.45137e-21)
(0.490801 -0.0864969 -3.02797e-18)
(0.492016 -0.0939296 3.41179e-20)
(0.493082 -0.101813 -8.28906e-18)
(0.493993 -0.110178 -6.30162e-18)
(0.494721 -0.119063 8.50764e-18)
(0.495242 -0.128511 0)
(0.495534 -0.138573 1.09167e-17)
(0.495571 -0.149307 -1.10741e-17)
(0.495321 -0.160778 -8.99055e-18)
(0.494747 -0.173063 1.36638e-17)
(0.493803 -0.186249 -1.38804e-17)
(0.492435 -0.200442 -4.65629e-18)
(0.490576 -0.215764 -4.84192e-18)
(0.488142 -0.23236 -4.82243e-18)
(0.485033 -0.250402 1.47873e-17)
(0.481118 -0.270095 0)
(0.476234 -0.291683 5.05779e-18)
(0.470165 -0.31546 -1.03139e-17)
(0.462646 -0.341781 1.06128e-17)
(0.453316 -0.371062 5.35871e-18)
(0.441642 -0.403917 1.09578e-17)
(0.427445 -0.440533 0)
(0.407508 -0.483872 1.13559e-17)
(0.391342 -0.525083 0)
(0.336165 -0.609359 -1.1612e-17)
(0.477402 -0.0642108 7.79262e-18)
(0.478521 -0.0693086 3.95433e-18)
(0.479329 -0.0750975 -4.00415e-18)
(0.480346 -0.0813056 3.04267e-18)
(0.481379 -0.0878801 1.25445e-21)
(0.482224 -0.0948376 1.23704e-21)
(0.482867 -0.102206 -7.33705e-18)
(0.483336 -0.110012 2.10274e-18)
(0.483627 -0.118285 1.29325e-17)
(0.483706 -0.127062 -1.09258e-17)
(0.483544 -0.136384 2.21912e-18)
(0.483114 -0.146299 -1.12454e-17)
(0.482383 -0.156859 9.12532e-18)
(0.481312 -0.168127 9.26627e-18)
(0.479855 -0.180173 -4.67364e-18)
(0.477956 -0.193082 9.56646e-18)
(0.47555 -0.206948 0)
(0.472556 -0.221883 4.93252e-18)
(0.468875 -0.238018 5.06362e-18)
(0.464387 -0.255506 -1.02507e-17)
(0.458938 -0.274525 0)
(0.452339 -0.295286 -5.34024e-18)
(0.444342 -0.318041 2.80749e-20)
(0.434649 -0.343085 -1.10386e-17)
(0.422838 -0.370766 1.13947e-17)
(0.4084 -0.401551 -1.74027e-17)
(0.390836 -0.435681 0)
(0.367844 -0.475138 -1.19454e-17)
(0.345481 -0.513785 1.43956e-19)
(0.290588 -0.586953 1.25966e-17)
(0.470493 -0.0720218 3.99958e-18)
(0.471102 -0.0771476 -3.53277e-18)
(0.471378 -0.0829111 3.57956e-18)
(0.471891 -0.0890712 -8.30724e-18)
(0.472415 -0.0955839 -4.21755e-18)
(0.472722 -0.102465 -1.06611e-18)
(0.472796 -0.109742 4.33827e-18)
(0.472675 -0.117438 9.87848e-18)
(0.472348 -0.125582 4.4671e-18)
(0.47178 -0.134207 -2.26046e-18)
(0.470933 -0.143354 2.29846e-18)