/*--------------------------------*- C++ -*----------------------------------*\
  =========                 |
  \\      /  F ield         | OpenFOAM: The Open Source CFD Toolbox
   \\    /   O peration     | Website:  https://openfoam.org
    \\  /    A nd           | Version:  11
     \\/     M anipulation  |
\*---------------------------------------------------------------------------*/
FoamFile
{
    format      ascii;
    class       volVectorField;
    location    "7";
    object      U;
}
// * * * * * * * * * * * * * * * * * * * * * * * * * * * * * * * * * * * * * //

dimensions      [0 1 -1 0 0 0 0];

internalField   nonuniform List<vector> 
12600
(
(0.412113 0.000106615 0)
(0.411843 0.000181122 0)
(0.411431 0.000191621 0)
(0.41096 0.00019486 0)
(0.410493 0.000199185 0)
(0.410034 0.00020213 0)
(0.409577 0.000203622 0)
(0.409121 0.000204389 0)
(0.408669 0.000204647 0)
(0.408222 0.000204339 0)
(0.407782 0.000203408 0)
(0.407352 0.00020179 0)
(0.406933 0.000199416 0)
(0.406528 0.000196187 0)
(0.40614 0.000191951 0)
(0.405773 0.000186508 0)
(0.405431 0.000179442 0)
(0.405121 0.000170528 0)
(0.404849 0.00015957 0)
(0.404625 0.000146048 0)
(0.40446 0.000129544 0)
(0.404368 0.00011062 0)
(0.404367 8.42234e-05 0)
(0.404476 5.1233e-05 0)
(0.404723 7.18999e-06 0)
(0.405141 -4.5581e-05 0)
(0.405777 -0.000112327 0)
(0.406691 -0.000197084 0)
(0.408063 -0.000335672 0)
(0.408814 -0.00087269 0)
(0.412492 0.000153717 0)
(0.412639 0.00028062 0)
(0.412776 0.000262296 0)
(0.412827 0.000254798 0)
(0.412872 0.0002582 0)
(0.412923 0.000258979 0)
(0.412977 0.000256946 0)
(0.413033 0.000253589 0)
(0.413091 0.000249062 0)
(0.413155 0.00024329 0)
(0.413225 0.000236215 0)
(0.413304 0.000227675 0)
(0.413395 0.000217426 0)
(0.413498 0.000205162 0)
(0.413616 0.000190409 0)
(0.413755 0.000172147 0)
(0.413917 0.000149731 0)
(0.414108 0.000123472 0)
(0.414334 9.04609e-05 0)
(0.414604 4.97386e-05 0)
(0.414928 6.91729e-08 0)
(0.415318 -6.09373e-05 0)
(0.415789 -0.000135914 0)
(0.416359 -0.000228222 0)
(0.41705 -0.000341863 0)
(0.417882 -0.000484194 0)
(0.418924 -0.000660437 0)
(0.420063 -0.000913014 0)
(0.421756 -0.00118447 0)
(0.4222 -0.00213056 0)
(0.41248 8.35623e-05 0)
(0.412555 0.000149961 0)
(0.412648 0.000155053 0)
(0.412716 0.000157589 0)
(0.412768 0.000164233 0)
(0.41282 0.000167362 0)
(0.412874 0.000166182 0)
(0.41293 0.000162795 0)
(0.412988 0.000157335 0)
(0.413051 0.00014963 0)
(0.413121 0.000139706 0)
(0.4132 0.000127344 0)
(0.413289 0.000112186 0)
(0.413391 9.37645e-05 0)
(0.413509 7.16432e-05 0)
(0.413643 4.44939e-05 0)
(0.413799 1.14365e-05 0)
(0.413981 -3.09448e-05 0)
(0.414195 -8.39827e-05 0)
(0.414449 -0.000148062 0)
(0.414754 -0.000226655 0)
(0.41512 -0.00032322 0)
(0.415562 -0.000442071 0)
(0.416098 -0.000588324 0)
(0.416748 -0.000767814 0)
(0.417537 -0.000990827 0)
(0.418499 -0.00126319 0)
(0.419641 -0.00162312 0)
(0.421002 -0.00206558 0)
(0.422568 -0.00245547 0)
(0.412473 5.43012e-05 0)
(0.412523 0.000128869 0)
(0.412598 0.000155972 0)
(0.412662 0.000165954 0)
(0.412713 0.000174069 0)
(0.412762 0.000180926 0)
(0.412814 0.000179827 0)
(0.412869 0.000175864 0)
(0.412925 0.000168947 0)
(0.412987 0.000158708 0)
(0.413055 0.000144892 0)
(0.413131 0.000127348 0)
(0.413219 0.000105791 0)
(0.413318 7.96694e-05 0)
(0.413432 4.83729e-05 0)
(0.413563 1.12366e-05 0)
(0.413714 -3.3722e-05 0)
(0.41389 -8.9941e-05 0)
(0.414098 -0.000159362 0)
(0.414344 -0.000245746 0)
(0.414639 -0.000352308 0)
(0.414993 -0.000483365 0)
(0.415421 -0.000644412 0)
(0.415938 -0.000842454 0)
(0.416565 -0.00108595 0)
(0.417325 -0.00138657 0)
(0.418246 -0.0017559 0)
(0.419359 -0.00221209 0)
(0.420682 -0.00276604 0)
(0.422342 -0.00320476 0)
(0.412468 3.82141e-05 0)
(0.412503 9.76406e-05 0)
(0.412561 0.000122621 0)
(0.412619 0.000128628 0)
(0.412667 0.000131725 0)
(0.412715 0.000133425 0)
(0.412765 0.000131363 0)
(0.412818 0.000124796 0)
(0.412874 0.000113999 0)
(0.412934 9.93424e-05 0)
(0.413 8.10786e-05 0)
(0.413075 5.81825e-05 0)
(0.413159 3.07878e-05 0)
(0.413255 -1.79112e-06 0)
(0.413365 -4.14128e-05 0)
(0.413492 -8.8703e-05 0)
(0.413637 -0.000146482 0)
(0.413807 -0.000217131 0)
(0.414007 -0.000304605 0)
(0.414243 -0.000412895 0)
(0.414526 -0.000546372 0)
(0.414864 -0.000710663 0)
(0.415272 -0.000912631 0)
(0.415766 -0.00116071 0)
(0.416363 -0.00146517 0)
(0.417088 -0.00183898 0)
(0.417964 -0.00229695 0)
(0.419035 -0.00285095 0)
(0.420304 -0.00353336 0)
(0.421975 -0.00416965 0)
(0.412466 2.72422e-05 0)
(0.412491 7.30035e-05 0)
(0.412537 9.72673e-05 0)
(0.412589 0.000106263 0)
(0.412636 0.000111214 0)
(0.412682 0.000114778 0)
(0.41273 0.00011418 0)
(0.412782 0.000108292 0)
(0.412836 9.73811e-05 0)
(0.412894 8.15217e-05 0)
(0.412958 6.04851e-05 0)
(0.413031 3.40949e-05 0)
(0.413112 2.19023e-06 0)
(0.413204 -3.55644e-05 0)
(0.413309 -8.1081e-05 0)
(0.41343 -0.000136445 0)
(0.413569 -0.000204059 0)
(0.413731 -0.000287264 0)
(0.41392 -0.000390516 0)
(0.414144 -0.000518753 0)
(0.414411 -0.000677373 0)
(0.41473 -0.000872787 0)
(0.415115 -0.00111287 0)
(0.415579 -0.00140749 0)
(0.416141 -0.00176895 0)
(0.416823 -0.00221212 0)
(0.417648 -0.00275527 0)
(0.418663 -0.00341112 0)
(0.419867 -0.0042257 0)
(0.42149 -0.00504662 0)
(0.412464 1.95649e-05 0)
(0.412483 5.4171e-05 0)
(0.412521 7.54902e-05 0)
(0.412567 8.45736e-05 0)
(0.412612 8.83737e-05 0)
(0.412655 8.96862e-05 0)
(0.412701 8.68632e-05 0)
(0.41275 7.8557e-05 0)
(0.412802 6.45696e-05 0)
(0.412859 4.48916e-05 0)
(0.412921 1.94194e-05 0)
(0.41299 -1.2154e-05 0)
(0.413067 -5.02178e-05 0)
(0.413155 -9.53037e-05 0)
(0.413255 -0.000148551 0)
(0.413369 -0.000212858 0)
(0.4135 -0.000291415 0)
(0.413652 -0.00038805 0)
(0.41383 -0.00050753 0)
(0.414039 -0.000655291 0)
(0.414288 -0.000837577 0)
(0.414586 -0.00106193 0)
(0.414943 -0.00133756 0)
(0.415374 -0.00167582 0)
(0.415894 -0.0020908 0)
(0.416526 -0.00259941 0)
(0.417291 -0.00322299 0)
(0.418236 -0.00397893 0)
(0.419361 -0.00491702 0)
(0.420897 -0.00592929 0)
(0.412463 1.38264e-05 0)
(0.412479 3.90832e-05 0)
(0.41251 5.60898e-05 0)
(0.412551 6.39478e-05 0)
(0.412592 6.66764e-05 0)
(0.412634 6.66906e-05 0)
(0.412678 6.29783e-05 0)
(0.412725 5.3891e-05 0)
(0.412775 3.86811e-05 0)
(0.412829 1.71445e-05 0)
(0.412888 -1.08331e-05 0)
(0.412954 -4.54296e-05 0)
(0.413028 -8.70571e-05 0)
(0.413111 -0.000136659 0)
(0.413205 -0.000195693 0)
(0.413311 -0.000266958 0)
(0.413433 -0.000353987 0)
(0.413574 -0.000461174 0)
(0.413739 -0.000593891 0)
(0.413932 -0.000758352 0)
(0.41416 -0.000961647 0)
(0.414433 -0.00121214 0)
(0.414759 -0.00151998 0)
(0.415152 -0.00189774 0)
(0.415626 -0.00236116 0)
(0.416201 -0.00292944 0)
(0.416897 -0.0036271 0)
(0.41776 -0.00447726 0)
(0.418789 -0.00553257 0)
(0.420211 -0.0067257 0)
(0.412463 9.28686e-06 0)
(0.412475 2.66388e-05 0)
(0.412502 3.90014e-05 0)
(0.412538 4.49567e-05 0)
(0.412577 4.65123e-05 0)
(0.412616 4.52377e-05 0)
(0.412658 4.02501e-05 0)
(0.412703 2.97691e-05 0)
(0.412751 1.26964e-05 0)
(0.412802 -1.13636e-05 0)
(0.412859 -4.25655e-05 0)
(0.412921 -8.10812e-05 0)
(0.41299 -0.000127299 0)
(0.413068 -0.000182187 0)
(0.413155 -0.000247439 0)
(0.413253 -0.000325968 0)
(0.413365 -0.00042172 0)
(0.413494 -0.000539586 0)
(0.413644 -0.000685381 0)
(0.413818 -0.000865797 0)
(0.414025 -0.00108855 0)
(0.41427 -0.00136278 0)
(0.414562 -0.00169964 0)
(0.414913 -0.00211293 0)
(0.415335 -0.00262004 0)
(0.415846 -0.0032424 0)
(0.416465 -0.00400752 0)
(0.417234 -0.00494462 0)
(0.41815 -0.00610726 0)
(0.419433 -0.00747183 0)
(0.412462 5.57393e-06 0)
(0.412473 1.61325e-05 0)
(0.412496 2.38968e-05 0)
(0.412528 2.74756e-05 0)
(0.412564 2.75643e-05 0)
(0.412602 2.48899e-05 0)
(0.412642 1.85171e-05 0)
(0.412684 6.64422e-06 0)
(0.41273 -1.20546e-05 0)
(0.412779 -3.81623e-05 0)
(0.412832 -7.18797e-05 0)
(0.41289 -0.000113375 0)
(0.412954 -0.000163054 0)
(0.413026 -0.000221942 0)
(0.413106 -0.000291952 0)
(0.413195 -0.000376173 0)
(0.413297 -0.00047885 0)
(0.413413 -0.00060525 0)
(0.413546 -0.000761617 0)
(0.413701 -0.000955162 0)
(0.413883 -0.0011942 0)
(0.414098 -0.00148856 0)
(0.414354 -0.00185017 0)
(0.414659 -0.00229388 0)
(0.415025 -0.0028385 0)
(0.415467 -0.00350749 0)
(0.416001 -0.00433114 0)
(0.416664 -0.00534453 0)
(0.417454 -0.00660216 0)
(0.418572 -0.00812093 0)
(0.412462 2.39528e-06 0)
(0.412471 7.07981e-06 0)
(0.412492 1.0437e-05 0)
(0.412521 1.13578e-05 0)
(0.412554 9.76856e-06 0)
(0.412589 5.66571e-06 0)
(0.412627 -2.06452e-06 0)
(0.412668 -1.5266e-05 0)
(0.412711 -3.54454e-05 0)
(0.412757 -6.3373e-05 0)
(0.412807 -9.93319e-05 0)
(0.412861 -0.000143505 0)
(0.41292 -0.000196329 0)
(0.412985 -0.00025889 0)
(0.413057 -0.000333239 0)
(0.413137 -0.000422624 0)
(0.413227 -0.000531523 0)
(0.413329 -0.000665525 0)
(0.413446 -0.000831231 0)
(0.41358 -0.00103625 0)
(0.413736 -0.00128934 0)
(0.41392 -0.00160086 0)
(0.414136 -0.00198343 0)
(0.414392 -0.00245277 0)
(0.414698 -0.0030289 0)
(0.415066 -0.00373708 0)
(0.415507 -0.00460998 0)
(0.416055 -0.00568797 0)
(0.416705 -0.00702596 0)
(0.417634 -0.00867985 0)
(0.412462 -4.41549e-07 0)
(0.41247 -9.32148e-07 0)
(0.412489 -1.64247e-06 0)
(0.412515 -3.49217e-06 0)
(0.412546 -6.92998e-06 0)
(0.412579 -1.24906e-05 0)
(0.412615 -2.15369e-05 0)
(0.412653 -3.59993e-05 0)
(0.412694 -5.75219e-05 0)
(0.412737 -8.70236e-05 0)
(0.412783 -0.000124863 0)
(0.412833 -0.000171237 0)
(0.412887 -0.000226602 0)
(0.412945 -0.000292084 0)
(0.413009 -0.000369841 0)
(0.41308 -0.000463263 0)
(0.413158 -0.000577022 0)
(0.413245 -0.000716947 0)
(0.413344 -0.000889918 0)
(0.413456 -0.00110385 0)
(0.413585 -0.00136789 0)
(0.413735 -0.00169278 0)
(0.41391 -0.00209167 0)
(0.414116 -0.00258093 0)
(0.414358 -0.00318151 0)
(0.414647 -0.00392008 0)
(0.414991 -0.00483121 0)
(0.415415 -0.00595963 0)
(0.415913 -0.0073605 0)
(0.416634 -0.00912419 0)
(0.412462 -2.89999e-06 0)
(0.412469 -8.09603e-06 0)
(0.412486 -1.26887e-05 0)
(0.41251 -1.72848e-05 0)
(0.412539 -2.26039e-05 0)
(0.41257 -2.96199e-05 0)
(0.412604 -3.99329e-05 0)
(0.41264 -5.55576e-05 0)
(0.412679 -7.82398e-05 0)
(0.412719 -0.000109022 0)
(0.412761 -0.000148341 0)
(0.412807 -0.000196417 0)
(0.412855 -0.000253725 0)
(0.412907 -0.000321433 0)
(0.412962 -0.000401778 0)
(0.413023 -0.000498266 0)
(0.413088 -0.000615704 0)
(0.41316 -0.000760098 0)
(0.41324 -0.000938527 0)
(0.41333 -0.00115913 0)
(0.413431 -0.00143127 0)
(0.413546 -0.00176599 0)
(0.413679 -0.00217674 0)
(0.413831 -0.00268035 0)
(0.414008 -0.00329835 0)
(0.414216 -0.00405838 0)
(0.414458 -0.00499629 0)
(0.414752 -0.00615998 0)
(0.415089 -0.0076044 0)
(0.415583 -0.00944881 0)
(0.412462 -5.14538e-06 0)
(0.412468 -1.46215e-05 0)
(0.412484 -2.28506e-05 0)
(0.412506 -3.01676e-05 0)
(0.412533 -3.73899e-05 0)
(0.412563 -4.5819e-05 0)
(0.412595 -5.7306e-05 0)
(0.412629 -7.39595e-05 0)
(0.412665 -9.75891e-05 0)
(0.412702 -0.000129333 0)
(0.412741 -0.00016971 0)
(0.412782 -0.000218979 0)
(0.412825 -0.000277627 0)
(0.412869 -0.000346849 0)
(0.412916 -0.000428926 0)
(0.412966 -0.000527432 0)
(0.413019 -0.000647265 0)
(0.413075 -0.000794534 0)
(0.413136 -0.000976432 0)
(0.413203 -0.00120121 0)
(0.413275 -0.00147837 0)
(0.413356 -0.00181908 0)
(0.413444 -0.00223693 0)
(0.413543 -0.00274893 0)
(0.413653 -0.00337685 0)
(0.413777 -0.00414877 0)
(0.413915 -0.00510109 0)
(0.414074 -0.00628353 0)
(0.414246 -0.00775014 0)
(0.4145 -0.00964159 0)
(0.412461 -7.22713e-06 0)
(0.412468 -2.06974e-05 0)
(0.412482 -3.23557e-05 0)
(0.412503 -4.22879e-05 0)
(0.412529 -5.13754e-05 0)
(0.412557 -6.11682e-05 0)
(0.412588 -7.37192e-05 0)
(0.41262 -9.12274e-05 0)
(0.412653 -0.000115564 0)
(0.412688 -0.000147947 0)
(0.412723 -0.000188964 0)
(0.412759 -0.000238907 0)
(0.412796 -0.000298269 0)
(0.412833 -0.000368257 0)
(0.412872 -0.000451176 0)
(0.412911 -0.000550636 0)
(0.412951 -0.000671568 0)
(0.412992 -0.000820114 0)
(0.413033 -0.0010035 0)
(0.413076 -0.00123001 0)
(0.41312 -0.00150913 0)
(0.413165 -0.00185203 0)
(0.413209 -0.00227224 0)
(0.413254 -0.00278669 0)
(0.413297 -0.00341704 0)
(0.413336 -0.00419123 0)
(0.413369 -0.00514541 0)
(0.413393 -0.00632962 0)
(0.413397 -0.00779613 0)
(0.413405 -0.00969818 0)
(0.412461 -9.19422e-06 0)
(0.412467 -2.64462e-05 0)
(0.412481 -4.13756e-05 0)
(0.412502 -5.3823e-05 0)
(0.412526 -6.46948e-05 0)
(0.412553 -7.5746e-05 0)
(0.412582 -8.92165e-05 0)
(0.412612 -0.000107392 0)
(0.412643 -0.000132187 0)
(0.412675 -0.000164877 0)
(0.412706 -0.000206103 0)
(0.412738 -0.000256182 0)
(0.412769 -0.000315619 0)
(0.412799 -0.000385621 0)
(0.412829 -0.000468495 0)
(0.412857 -0.000567843 0)
(0.412884 -0.000688572 0)
(0.41291 -0.000836792 0)
(0.412932 -0.00101968 0)
(0.412952 -0.00124544 0)
(0.412966 -0.00152346 0)
(0.412976 -0.00186474 0)
(0.412977 -0.00228257 0)
(0.412967 -0.00279354 0)
(0.412943 -0.00341882 0)
(0.4129 -0.00418564 0)
(0.412829 -0.0051291 0)
(0.412719 -0.00629796 0)
(0.412556 -0.00774172 0)
(0.41232 -0.00961636 0)
(0.412461 -1.10982e-05 0)
(0.412467 -3.20113e-05 0)
(0.412481 -5.00896e-05 0)
(0.412501 -6.49178e-05 0)
(0.412524 -7.74382e-05 0)
(0.41255 -8.96196e-05 0)
(0.412578 -0.000103872 0)
(0.412606 -0.000122533 0)
(0.412635 -0.000147529 0)
(0.412664 -0.000180174 0)
(0.412692 -0.000221158 0)
(0.412719 -0.000270829 0)
(0.412744 -0.000329695 0)
(0.412767 -0.000398956 0)
(0.412788 -0.000480894 0)
(0.412806 -0.000579063 0)
(0.41282 -0.000698299 0)
(0.41283 -0.000844608 0)
(0.412834 -0.00102504 0)
(0.41283 -0.00124762 0)
(0.412816 -0.00152152 0)
(0.412791 -0.00185743 0)
(0.412749 -0.00226823 0)
(0.412687 -0.00276993 0)
(0.412597 -0.00338283 0)
(0.412472 -0.00413296 0)
(0.4123 -0.00505357 0)
(0.412061 -0.00619055 0)
(0.411738 -0.00758963 0)
(0.411267 -0.0093995 0)
(0.412461 -1.29949e-05 0)
(0.412467 -3.75414e-05 0)
(0.412481 -5.86879e-05 0)
(0.412501 -7.57507e-05 0)
(0.412524 -8.97506e-05 0)
(0.412549 -0.000102906 0)
(0.412575 -0.000117779 0)
(0.412602 -0.000136715 0)
(0.412629 -0.00016163 0)
(0.412655 -0.000193866 0)
(0.412679 -0.000234161 0)
(0.412702 -0.000282884 0)
(0.412721 -0.000340543 0)
(0.412738 -0.000408319 0)
(0.41275 -0.000488447 0)
(0.412758 -0.000584396 0)
(0.41276 -0.000700873 0)
(0.412754 -0.000843718 0)
(0.412739 -0.00101977 0)
(0.412713 -0.00123679 0)
(0.412672 -0.00150362 0)
(0.412612 -0.00183053 0)
(0.412528 -0.0022298 0)
(0.412415 -0.00271665 0)
(0.412263 -0.00331019 0)
(0.41206 -0.00403477 0)
(0.411792 -0.00492109 0)
(0.41143 -0.00601083 0)
(0.410956 -0.00734494 0)
(0.410269 -0.00905543 0)
(0.412461 -1.49491e-05 0)
(0.412468 -4.32109e-05 0)
(0.412482 -6.73858e-05 0)
(0.412502 -8.65028e-05 0)
(0.412525 -0.000101759 0)
(0.412549 -0.000115702 0)
(0.412574 -0.000131023 0)
(0.4126 -0.000150017 0)
(0.412625 -0.000174561 0)
(0.412648 -0.000206026 0)
(0.412669 -0.000245185 0)
(0.412688 -0.000292424 0)
(0.412702 -0.000348245 0)
(0.412712 -0.000413802 0)
(0.412716 -0.000491263 0)
(0.412714 -0.000583975 0)
(0.412703 -0.000696469 0)
(0.412683 -0.000834354 0)
(0.41265 -0.00100418 0)
(0.412602 -0.00121338 0)
(0.412534 -0.00147035 0)
(0.412441 -0.00178481 0)
(0.412318 -0.00216833 0)
(0.412156 -0.00263511 0)
(0.411944 -0.00320284 0)
(0.411667 -0.00389378 0)
(0.411309 -0.00473552 0)
(0.410834 -0.00576444 0)
(0.410223 -0.00701593 0)
(0.409345 -0.00859754 0)
(0.412462 -1.70437e-05 0)
(0.412468 -4.92344e-05 0)
(0.412483 -7.64263e-05 0)
(0.412504 -9.7363e-05 0)
(0.412528 -0.000113602 0)
(0.412552 -0.000128131 0)
(0.412576 -0.000143712 0)
(0.4126 -0.000162523 0)
(0.412623 -0.000186391 0)
(0.412644 -0.000216721 0)
(0.412662 -0.000254315 0)
(0.412676 -0.00029956 0)
(0.412686 -0.000352943 0)
(0.412689 -0.000415578 0)
(0.412685 -0.00048954 0)
(0.412673 -0.000578017 0)
(0.412651 -0.000685315 0)
(0.412617 -0.000816756 0)
(0.412567 -0.000978537 0)
(0.412498 -0.00117766 0)
(0.412405 -0.00142202 0)
(0.412281 -0.00172069 0)
(0.41212 -0.00208439 0)
(0.411912 -0.00252615 0)
(0.411644 -0.00306204 0)
(0.411299 -0.00371195 0)
(0.410858 -0.00450002 0)
(0.410282 -0.00545662 0)
(0.409549 -0.00661117 0)
(0.408511 -0.00804128 0)
(0.412462 -1.93908e-05 0)
(0.412469 -5.58919e-05 0)
(0.412486 -8.60999e-05 0)
(0.412509 -0.00010853 0)
(0.412533 -0.000125419 0)
(0.412556 -0.000140317 0)
(0.41258 -0.000155962 0)
(0.412603 -0.00017433 0)
(0.412625 -0.000197201 0)
(0.412644 -0.000226021 0)
(0.412659 -0.000261612 0)
(0.412669 -0.000304359 0)
(0.412673 -0.000354737 0)
(0.41267 -0.00041382 0)
(0.412659 -0.000483571 0)
(0.412638 -0.000566982 0)
(0.412605 -0.000668087 0)
(0.412558 -0.000791859 0)
(0.412492 -0.000944079 0)
(0.412403 -0.00113125 0)
(0.412286 -0.00136068 0)
(0.412133 -0.00164069 0)
(0.411937 -0.00198109 0)
(0.411686 -0.0023936 0)
(0.411366 -0.00289254 0)
(0.410959 -0.00349524 0)
(0.410444 -0.00422223 0)
(0.409779 -0.00509762 0)
(0.408941 -0.00614492 0)
(0.407778 -0.00740927 0)
(0.412462 -2.2152e-05 0)
(0.412471 -6.35673e-05 0)
(0.41249 -9.67533e-05 0)
(0.412515 -0.000120195 0)
(0.41254 -0.000137328 0)
(0.412564 -0.000152377 0)
(0.412587 -0.000167891 0)
(0.412609 -0.00018557 0)
(0.41263 -0.000207158 0)
(0.412647 -0.000234125 0)
(0.412659 -0.000267269 0)
(0.412666 -0.000306954 0)
(0.412665 -0.000353633 0)
(0.412657 -0.000408339 0)
(0.412639 -0.000472912 0)
(0.412609 -0.00055012 0)
(0.412566 -0.000643697 0)
(0.412506 -0.000758224 0)
(0.412425 -0.000899013 0)
(0.412318 -0.00107202 0)
(0.412179 -0.00128389 0)
(0.411999 -0.00154217 0)
(0.411771 -0.00185564 0)
(0.411481 -0.00223469 0)
(0.411114 -0.00269178 0)
(0.410652 -0.00324169 0)
(0.41007 -0.00390138 0)
(0.409329 -0.00468894 0)
(0.408405 -0.00562263 0)
(0.40715 -0.00671578 0)
(0.412463 -2.5575e-05 0)
(0.412474 -7.27959e-05 0)
(0.412497 -0.000108794 0)
(0.412525 -0.000132568 0)
(0.412551 -0.000149479 0)
(0.412575 -0.000164406 0)
(0.412598 -0.000179488 0)
(0.41262 -0.000196172 0)
(0.412639 -0.00021625 0)
(0.412654 -0.000241218 0)
(0.412664 -0.000271813 0)
(0.412667 -0.000308351 0)
(0.412663 -0.000351274 0)
(0.412649 -0.000401527 0)
(0.412625 -0.000460786 0)
(0.412587 -0.000531565 0)
(0.412535 -0.000617229 0)
(0.412463 -0.000721917 0)
(0.412369 -0.000850416 0)
(0.412245 -0.00100806 0)
(0.412086 -0.0012008 0)
(0.411882 -0.00143536 0)
(0.411624 -0.00171942 0)
(0.411299 -0.00206199 0)
(0.410891 -0.0024737 0)
(0.41038 -0.00296676 0)
(0.409741 -0.00355478 0)
(0.408937 -0.00425041 0)
(0.407943 -0.00506806 0)
(0.406628 -0.00599271 0)
(0.412463 -3.00718e-05 0)
(0.412478 -8.43195e-05 0)
(0.412507 -0.000122597 0)
(0.412539 -0.00014584 0)
(0.412567 -0.000162249 0)
(0.412591 -0.000176874 0)
(0.412613 -0.000191046 0)
(0.412635 -0.000206005 0)
(0.412653 -0.000223679 0)
(0.412666 -0.0002456 0)
(0.412674 -0.000272444 0)
(0.412674 -0.000304506 0)
(0.412666 -0.000342234 0)
(0.412648 -0.000386507 0)
(0.412617 -0.000438844 0)
(0.412573 -0.000501517 0)
(0.412512 -0.000577508 0)
(0.412431 -0.000670483 0)
(0.412324 -0.000784659 0)
(0.412185 -0.000924691 0)
(0.412008 -0.00109578 0)
(0.411783 -0.0013038 0)
(0.411499 -0.00155535 0)
(0.411143 -0.00185802 0)
(0.410698 -0.00222065 0)
(0.410145 -0.00265306 0)
(0.409459 -0.00316597 0)
(0.408603 -0.00376731 0)
(0.407553 -0.00446977 0)
(0.406203 -0.00523652 0)
(0.412465 -3.63942e-05 0)
(0.412485 -9.92864e-05 0)
(0.412522 -0.0001383 0)
(0.412559 -0.000159513 0)
(0.412588 -0.000175362 0)
(0.412612 -0.000190376 0)
(0.412635 -0.000204577 0)
(0.412657 -0.000218993 0)
(0.412674 -0.00023561 0)
(0.412686 -0.00025584 0)
(0.412692 -0.000280221 0)
(0.41269 -0.000309026 0)
(0.412678 -0.000342685 0)
(0.412656 -0.000381993 0)
(0.41262 -0.000428268 0)
(0.41257 -0.000483457 0)
(0.412502 -0.000550128 0)
(0.412411 -0.000631443 0)
(0.412293 -0.00073104 0)
(0.412142 -0.000852895 0)
(0.411949 -0.00100145 0)
(0.411705 -0.00118171 0)
(0.411399 -0.0013992 0)
(0.411016 -0.00166015 0)
(0.410541 -0.00197155 0)
(0.409952 -0.00234077 0)
(0.409226 -0.00277605 0)
(0.408329 -0.00328147 0)
(0.407236 -0.00387105 0)
(0.405868 -0.00449445 0)
(0.412467 -4.58841e-05 0)
(0.412497 -0.000119802 0)
(0.412545 -0.000157222 0)
(0.412587 -0.00017346 0)
(0.412616 -0.000185554 0)
(0.41264 -0.000197251 0)
(0.412664 -0.000207909 0)
(0.412685 -0.000218619 0)
(0.412702 -0.000231278 0)
(0.412713 -0.000247094 0)
(0.412717 -0.000266441 0)
(0.412713 -0.000289562 0)
(0.412698 -0.00031686 0)
(0.412672 -0.000349056 0)
(0.412633 -0.000387298 0)
(0.412577 -0.000433206 0)
(0.412502 -0.000488882 0)
(0.412404 -0.000556933 0)
(0.412278 -0.000640299 0)
(0.412115 -0.000742129 0)
(0.411909 -0.000866176 0)
(0.411649 -0.00101658 0)
(0.411324 -0.00119764 0)
(0.41092 -0.00141439 0)
(0.410419 -0.00167254 0)
(0.409802 -0.00197709 0)
(0.409045 -0.00233399 0)
(0.408114 -0.00274267 0)
(0.406988 -0.00322461 0)
(0.405599 -0.0037182 0)
(0.412471 -6.03535e-05 0)
(0.412517 -0.000146627 0)
(0.412581 -0.000183546 0)
(0.412629 -0.000201349 0)
(0.412659 -0.000216736 0)
(0.412684 -0.000229986 0)
(0.412708 -0.000240647 0)
(0.412729 -0.000250807 0)
(0.412746 -0.000262386 0)
(0.412756 -0.000276147 0)
(0.412758 -0.000292406 0)
(0.412752 -0.000311458 0)
(0.412735 -0.000333722 0)
(0.412706 -0.000359819 0)
(0.412663 -0.000390684 0)
(0.412603 -0.000427607 0)
(0.412523 -0.000472211 0)
(0.412419 -0.000526631 0)
(0.412284 -0.000593354 0)
(0.412113 -0.000674604 0)
(0.411897 -0.000773235 0)
(0.411624 -0.000892838 0)
(0.411284 -0.00103659 0)
(0.410863 -0.00120779 0)
(0.410342 -0.00141043 0)
(0.409703 -0.00164766 0)
(0.408923 -0.00192377 0)
(0.407966 -0.00223196 0)
(0.406817 -0.00260394 0)
(0.405388 -0.00298262 0)
(0.412479 -8.7933e-05 0)
(0.412549 -0.000162912 0)
(0.41263 -0.000176232 0)
(0.412681 -0.00018426 0)
(0.412712 -0.00019517 0)
(0.412739 -0.00020475 0)
(0.412764 -0.000212356 0)
(0.412786 -0.000219736 0)
(0.412802 -0.000227868 0)
(0.412812 -0.000237919 0)
(0.412814 -0.000249738 0)
(0.412806 -0.000263656 0)
(0.412788 -0.000280029 0)
(0.412757 -0.000299397 0)
(0.412711 -0.00032251 0)
(0.412648 -0.000350333 0)
(0.412564 -0.000384055 0)
(0.412455 -0.000424946 0)
(0.412315 -0.000474495 0)
(0.412137 -0.000534818 0)
(0.411912 -0.000607941 0)
(0.411629 -0.000695747 0)
(0.411278 -0.000800945 0)
(0.410843 -0.00092655 0)
(0.410309 -0.0010752 0)
(0.409654 -0.00124776 0)
(0.40886 -0.00144573 0)
(0.407881 -0.00165297 0)
(0.406721 -0.00190546 0)
(0.405156 -0.00206925 0)
(0.41249 -0.000156575 0)
(0.412638 -0.000290492 0)
(0.412753 -0.000274777 0)
(0.412786 -0.00027082 0)
(0.412809 -0.000276445 0)
(0.412834 -0.000281625 0)
(0.412857 -0.000285188 0)
(0.412873 -0.000288856 0)
(0.412882 -0.000293367 0)
(0.412883 -0.000298743 0)
(0.412876 -0.000305113 0)
(0.41286 -0.00031273 0)
(0.412832 -0.00032193 0)
(0.41279 -0.000333181 0)
(0.412732 -0.000347061 0)
(0.412655 -0.000363925 0)
(0.412554 -0.000384276 0)
(0.412425 -0.000409617 0)
(0.412261 -0.000441385 0)
(0.412055 -0.00047808 0)
(0.411799 -0.000522507 0)
(0.411481 -0.000577829 0)
(0.411089 -0.000643484 0)
(0.41061 -0.000720666 0)
(0.410027 -0.000811088 0)
(0.409321 -0.000915758 0)
(0.408473 -0.00103544 0)
(0.407447 -0.00114643 0)
(0.406217 -0.00129342 0)
(0.403912 -0.000919861 0)
(0.412111 -0.000108088 0)
(0.411833 -0.000183244 0)
(0.411408 -0.000195384 0)
(0.41092 -0.000200048 0)
(0.410429 -0.000205865 0)
(0.409943 -0.000210167 0)
(0.409453 -0.000213285 0)
(0.408956 -0.00021618 0)
(0.408453 -0.000219152 0)
(0.407942 -0.000222325 0)
(0.407422 -0.000225799 0)
(0.406893 -0.000229686 0)
(0.406351 -0.000234059 0)
(0.405796 -0.000238988 0)
(0.405223 -0.000244586 0)
(0.40463 -0.000251082 0)
(0.404012 -0.000258799 0)
(0.403363 -0.000267825 0)
(0.402678 -0.000278323 0)
(0.401947 -0.000291387 0)
(0.401162 -0.000307359 0)
(0.400312 -0.000326188 0)
(0.399381 -0.000348762 0)
(0.398357 -0.000376345 0)
(0.39722 -0.000409545 0)
(0.395954 -0.000446483 0)
(0.394539 -0.000491675 0)
(0.392976 -0.000510645 0)
(0.391318 -0.000617424 0)
(0.388085 -1.90586e-05 0)
(0.414583 -0.00186311 -1.52802e-18)
(0.419855 -0.00249625 -1.17802e-20)
(0.423626 -0.00293624 1.57471e-18)
(0.425561 -0.00352237 3.15899e-18)
(0.426637 -0.00429628 1.61004e-18)
(0.427389 -0.00523215 -1.59746e-18)
(0.427996 -0.00630769 1.62578e-18)
(0.428532 -0.00751925 0)
(0.429048 -0.0088658 1.64511e-18)
(0.429568 -0.0103456 -8.26114e-21)
(0.430093 -0.0119631 1.15533e-19)
(0.430619 -0.0137327 0)
(0.431142 -0.0156769 -1.93548e-18)
(0.431667 -0.0178255 0)
(0.432199 -0.020216 0)
(0.432746 -0.0228966 -2.11569e-18)
(0.433315 -0.0259304 -2.02398e-18)
(0.433916 -0.0294011 -8.30252e-22)
(0.43456 -0.0334212 1.99953e-18)
(0.43526 -0.0381443 2.95627e-19)
(0.436033 -0.0437822 -2.72436e-18)
(0.436899 -0.0506498 3.12685e-19)
(0.437887 -0.0591391 -1.61483e-19)
(0.439013 -0.0701539 2.43106e-18)
(0.440393 -0.0838858 3.31143e-19)
(0.441843 -0.104979 -1.68233e-19)
(0.444243 -0.127561 0)
(0.445805 -0.181692 -2.12479e-18)
(0.45228 -0.217148 -2.14517e-18)
(0.454101 -0.405705 0)
(0.42386 -0.00248609 1.53252e-18)
(0.425517 -0.00279859 -3.61494e-20)
(0.426444 -0.00341513 3.01568e-20)
(0.42653 -0.00425484 -1.59913e-18)
(0.426649 -0.00523673 -5.10914e-20)
(0.426941 -0.00632455 1.7233e-18)
(0.427349 -0.00751485 1.60774e-18)
(0.427805 -0.00881258 2.18841e-19)
(0.428279 -0.0102213 -1.12246e-19)
(0.428757 -0.0117481 1.83234e-18)
(0.429226 -0.0134085 2.00713e-18)
(0.429682 -0.0152243 1.8189e-18)
(0.430125 -0.0172217 2.1173e-18)
(0.430562 -0.0194315 1.92212e-18)
(0.430995 -0.0218925 2.10999e-18)
(0.431429 -0.024655 4.46284e-18)
(0.431866 -0.0277848 2.10107e-18)
(0.432309 -0.0313688 -2.45499e-18)
(0.432759 -0.0355232 2.53495e-18)
(0.433219 -0.0404059 -1.52475e-19)
(0.433686 -0.0462353 1.58397e-19)
(0.434159 -0.0533256 2.62832e-18)
(0.434617 -0.0621044 0)
(0.435051 -0.0733745 -1.70746e-19)
(0.435386 -0.087667 3.03578e-18)
(0.43547 -0.108676 0)
(0.435502 -0.132774 2.92469e-18)
(0.433646 -0.18499 -2.53391e-18)
(0.433539 -0.223473 -3.88561e-20)
(0.425416 -0.404155 3.83622e-19)
(0.423541 -0.00275423 -1.19633e-20)
(0.424215 -0.00329849 -1.21163e-20)
(0.424757 -0.00425431 -1.5665e-18)
(0.425155 -0.00533077 -5.08135e-20)
(0.425579 -0.00642065 5.21029e-20)
(0.426095 -0.00754116 -5.31132e-20)
(0.426612 -0.00873168 -1.68402e-18)
(0.427083 -0.0100172 0)
(0.427509 -0.0114136 0)
(0.427909 -0.0129362 0)
(0.428288 -0.014603 -1.9193e-18)
(0.428651 -0.016434 -1.09803e-19)
(0.428999 -0.0184533 -1.77257e-18)
(0.429333 -0.0206913 -2.08596e-18)
(0.429653 -0.0231878 -2.28287e-18)
(0.429956 -0.0259945 -2.21395e-18)
(0.43024 -0.029179 1.67149e-19)
(0.4305 -0.0328298 2.20965e-18)
(0.430731 -0.0370648 -2.28342e-18)
(0.43092 -0.042044 -1.58795e-19)
(0.431048 -0.0479884 0)
(0.431087 -0.0552101 -5.60218e-18)
(0.430979 -0.0641589 1.76106e-19)
(0.430648 -0.0755488 -2.93767e-18)
(0.429941 -0.090216 9.03881e-20)
(0.428504 -0.110869 0)
(0.426322 -0.136419 -6.28036e-18)
(0.420823 -0.185722 5.78528e-18)
(0.414526 -0.228611 -3.07628e-18)
(0.395584 -0.398848 -4.47754e-19)
(0.423478 -0.0040098 0)
(0.424009 -0.00475455 -1.61318e-18)
(0.424485 -0.00569035 7.26911e-23)
(0.424876 -0.00665963 2.59075e-20)
(0.425244 -0.00764665 0)
(0.425617 -0.00870856 0)
(0.425975 -0.00988269 -1.77967e-18)
(0.426307 -0.0111769 0)
(0.426623 -0.0125934 1.16477e-19)
(0.42693 -0.0141408 -2.39498e-19)
(0.427225 -0.0158339 3.27054e-22)
(0.427501 -0.0176924 -1.89093e-18)
(0.427755 -0.0197416 1.30133e-19)
(0.427982 -0.0220142 2.02413e-18)
(0.428178 -0.0245519 1.38349e-19)
(0.428339 -0.027408 2.15826e-18)
(0.428456 -0.030651 -2.35333e-18)
(0.428518 -0.0343709 -2.46498e-18)
(0.428509 -0.0386869 0)
(0.428405 -0.0437603 2.48806e-18)
(0.428165 -0.0498133 1.70924e-19)
(0.427736 -0.0571579 2.98633e-18)
(0.427019 -0.0662461 -1.84506e-19)
(0.425882 -0.0777584 3.01996e-18)
(0.424044 -0.0926431 -3.12233e-18)
(0.421086 -0.113075 0)
(0.416443 -0.139462 3.37962e-18)
(0.407528 -0.186187 -3.20335e-18)
(0.394618 -0.232114 3.14405e-18)
(0.365788 -0.390594 7.21564e-20)
(0.423105 -0.0051047 0)
(0.423483 -0.00581881 1.60787e-18)
(0.423803 -0.0066826 0)
(0.424114 -0.00762862 0)
(0.424425 -0.00864777 0)
(0.424738 -0.00976091 0)
(0.42504 -0.0109791 1.80494e-18)
(0.425324 -0.0123029 5.79547e-20)
(0.425587 -0.0137379 -5.9642e-20)
(0.425826 -0.0152989 0)
(0.426039 -0.0170056 0)
(0.42622 -0.0188807 1.2957e-19)
(0.426365 -0.0209513 -2.5651e-22)
(0.42647 -0.0232507 -2.33512e-18)
(0.42653 -0.0258211 0)
(0.426532 -0.028716 -2.34576e-18)
(0.426465 -0.0320047 0)
(0.426309 -0.0357776 2.67471e-18)
(0.426037 -0.0401544 -3.28777e-19)
(0.425611 -0.0452964 -2.54207e-18)
(0.424972 -0.0514249 1.43767e-18)
(0.424037 -0.0588492 0)
(0.422667 -0.0680169 0)
(0.420671 -0.0795831 0)
(0.417651 -0.0945371 1.71951e-18)
(0.413106 -0.114697 -1.79824e-18)
(0.40593 -0.141453 0)
(0.393676 -0.185588 -1.8993e-18)
(0.374054 -0.233691 -1.9898e-18)
(0.335634 -0.379446 1.32722e-18)
(0.422572 -0.00609877 7.89509e-19)
(0.422859 -0.00684517 8.32952e-19)
(0.423093 -0.00772673 8.65688e-19)
(0.423354 -0.00869337 8.06039e-19)
(0.423622 -0.00973214 9.62941e-19)
(0.423873 -0.0108531 8.46624e-19)
(0.424098 -0.0120689 9.26592e-19)
(0.424298 -0.0133891 -9.51697e-19)
(0.424471 -0.0148255 6.08576e-20)
(0.424615 -0.0163939 8.8145e-19)
(0.424726 -0.0181129 1.03717e-18)
(0.4248 -0.0200042 1.00306e-18)
(0.424828 -0.022094 1.37397e-19)
(0.424804 -0.0244157 -1.14135e-18)
(0.424715 -0.0270117 1.46741e-19)
(0.424547 -0.0299359 -3.042e-19)
(0.42428 -0.033258 -1.11344e-18)
(0.423887 -0.0370682 -1.32193e-18)
(0.423331 -0.041486 0)
(0.422559 -0.0466709 -1.78079e-19)
(0.421492 -0.0528417 2.93049e-20)
(0.420019 -0.0603019 1.94461e-19)
(0.417959 -0.0694892 1.45011e-18)
(0.415061 -0.0810353 3.21601e-19)
(0.410817 -0.095921 -4.98177e-20)
(0.404637 -0.115731 1.98155e-18)
(0.394893 -0.142402 -1.24734e-19)
(0.379386 -0.183954 1.98754e-18)
(0.353043 -0.233169 2.21352e-18)
(0.305949 -0.365403 -1.54044e-18)
(0.421912 -0.00706249 -8.11604e-19)
(0.422124 -0.00782106 -8.17262e-19)
(0.422279 -0.0087013 -8.63522e-19)
(0.422474 -0.0096651 3.23627e-20)
(0.422677 -0.010705 -1.76267e-18)
(0.422854 -0.01183 -9.15556e-19)
(0.422999 -0.0130522 -2.00435e-18)
(0.423117 -0.0143813 1.13746e-19)
(0.423205 -0.0158282 -6.23644e-20)
(0.423259 -0.0174071 -2.05433e-18)
(0.423272 -0.0191361 9.86368e-21)
(0.423235 -0.0210373 -1.01931e-18)
(0.42314 -0.0231378 1.065e-18)
(0.422976 -0.0254715 -1.3355e-20)
(0.422727 -0.0280813 1.51394e-19)
(0.422374 -0.031021 -1.571e-19)
(0.421892 -0.0343597 1.29769e-18)
(0.421245 -0.0381867 1.35069e-18)
(0.420385 -0.0426195 1.77721e-19)
(0.419244 -0.047815 1.12833e-18)