/*--------------------------------*- C++ -*----------------------------------*\
  =========                 |
  \\      /  F ield         | OpenFOAM: The Open Source CFD Toolbox
   \\    /   O peration     | Website:  https://openfoam.org
    \\  /    A nd           | Version:  11
     \\/     M anipulation  |
\*---------------------------------------------------------------------------*/
FoamFile
{
    format      ascii;
    class       volVectorField;
    location    "7";
    object      U;
}
// * * * * * * * * * * * * * * * * * * * * * * * * * * * * * * * * * * * * * //

dimensions      [0 1 -1 0 0 0 0];

internalField   nonuniform List<vector> 
12600
(
(0.412281 6.57409e-05 0)
(0.412161 0.000126071 0)
(0.41195 0.000147394 0)
(0.411689 0.000154498 0)
(0.411426 0.000157832 0)
(0.411171 0.000157038 0)
(0.410925 0.000151795 0)
(0.410697 0.000142566 0)
(0.410495 0.00013093 0)
(0.410329 0.000117758 0)
(0.410208 0.00010233 0)
(0.410142 7.78907e-05 0)
(0.410144 3.94671e-05 0)
(0.410231 -7.08134e-06 0)
(0.410413 -4.7832e-05 0)
(0.410704 -8.67457e-05 0)
(0.411119 -0.000131159 0)
(0.411672 -0.000179755 0)
(0.412385 -0.000239844 0)
(0.413293 -0.000319774 0)
(0.414438 -0.000419358 0)
(0.41586 -0.000538184 0)
(0.417609 -0.000679282 0)
(0.419744 -0.000846827 0)
(0.422336 -0.00104531 0)
(0.425466 -0.00127551 0)
(0.429221 -0.00155198 0)
(0.433682 -0.00182071 0)
(0.438991 -0.00230506 0)
(0.445838 -0.00203712 0)
(0.41248 9.02565e-05 0)
(0.412556 0.000205343 0)
(0.412646 0.000207664 0)
(0.412675 0.000210008 0)
(0.412695 0.000211419 0)
(0.412718 0.000208786 0)
(0.412746 0.000196799 0)
(0.412781 0.000173676 0)
(0.412831 0.000140351 0)
(0.412903 9.62633e-05 0)
(0.413007 4.05853e-05 0)
(0.413154 -2.57452e-05 0)
(0.413351 -0.000100801 0)
(0.413607 -0.000188494 0)
(0.413938 -0.000295369 0)
(0.414362 -0.000424889 0)
(0.4149 -0.000578115 0)
(0.415592 -0.000757129 0)
(0.416491 -0.000963572 0)
(0.41756 -0.0012007 0)
(0.418823 -0.00147649 0)
(0.420321 -0.00180158 0)
(0.422096 -0.00218675 0)
(0.4242 -0.00264306 0)
(0.426697 -0.00318268 0)
(0.42966 -0.00381336 0)
(0.433179 -0.0045575 0)
(0.437346 -0.00535653 0)
(0.442296 -0.00649476 0)
(0.447946 -0.00665087 0)
(0.412468 4.69108e-05 0)
(0.412503 0.000101285 0)
(0.412552 0.00012196 0)
(0.412587 0.000134527 0)
(0.412608 0.000140763 0)
(0.412627 0.00013896 0)
(0.412649 0.000124118 0)
(0.412676 9.49854e-05 0)
(0.412717 5.13321e-05 0)
(0.412781 -8.99177e-06 0)
(0.41288 -8.62634e-05 0)
(0.413023 -0.000183237 0)
(0.413222 -0.000304017 0)
(0.413492 -0.00045033 0)
(0.413844 -0.000623285 0)
(0.414294 -0.000827139 0)
(0.414854 -0.00107112 0)
(0.415533 -0.00136242 0)
(0.416349 -0.00169528 0)
(0.417332 -0.00206804 0)
(0.418515 -0.0024981 0)
(0.419929 -0.0030058 0)
(0.421614 -0.00360808 0)
(0.423621 -0.00432285 0)
(0.426011 -0.00517105 0)
(0.428865 -0.00617112 0)
(0.432252 -0.00735618 0)
(0.436347 -0.00867763 0)
(0.441049 -0.0104092 0)
(0.447239 -0.0113057 0)
(0.412465 2.97872e-05 0)
(0.412486 8.36091e-05 0)
(0.41252 0.000121789 0)
(0.41255 0.000147133 0)
(0.412569 0.000153746 0)
(0.412583 0.000152305 0)
(0.4126 0.000140562 0)
(0.412624 0.000105569 0)
(0.412661 4.73406e-05 0)
(0.41272 -3.5177e-05 0)
(0.412812 -0.000144827 0)
(0.412948 -0.000283127 0)
(0.413138 -0.000451913 0)
(0.413394 -0.000653433 0)
(0.413727 -0.000891311 0)
(0.41415 -0.00117072 0)
(0.414676 -0.00149792 0)
(0.415316 -0.0018787 0)
(0.416087 -0.00231718 0)
(0.417014 -0.00282211 0)
(0.418124 -0.00341091 0)
(0.419451 -0.00410468 0)
(0.421032 -0.00492674 0)
(0.422918 -0.0059039 0)
(0.425168 -0.00706736 0)
(0.427866 -0.00844557 0)
(0.431079 -0.0100853 0)
(0.435011 -0.0119439 0)
(0.439518 -0.0143133 0)
(0.44569 -0.0160062 0)
(0.412463 2.14399e-05 0)
(0.412476 6.58384e-05 0)
(0.412498 0.000100319 0)
(0.412519 0.000122167 0)
(0.412535 0.000132918 0)
(0.412547 0.000130319 0)
(0.41256 0.000109048 0)
(0.412582 6.39644e-05 0)
(0.412617 -8.8777e-06 0)
(0.412673 -0.000111074 0)
(0.412758 -0.000246715 0)
(0.412883 -0.000418715 0)
(0.413058 -0.000629746 0)
(0.413294 -0.000882796 0)
(0.413601 -0.00118146 0)
(0.413991 -0.00153055 0)
(0.414474 -0.00193651 0)
(0.415063 -0.00240682 0)
(0.415773 -0.00294966 0)
(0.416625 -0.00357716 0)
(0.417644 -0.00430864 0)
(0.41886 -0.00516954 0)
(0.420307 -0.0061902 0)
(0.422036 -0.00740615 0)
(0.424101 -0.00885914 0)
(0.426589 -0.0105907 0)
(0.429564 -0.0126611 0)
(0.433254 -0.0150513 0)
(0.437476 -0.0180437 0)
(0.443512 -0.0206028 0)
(0.412462 1.63296e-05 0)
(0.41247 5.27585e-05 0)
(0.412485 8.70523e-05 0)
(0.412501 0.000113014 0)
(0.412514 0.000126152 0)
(0.412525 0.000123816 0)
(0.412537 0.000103613 0)
(0.412554 5.41779e-05 0)
(0.412584 -2.87942e-05 0)
(0.412634 -0.000149503 0)
(0.41271 -0.000310548 0)
(0.412824 -0.000514908 0)
(0.412982 -0.000765366 0)
(0.413195 -0.00106495 0)
(0.413472 -0.00141754 0)
(0.413822 -0.00182838 0)
(0.414256 -0.00230432 0)
(0.414785 -0.00285401 0)
(0.415421 -0.00348852 0)
(0.416182 -0.00422363 0)
(0.417088 -0.00508206 0)
(0.418167 -0.00609367 0)
(0.41945 -0.00729539 0)
(0.420981 -0.00873158 0)
(0.422814 -0.0104552 0)
(0.425035 -0.0125222 0)
(0.427702 -0.0150087 0)
(0.431064 -0.0179246 0)
(0.434904 -0.021542 0)
(0.440686 -0.0249991 0)
(0.412461 1.29613e-05 0)
(0.412467 4.43402e-05 0)
(0.412478 7.77237e-05 0)
(0.412489 0.000104776 0)
(0.412498 0.000118815 0)
(0.412507 0.000115971 0)
(0.412516 9.16525e-05 0)
(0.41253 3.43677e-05 0)
(0.412556 -6.08138e-05 0)
(0.412598 -0.000198524 0)
(0.412666 -0.000382439 0)
(0.412765 -0.000615783 0)
(0.412904 -0.000901509 0)
(0.413091 -0.00124286 0)
(0.413334 -0.00164391 0)
(0.41364 -0.00211004 0)
(0.414017 -0.00264847 0)
(0.414476 -0.00326885 0)
(0.415026 -0.00398427 0)
(0.415681 -0.00481315 0)
(0.416458 -0.00578111 0)
(0.417378 -0.00692216 0)
(0.418469 -0.00827948 0)
(0.419769 -0.00990622 0)
(0.421325 -0.011867 0)
(0.423222 -0.014234 0)
(0.425508 -0.0171014 0)
(0.428451 -0.0205147 0)
(0.431801 -0.0247366 0)
(0.437185 -0.0291148 0)
(0.412461 1.06195e-05 0)
(0.412465 3.84297e-05 0)
(0.412472 7.0939e-05 0)
(0.41248 9.8772e-05 0)
(0.412487 0.000112878 0)
(0.412494 0.000109571 0)
(0.412501 8.45299e-05 0)
(0.412512 2.21383e-05 0)
(0.412532 -8.26106e-05 0)
(0.412568 -0.000234697 0)
(0.412625 -0.000438106 0)
(0.412709 -0.000696144 0)
(0.412827 -0.00101184 0)
(0.412985 -0.00138846 0)
(0.41319 -0.00183007 0)
(0.413448 -0.0023421 0)
(0.413764 -0.00293199 0)
(0.414147 -0.00361006 0)
(0.414602 -0.00439078 0)
(0.415139 -0.00529455 0)
(0.415771 -0.00634971 0)
(0.416513 -0.0075942 0)
(0.417387 -0.00907706 0)
(0.418423 -0.0108599 0)
(0.41966 -0.0130189 0)
(0.421175 -0.0156431 0)
(0.423008 -0.0188468 0)
(0.425432 -0.022716 0)
(0.428171 -0.0275086 0)
(0.432976 -0.0328181 0)
(0.412461 8.91498e-06 0)
(0.412464 3.42092e-05 0)
(0.412469 6.6183e-05 0)
(0.412474 9.46587e-05 0)
(0.412479 0.000108386 0)
(0.412485 0.000105089 0)
(0.41249 7.92386e-05 0)
(0.412497 1.18678e-05 0)
(0.412513 -0.000101603 0)
(0.412541 -0.000266221 0)
(0.412587 -0.000486297 0)
(0.412655 -0.000765283 0)
(0.41275 -0.0011062 0)
(0.412878 -0.0015122 0)
(0.413043 -0.0019872 0)
(0.413249 -0.00253648 0)
(0.413501 -0.00316748 0)
(0.413801 -0.0038908 0)
(0.414154 -0.00472165 0)
(0.414565 -0.0056817 0)
(0.41504 -0.0068012 0)
(0.415589 -0.00812112 0)
(0.416225 -0.00969534 0)
(0.41697 -0.0115928 0)
(0.417851 -0.0139009 0)
(0.418932 -0.0167251 0)
(0.42024 -0.0202012 0)
(0.42204 -0.0244599 0)
(0.424038 -0.0297583 0)
(0.428045 -0.0359729 0)
(0.412461 7.63627e-06 0)
(0.412463 3.11439e-05 0)
(0.412467 6.28011e-05 0)
(0.41247 9.17211e-05 0)
(0.412474 0.000105039 0)
(0.412478 0.00010188 0)
(0.412481 7.57835e-05 0)
(0.412486 4.59163e-06 0)
(0.412496 -0.000115762 0)
(0.412518 -0.000290313 0)
(0.412552 -0.000523571 0)
(0.412604 -0.000819009 0)
(0.412676 -0.00117951 0)
(0.412773 -0.00160799 0)
(0.412897 -0.00210801 0)
(0.41305 -0.0026845 0)
(0.413233 -0.00334455 0)
(0.413448 -0.0040986 0)
(0.413695 -0.00496191 0)
(0.413974 -0.00595664 0)
(0.414285 -0.00711407 0)
(0.414631 -0.00847719 0)
(0.415014 -0.0101034 0)
(0.415447 -0.0120676 0)
(0.41594 -0.0144665 0)
(0.416542 -0.0174208 0)
(0.417258 -0.0210869 0)
(0.418333 -0.0256421 0)
(0.419456 -0.0313463 0)
(0.422411 -0.0383854 0)
(0.41246 6.65431e-06 0)
(0.412462 2.88483e-05 0)
(0.412465 6.03731e-05 0)
(0.412468 8.966e-05 0)
(0.41247 0.000102576 0)
(0.412473 9.97903e-05 0)
(0.412475 7.38783e-05 0)
(0.412477 -1.00225e-07 0)
(0.412484 -0.00012562 0)
(0.412498 -0.000307587 0)
(0.412521 -0.000550607 0)
(0.412556 -0.000858095 0)
(0.412606 -0.00123269 0)
(0.412671 -0.0016769 0)
(0.412754 -0.00219377 0)
(0.412853 -0.0027876 0)
(0.412968 -0.00346481 0)
(0.413096 -0.00423516 0)
(0.413235 -0.00511336 0)
(0.41338 -0.00612113 0)
(0.413523 -0.0072897 0)
(0.413661 -0.00866255 0)
(0.413785 -0.0102988 0)
(0.413892 -0.0122769 0)
(0.413978 -0.0147 0)
(0.414066 -0.0177011 0)
(0.414139 -0.0214546 0)
(0.414395 -0.0261811 0)
(0.414517 -0.0321457 0)
(0.416145 -0.0398522 0)
(0.41246 5.87873e-06 0)
(0.412462 2.70769e-05 0)
(0.412464 5.8455e-05 0)
(0.412466 8.79776e-05 0)
(0.412469 0.000100884 0)
(0.41247 9.85503e-05 0)
(0.412471 7.30485e-05 0)
(0.412472 -2.63143e-06 0)
(0.412475 -0.000131474 0)
(0.412482 -0.000318237 0)
(0.412495 -0.00056753 0)
(0.412515 -0.000882584 0)
(0.412541 -0.00126566 0)
(0.412576 -0.00171871 0)
(0.412618 -0.00224406 0)
(0.412664 -0.00284515 0)
(0.412711 -0.00352736 0)
(0.412755 -0.00429926 0)
(0.412787 -0.00517428 0)
(0.412799 -0.00617276 0)
(0.412777 -0.00732456 0)
(0.412708 -0.00867204 0)
(0.412572 -0.0102737 0)
(0.412352 -0.0122085 0)
(0.412023 -0.0145824 0)
(0.41158 -0.0175354 0)
(0.410975 -0.0212539 0)
(0.41034 -0.0259944 0)
(0.409358 -0.0320252 0)
(0.409392 -0.0401482 0)
(0.41246 5.24034e-06 0)
(0.412461 2.55673e-05 0)
(0.412464 5.66972e-05 0)
(0.412466 8.62004e-05 0)
(0.412468 9.95374e-05 0)
(0.41247 9.78098e-05 0)
(0.41247 7.30067e-05 0)
(0.41247 -3.35246e-06 0)
(0.41247 -0.000133739 0)
(0.412472 -0.000322743 0)
(0.412474 -0.000574875 0)
(0.412479 -0.000893082 0)
(0.412484 -0.00127913 0)
(0.41249 -0.0017343 0)
(0.412492 -0.00226002 0)
(0.412488 -0.00285859 0)
(0.41247 -0.00353403 0)
(0.412432 -0.00429324 0)
(0.412363 -0.00514763 0)
(0.412247 -0.00611521 0)
(0.412067 -0.00722312 0)
(0.411799 -0.00851064 0)
(0.411413 -0.010033 0)
(0.410876 -0.0118662 0)
(0.410141 -0.0141137 0)
(0.409169 -0.0169155 0)
(0.40788 -0.0204615 0)
(0.406316 -0.0250293 0)
(0.40417 -0.0308845 0)
(0.402385 -0.0390698 0)
(0.41246 4.67852e-06 0)
(0.412461 2.41954e-05 0)
(0.412464 5.48931e-05 0)
(0.412467 8.41849e-05 0)
(0.412469 9.82839e-05 0)
(0.412471 9.71083e-05 0)
(0.412471 7.30596e-05 0)
(0.412471 -2.91734e-06 0)
(0.412469 -0.000133049 0)
(0.412466 -0.000321789 0)
(0.41246 -0.000573434 0)
(0.412451 -0.000890536 0)
(0.412436 -0.00127428 0)
(0.412414 -0.00172512 0)
(0.41238 -0.00224346 0)
(0.412328 -0.00283027 0)
(0.412251 -0.00348784 0)
(0.412137 -0.00422095 0)
(0.411973 -0.00503835 0)
(0.411739 -0.00595473 0)
(0.411412 -0.00699311 0)
(0.410961 -0.00818775 0)
(0.410344 -0.00958782 0)
(0.409512 -0.011262 0)
(0.408397 -0.0133057 0)
(0.406925 -0.0158505 0)
(0.40498 -0.0190776 0)
(0.402499 -0.023266 0)
(0.399189 -0.0286661 0)
(0.39546 -0.0364641 0)
(0.41246 4.13908e-06 0)
(0.412461 2.27674e-05 0)
(0.412464 5.27313e-05 0)
(0.412468 8.15996e-05 0)
(0.412471 9.65452e-05 0)
(0.412474 9.60562e-05 0)
(0.412475 7.28571e-05 0)
(0.412475 -1.80566e-06 0)
(0.412472 -0.000130035 0)
(0.412465 -0.000316172 0)
(0.412452 -0.000564204 0)
(0.41243 -0.0008762 0)
(0.412399 -0.00125267 0)
(0.412352 -0.0016932 0)
(0.412285 -0.00219702 0)
(0.41219 -0.00276358 0)
(0.412058 -0.00339322 0)
(0.411876 -0.00408818 0)
(0.411627 -0.00485395 0)
(0.411289 -0.00570104 0)
(0.410833 -0.00664707 0)
(0.41022 -0.00771936 0)
(0.409401 -0.0089582 0)
(0.40831 -0.0104209 0)
(0.406861 -0.0121885 0)
(0.404944 -0.0143747 0)
(0.40241 -0.0171384 0)
(0.399085 -0.0207353 0)
(0.394691 -0.0253833 0)
(0.38904 -0.032279 0)
(0.41246 3.5717e-06 0)
(0.412462 2.11354e-05 0)
(0.412465 5.00451e-05 0)
(0.41247 7.81689e-05 0)
(0.412475 9.40311e-05 0)
(0.412478 9.41896e-05 0)
(0.412481 7.17817e-05 0)
(0.412482 -7.15744e-07 0)
(0.412479 -0.000125501 0)
(0.412469 -0.000306849 0)
(0.41245 -0.000548371 0)
(0.412419 -0.000851579 0)
(0.412372 -0.00121626 0)
(0.412303 -0.00164105 0)
(0.412207 -0.00212396 0)
(0.412075 -0.00266279 0)
(0.411896 -0.00325575 0)
(0.411655 -0.00390226 0)
(0.411334 -0.00460409 0)
(0.410907 -0.00536682 0)
(0.410343 -0.00620161 0)
(0.409597 -0.00712718 0)
(0.408612 -0.00817238 0)
(0.407311 -0.00937934 0)
(0.405592 -0.0108088 0)
(0.403314 -0.0125473 0)
(0.400298 -0.0147176 0)
(0.396268 -0.0175256 0)
(0.39096 -0.0211361 0)
(0.383601 -0.0266034 0)
(0.41246 2.92772e-06 0)
(0.412462 1.91683e-05 0)
(0.412466 4.65789e-05 0)
(0.412472 7.36302e-05 0)
(0.412479 9.03903e-05 0)
(0.412485 9.10606e-05 0)
(0.41249 6.92876e-05 0)
(0.412493 -2.56456e-07 0)
(0.41249 -0.000120235 0)
(0.412479 -0.000294863 0)
(0.412455 -0.000527266 0)
(0.412416 -0.000818375 0)
(0.412357 -0.00116724 0)
(0.41227 -0.00157155 0)
(0.41215 -0.00202805 0)
(0.411986 -0.00253288 0)
(0.411768 -0.00308201 0)
(0.411478 -0.00367187 0)
(0.411099 -0.00430022 0)
(0.410603 -0.00496725 0)
(0.409955 -0.00567682 0)
(0.409109 -0.00643782 0)
(0.408003 -0.00726571 0)
(0.406551 -0.00818435 0)
(0.404641 -0.00922918 0)
(0.40211 -0.010452 0)
(0.398757 -0.0119267 0)
(0.394226 -0.0137857 0)
(0.388265 -0.0161208 0)
(0.379616 -0.0196949 0)
(0.41246 2.15391e-06 0)
(0.412462 1.668e-05 0)
(0.412467 4.21509e-05 0)
(0.412475 6.78137e-05 0)
(0.412485 8.49219e-05 0)
(0.412493 8.62505e-05 0)
(0.412501 6.49201e-05 0)
(0.412507 -9.66828e-07 0)
(0.412505 -0.000115003 0)
(0.412494 -0.000281238 0)
(0.412468 -0.000502265 0)
(0.412423 -0.000778413 0)
(0.412353 -0.00110802 0)
(0.412253 -0.00148786 0)
(0.412113 -0.00191347 0)
(0.411925 -0.00237934 0)
(0.411675 -0.00287925 0)
(0.411349 -0.00340662 0)
(0.410926 -0.00395509 0)
(0.410381 -0.00451927 0)
(0.409677 -0.00509536 0)
(0.408767 -0.00568168 0)
(0.407588 -0.00627912 0)
(0.406052 -0.00689131 0)
(0.404042 -0.00752527 0)
(0.401384 -0.00819252 0)
(0.397868 -0.00891008 0)
(0.39309 -0.00971841 0)
(0.386814 -0.0106222 0)
(0.37747 -0.0119759 0)
(0.412461 1.18837e-06 0)
(0.412463 1.35628e-05 0)
(0.412469 3.6584e-05 0)
(0.412479 6.05574e-05 0)
(0.412491 7.74127e-05 0)
(0.412503 7.94161e-05 0)
(0.412514 5.80691e-05 0)
(0.412523 -3.6168e-06 0)
(0.412524 -0.000110748 0)
(0.412514 -0.000267108 0)
(0.412487 -0.000474784 0)
(0.412438 -0.000733537 0)
(0.412362 -0.00104104 0)
(0.41225 -0.00139322 0)
(0.412096 -0.00178449 0)
(0.41189 -0.00220787 0)
(0.411618 -0.00265502 0)
(0.411267 -0.00311652 0)
(0.410817 -0.00358207 0)
(0.410242 -0.00404077 0)
(0.40951 -0.00448122 0)
(0.408574 -0.00489116 0)
(0.407373 -0.00525667 0)
(0.405823 -0.00556062 0)
(0.403809 -0.00578054 0)
(0.401159 -0.0058858 0)
(0.397669 -0.00583342 0)
(0.392929 -0.00556335 0)
(0.386721 -0.00498945 0)
(0.377392 -0.00399498 0)
(0.412461 1.59827e-08 0)
(0.412464 9.645e-06 0)
(0.412471 2.9675e-05 0)
(0.412484 5.14653e-05 0)
(0.412499 6.75362e-05 0)
(0.412514 6.9687e-05 0)
(0.41253 4.86691e-05 0)
(0.412542 -8.59213e-06 0)
(0.412547 -0.000108156 0)
(0.412538 -0.000253469 0)
(0.412512 -0.00044618 0)
(0.412461 -0.000685572 0)
(0.412381 -0.000968735 0)
(0.412263 -0.00129088 0)
(0.412099 -0.00164546 0)
(0.411881 -0.00202419 0)
(0.411596 -0.00241692 0)
(0.411231 -0.00281166 0)
(0.410769 -0.00319456 0)
(0.410185 -0.00354968 0)
(0.409451 -0.00385853 0)
(0.408526 -0.00409893 0)
(0.407354 -0.00424293 0)
(0.405858 -0.00425366 0)
(0.403934 -0.00408048 0)
(0.401427 -0.00365217 0)
(0.398153 -0.0028698 0)
(0.393735 -0.00157115 0)
(0.387983 0.000408969 0)
(0.379401 0.00364241 0)
(0.412461 -1.62152e-06 0)
(0.412465 4.99682e-06 0)
(0.412474 2.12407e-05 0)
(0.412489 4.03062e-05 0)
(0.412507 5.48392e-05 0)
(0.412527 5.68005e-05 0)
(0.412547 3.63949e-05 0)
(0.412564 -1.64138e-05 0)
(0.412572 -0.000107827 0)
(0.412567 -0.000241195 0)
(0.412542 -0.000417717 0)
(0.412492 -0.000636252 0)
(0.41241 -0.000893432 0)
(0.412289 -0.00118392 0)
(0.41212 -0.00150045 0)
(0.411896 -0.00183371 0)
(0.411606 -0.00217212 0)
(0.411238 -0.00250162 0)
(0.410777 -0.00280535 0)
(0.410203 -0.00306311 0)
(0.409493 -0.00325033 0)
(0.408611 -0.00333619 0)
(0.407513 -0.00328055 0)
(0.406134 -0.00302928 0)
(0.404388 -0.00250699 0)
(0.402146 -0.00160696 0)
(0.399261 -0.000172957 0)
(0.395426 0.00202017 0)
(0.390477 0.00521975 0)
(0.383278 0.0103638 0)
(0.412461 -3.75309e-06 0)
(0.412466 -8.08603e-07 0)
(0.412477 1.10355e-05 0)
(0.412496 2.67142e-05 0)
(0.412518 3.92545e-05 0)
(0.412542 4.03093e-05 0)
(0.412567 2.09277e-05 0)
(0.412588 -2.73923e-05 0)
(0.412601 -0.00011039 0)
(0.412599 -0.000231159 0)
(0.412578 -0.00039056 0)
(0.412529 -0.000587131 0)
(0.412448 -0.000817203 0)
(0.412326 -0.00107508 0)
(0.412157 -0.00135305 0)
(0.411932 -0.00164113 0)
(0.411644 -0.00192678 0)
(0.411281 -0.00219446 0)
(0.410834 -0.00242512 0)
(0.410287 -0.00259533 0)
(0.409621 -0.00267583 0)
(0.408812 -0.00262911 0)
(0.407826 -0.00240544 0)
(0.406617 -0.0019372 0)
(0.405122 -0.00112994 0)
(0.403253 0.000152157 0)
(0.400894 0.00209553 0)
(0.397839 0.00498688 0)
(0.393972 0.0091276 0)
(0.388638 0.0156865 0)
(0.412461 -6.21014e-06 0)
(0.412467 -8.27935e-06 0)
(0.412482 -1.29018e-06 0)
(0.412504 1.04906e-05 0)
(0.41253 2.0411e-05 0)
(0.412559 2.03397e-05 0)
(0.412589 2.02111e-06 0)
(0.412615 -4.18126e-05 0)
(0.412632 -0.000116239 0)
(0.412635 -0.000224021 0)
(0.412618 -0.000365731 0)
(0.412573 -0.00053973 0)
(0.412493 -0.000742228 0)
(0.412374 -0.000967402 0)
(0.412207 -0.00120737 0)
(0.411986 -0.00145193 0)
(0.411705 -0.00168805 0)
(0.411356 -0.00189944 0)
(0.410932 -0.00206576 0)
(0.410423 -0.00216161 0)
(0.409819 -0.00215473 0)
(0.409104 -0.00200322 0)
(0.40826 -0.00165112 0)
(0.40726 -0.00102195 0)
(0.40607 -8.2688e-06 0)
(0.404638 0.00153941 0)
(0.402902 0.0038234 0)
(0.400775 0.00717966 0)
(0.39816 0.0119259 0)
(0.394969 0.0193055 0)
(0.412462 -9.19969e-06 0)
(0.412469 -1.77468e-05 0)
(0.412487 -1.6422e-05 0)
(0.412514 -8.81359e-06 0)
(0.412545 -1.83293e-06 0)
(0.412579 -3.38132e-06 0)
(0.412613 -2.06654e-05 0)
(0.412644 -5.98007e-05 0)
(0.412667 -0.000125286 0)
(0.412675 -0.000219525 0)
(0.412661 -0.000342818 0)
(0.41262 -0.000493456 0)
(0.412545 -0.0006677 0)
(0.412429 -0.000859824 0)
(0.412267 -0.00106216 0)
(0.412054 -0.00126473 0)
(0.411784 -0.00145468 0)
(0.411454 -0.00161571 0)
(0.41106 -0.00172729 0)
(0.410598 -0.00176341 0)
(0.410066 -0.00169073 0)
(0.40946 -0.00146556 0)
(0.408776 -0.00102936 0)
(0.408009 -0.000302139 0)
(0.407152 0.000828403 0)
(0.406199 0.00251485 0)
(0.405139 0.00497352 0)
(0.403999 0.00853487 0)
(0.402707 0.0135266 0)
(0.401721 0.0211124 0)
(0.412462 -1.32528e-05 0)
(0.412472 -3.0074e-05 0)
(0.412495 -3.46746e-05 0)
(0.412527 -3.0929e-05 0)
(0.412563 -2.71492e-05 0)
(0.412601 -3.09588e-05 0)
(0.41264 -4.81141e-05 0)
(0.412677 -8.3461e-05 0)
(0.412705 -0.000140748 0)
(0.412718 -0.000221985 0)
(0.41271 -0.000327371 0)
(0.412673 -0.000455385 0)
(0.412603 -0.000602513 0)
(0.412492 -0.000763244 0)
(0.412337 -0.000930384 0)
(0.412133 -0.00109462 0)
(0.411877 -0.00124379 0)
(0.411569 -0.00136236 0)
(0.411208 -0.00143064 0)
(0.410798 -0.00142344 0)
(0.410343 -0.00130826 0)
(0.409851 -0.00104244 0)
(0.409333 -0.00056873 0)
(0.408805 0.000190423 0)
(0.408289 0.00134366 0)
(0.40782 0.00304168 0)
(0.407437 0.00549044 0)
(0.407272 0.00899894 0)
(0.407277 0.0138871 0)
(0.408368 0.02111 0)
(0.412463 -1.90841e-05 0)
(0.412478 -4.67027e-05 0)
(0.412508 -5.71312e-05 0)
(0.412546 -5.62416e-05 0)
(0.412586 -5.44098e-05 0)
(0.412628 -5.8503e-05 0)
(0.412672 -7.32192e-05 0)
(0.412713 -0.000103041 0)
(0.412746 -0.000150934 0)
(0.412764 -0.000217899 0)
(0.412761 -0.000303791 0)
(0.412729 -0.000407557 0)
(0.412664 -0.0005261 0)
(0.412559 -0.000654356 0)
(0.412411 -0.000786192 0)
(0.412217 -0.000913532 0)
(0.411977 -0.00102548 0)
(0.411691 -0.0011081 0)
(0.411365 -0.00114358 0)
(0.411006 -0.00110889 0)
(0.410628 -0.000974114 0)
(0.410247 -0.000699904 0)
(0.409888 -0.000233879 0)
(0.409588 0.000495942 0)
(0.409396 0.00158391 0)
(0.409385 0.00316867 0)
(0.409637 0.00543728 0)
(0.410371 0.00865599 0)
(0.411564 0.0131221 0)
(0.414474 0.0194985 0)
(0.412465 -2.79e-05 0)
(0.412488 -6.93268e-05 0)
(0.41253 -8.61598e-05 0)
(0.412575 -9.0988e-05 0)
(0.412619 -9.57507e-05 0)
(0.412666 -0.000105093 0)
(0.412714 -0.000121577 0)
(0.412759 -0.000148188 0)
(0.412797 -0.00018806 0)
(0.412821 -0.000242282 0)
(0.412823 -0.00031028 0)
(0.412796 -0.000392237 0)
(0.412736 -0.000485526 0)
(0.412638 -0.000584569 0)
(0.412497 -0.000684503 0)
(0.412313 -0.000779242 0)
(0.412087 -0.000859508 0)
(0.411822 -0.000913584 0)
(0.411528 -0.000926484 0)
(0.411218 -0.000878711 0)
(0.410909 -0.000744796 0)
(0.41063 -0.000491353 0)
(0.410416 -7.45781e-05 0)
(0.410321 0.000565437 0)
(0.410414 0.0015097 0)
(0.410806 0.00287541 0)
(0.411616 0.00482026 0)
(0.413121 0.00755357 0)
(0.415327 0.0113372 0)
(0.41972 0.0164819 0)
(0.412469 -4.54118e-05 0)
(0.412505 -9.04814e-05 0)
(0.412561 -9.90931e-05 0)
(0.412612 -0.000100497 0)
(0.412659 -0.000106506 0)
(0.412709 -0.000115207 0)
(0.412763 -0.000128142 0)
(0.412814 -0.000150743 0)
(0.412857 -0.000182852 0)
(0.412882 -0.000222827 0)
(0.412887 -0.000271593 0)
(0.412871 -0.000328703 0)
(0.412814 -0.00039247 0)
(0.412721 -0.000460257 0)
(0.412588 -0.000528241 0)
(0.412415 -0.0005912 0)
(0.412204 -0.000642735 0)
(0.411962 -0.000674318 0)
(0.4117 -0.000674517 0)
(0.411435 -0.00062807 0)
(0.411191 -0.000514619 0)
(0.411001 -0.000307471 0)
(0.410912 2.69208e-05 0)
(0.410991 0.000529978 0)
(0.411329 0.0012623 0)
(0.41206 0.00231081 0)
(0.41333 0.00379909 0)
(0.415446 0.00588689 0)
(0.418448 0.0087674 0)
(0.423921 0.0124335 0)
(0.412479 -9.09149e-05 0)
(0.412556 -0.000193373 0)
(0.412655 -0.000188262 0)
(0.412709 -0.000187259 0)
(0.412752 -0.000192092 0)
(0.412795 -0.000201904 0)
(0.412835 -0.000215298 0)
(0.412865 -0.000232506 0)
(0.412881 -0.000254298 0)
(0.412881 -0.000281536 0)
(0.41286 -0.000314552 0)
(0.412815 -0.000351349 0)
(0.412742 -0.000391409 0)
(0.412637 -0.000431748 0)
(0.412499 -0.000469963 0)
(0.412328 -0.000507387 0)
(0.412127 -0.000536063 0)
(0.411902 -0.000551259 0)
(0.411666 -0.000546088 0)
(0.411437 -0.000511033 0)
(0.411247 -0.000433262 0)
(0.411136 -0.000295698 0)
(0.411165 -7.57734e-05 0)
(0.411402 0.000257287 0)
(0.411932 0.000741581 0)
(0.41287 0.00143353 0)
(0.414364 0.0024078 0)
(0.416829 0.00375833 0)
(0.420469 0.00564129 0)
(0.42603 0.0076942 0)
(0.412281 -6.38343e-05 0)
(0.412165 -0.000127348 0)
(0.411964 -0.000147243 0)
(0.411718 -0.000153592 0)
(0.41147 -0.000158248 0)
(0.411225 -0.000161821 0)
(0.410973 -0.000165576 0)
(0.410709 -0.000171541 0)
(0.410425 -0.000180689 0)
(0.410118 -0.000193002 0)
(0.409781 -0.000208129 0)
(0.40941 -0.000225137 0)
(0.409001 -0.000243252 0)
(0.408553 -0.000262091 0)
(0.408065 -0.000280041 0)
(0.407541 -0.000294908 0)
(0.406986 -0.000305625 0)
(0.40641 -0.000310493 0)
(0.40583 -0.000307232 0)
(0.40527 -0.000293138 0)
(0.40476 -0.000264769 0)
(0.404347 -0.00021588 0)
(0.404094 -0.000137814 0)
(0.40409 -2.4301e-05 0)
(0.404464 0.000153326 0)
(0.405393 0.000422888 0)
(0.407098 0.000781077 0)
(0.409862 0.00125568 0)
(0.414091 0.00200254 0)
(0.421266 0.00243473 0)
(0.448775 -0.00424579 -8.93874e-20)
(0.451772 -0.00635639 -8.98608e-20)
(0.454296 -0.00893458 -1.28092e-18)
(0.456154 -0.011796 -3.70137e-19)
(0.457651 -0.0148926 3.7603e-19)
(0.459044 -0.0182094 0)
(0.460211 -0.0217301 0)
(0.461187 -0.0254733 3.92111e-19)
(0.462045 -0.0294713 -3.99318e-19)
(0.462836 -0.0337515 -8.09499e-19)
(0.463574 -0.0383383 8.25156e-19)
(0.464254 -0.0432614 0)
(0.464865 -0.0485602 -8.51112e-19)
(0.465396 -0.0542858 8.68898e-19)
(0.465837 -0.060503 0)
(0.46618 -0.0672917 1.79169e-18)
(0.466419 -0.0747504 9.12881e-19)
(0.466543 -0.0830004 9.20761e-19)
(0.466537 -0.0921928 9.44973e-19)
(0.466377 -0.102518 9.49168e-19)
(0.466032 -0.114221 -9.75435e-19)
(0.465457 -0.127614 2.97412e-18)
(0.46458 -0.143115 0)
(0.463323 -0.161259 -2.01031e-18)
(0.46146 -0.182828 1.00771e-18)
(0.458937 -0.208719 -2.03917e-18)
(0.454847 -0.240441 -2.9899e-18)
(0.449143 -0.281072 0)
(0.441105 -0.32317 0)
(0.421059 -0.417269 -3.60446e-19)
(0.45225 -0.00952295 -1.45911e-18)
(0.453928 -0.0118807 0)
(0.455215 -0.0147027 0)
(0.456066 -0.0177404 -1.51988e-18)
(0.457011 -0.0209371 1.54345e-18)
(0.457582 -0.0243151 1.56813e-18)
(0.458214 -0.0279013 -3.97076e-19)
(0.458812 -0.0317228 4.04504e-19)
(0.459359 -0.0358011 1.23804e-18)
(0.459863 -0.0401548 2.09647e-18)
(0.460304 -0.0448082 -8.50256e-19)
(0.460658 -0.0497969 1.74265e-18)
(0.460902 -0.0551681 8.84233e-19)
(0.461023 -0.060979 9.10291e-19)
(0.461013 -0.0672979 9.19278e-19)
(0.460857 -0.0742058 1.88429e-18)
(0.460537 -0.0818012 0)
(0.460028 -0.0902043 -9.73326e-19)
(0.459293 -0.0995649 -1.0103e-18)
(0.458283 -0.110071 0)
(0.456935 -0.121959 1.03352e-18)
(0.455162 -0.135534 1.08056e-18)
(0.452834 -0.151191 -2.18847e-18)
(0.449795 -0.169432 0)
(0.445716 -0.190975 1.10132e-18)
(0.440419 -0.216594 1.16824e-18)
(0.432688 -0.247829 -2.32789e-18)
(0.422932 -0.286124 1.08295e-18)
(0.408284 -0.329094 -1.13505e-18)
(0.38306 -0.41262 4.78701e-19)
(0.450841 -0.0144282 1.48664e-18)
(0.451761 -0.0167509 0)
(0.452479 -0.0195375 -1.91267e-19)
(0.453135 -0.0225677 3.30804e-18)
(0.453731 -0.0257766 -1.1836e-18)
(0.454303 -0.0291678 -2.4084e-18)
(0.454848 -0.0327771 2.04993e-18)
(0.455318 -0.0366211 -4.15723e-19)
(0.455685 -0.040711 -1.26573e-18)
(0.455941 -0.0450699 -4.18162e-19)
(0.456078 -0.0497338 4.40347e-19)
(0.45608 -0.0547463 -2.68527e-18)
(0.455939 -0.0601567 1.83233e-18)
(0.455644 -0.0660206 -2.79863e-18)
(0.455177 -0.0724033 0)
(0.454516 -0.0793836 -1.9435e-18)
(0.453626 -0.0870575 0)
(0.452463 -0.0955436 0)
(0.450974 -0.104988 2.07966e-18)
(0.449085 -0.115573 0)
(0.446703 -0.127526 0)
(0.4437 -0.141134 -2.23193e-18)
(0.439897 -0.156767 2.28496e-18)
(0.435063 -0.174886 0)
(0.428789 -0.196137 0)
(0.420767 -0.2212 -2.4354e-18)
(0.409609 -0.251495 1.10157e-18)
(0.395908 -0.287583 -6.81541e-19)
(0.374767 -0.330447 -6.6599e-19)
(0.345089 -0.403545 0)
(0.449122 -0.0195432 -4.74937e-20)
(0.449738 -0.0219424 -4.82302e-20)
(0.450192 -0.0247688 1.47794e-18)
(0.450655 -0.0278129 -3.19681e-18)
(0.451084 -0.0310274 2.03355e-19)
(0.451421 -0.0344224 4.13537e-19)
(0.451651 -0.0380254 -4.09101e-19)
(0.451767 -0.0418591 0)
(0.451764 -0.045946 2.1978e-18)
(0.451636 -0.0503159 -4.02362e-18)
(0.451374 -0.0550051 1.83532e-18)
(0.450966 -0.0600529 9.32243e-19)
(0.450392 -0.0655036 -2.87329e-18)
(0.44963 -0.0714096 0)
(0.448649 -0.0778347 0)
(0.44741 -0.084857 2.06568e-18)
(0.445868 -0.092571 2.12083e-18)
(0.443965 -0.101091 1.0786e-18)
(0.441628 -0.110558 -8.26074e-22)
(0.438762 -0.121142 -1.14156e-18)
(0.435243 -0.133055 0)
(0.430906 -0.146562 0)
(0.425524 -0.161994 -1.29717e-18)
(0.418804 -0.179765 -3.93508e-18)
(0.410269 -0.200432 0)
(0.399498 -0.224565 -1.46916e-18)
(0.385002 -0.253393 2.77503e-18)
(0.367455 -0.286984 -5.33607e-18)
(0.340216 -0.327946 7.83773e-19)
(0.307456 -0.39048 0)
(0.446681 -0.0244824 0)
(0.446981 -0.0268922 1.59107e-18)
(0.447103 -0.0296933 -1.40879e-18)
(0.447282 -0.0327091 1.43397e-18)
(0.447428 -0.0359048 2.09338e-19)
(0.447457 -0.0392946 -2.13486e-19)
(0.447358 -0.0429017 -1.73474e-18)
(0.447143 -0.0467465 0)
(0.446805 -0.0508501 1.85947e-20)
(0.446326 -0.055239 1.84641e-18)
(0.445688 -0.059945 -2.3625e-18)
(0.444868 -0.0650055 2.44262e-18)
(0.44384 -0.0704646 2.47642e-18)
(0.442571 -0.0763752 -5.10391e-19)
(0.441025 -0.0828008 3.16389e-18)
(0.439155 -0.0898167 -2.11659e-18)
(0.436904 -0.0975125 -2.22076e-18)
(0.434202 -0.105995 -1.14163e-18)
(0.430956 -0.115395 0)
(0.427051 -0.125867 0)
(0.422334 -0.137604 0)
(0.416606 -0.15084 1.30924e-18)
(0.409602 -0.165865 4.08692e-18)
(0.400975 -0.183032 1.36388e-18)
(0.390201 -0.202804 2.96226e-18)
(0.37676 -0.225639 -1.71268e-18)
(0.359142 -0.252546 3.36958e-18)
(0.337952 -0.283275 -2.38963e-19)
(0.305424 -0.321105 2.91199e-18)
(0.270647 -0.373475 5.05562e-18)
(0.443544 -0.0292173 -1.60664e-18)
(0.443544 -0.0316431 -1.62619e-18)
(0.443348 -0.0344395 -1.67152e-18)
(0.443245 -0.0374502 0)
(0.443114 -0.0406446 0)
(0.442841 -0.0440336 -1.77565e-18)
(0.442419 -0.0476361 0)
(0.441859 -0.0514708 1.39457e-18)
(0.441152 -0.0555592 -3.30443e-18)
(0.440275 -0.0599281 1.94584e-18)
(0.439202 -0.0646099 1.49987e-18)
(0.437908 -0.0696421 -4.06631e-18)
(0.436362 -0.0750679 -8.28298e-22)
(0.434528 -0.0809378 -1.62933e-18)
(0.43236 -0.0873107 4.12536e-20)
(0.429803 -0.0942562 -2.25509e-18)
(0.426787 -0.101856 -5.13688e-20)
(0.423226 -0.110208 2.46115e-18)
(0.419013 -0.119427 -1.2912e-18)
(0.414011 -0.129653 -1.30457e-18)
(0.408045 -0.141053 2.76513e-18)
(0.400888 -0.153826 0)
(0.392242 -0.168214 -2.91961e-18)
(0.381721 -0.184504 0)
(0.368769 -0.203058 -3.3736e-18)
(0.352786 -0.224224 3.4082e-18)
(0.332311 -0.248762 2.15516e-19)
(0.307773 -0.276231 3.88051e-18)
(0.27095 -0.309905 -5.26458e-18)
(0.234993 -0.352662 1.62874e-18)
(0.439662 -0.0336632 1.59089e-18)
(0.439354 -0.0360954 -5.26983e-20)
(0.438827 -0.0388738 2.03354e-18)
(0.438417 -0.0418596 6.63024e-19)
(0.437978 -0.0450257 0)
(0.437373 -0.0483825 1.82235e-18)
(0.436591 -0.0519481 1.41253e-18)
(0.435648 -0.0557416 -2.38776e-18)
(0.434536 -0.0597846 9.63662e-19)
(0.433223 -0.064103 -9.87282e-19)
(0.431682 -0.0687274 -2.05801e-18)
(0.429882 -0.073692 2.11496e-18)
(0.427786 -0.0790367 -5.586e-19)
(0.425352 -0.0848071 1.67712e-18)
(0.422525 -0.0910568 -5.46942e-19)
(0.419239 -0.0978483 -6.0269e-19)
(0.415415 -0.105255 3.74133e-18)
(0.410956 -0.113361 -3.8828e-18)
(0.405738 -0.122269 2.66716e-18)
(0.399609 -0.132094 7.25037e-19)
(0.392376 -0.142976 -2.16922e-18)
(0.383789 -0.155076 1.57754e-18)
(0.373529 -0.168584 0)
(0.361181 -0.183717 -8.68642e-19)
(0.346177 -0.200736 4.51445e-18)
(0.327862 -0.219876 0)
(0.304873 -0.241646 -7.40919e-18)
(0.277399 -0.265505 1.15761e-18)
(0.237397 -0.294283 0)
(0.200758 -0.328193 -5.52534e-18)
(0.434981 -0.0376853 -8.55492e-19)
(0.434352 -0.0401105 -1.08858e-19)
(0.43348 -0.0428526 -6.73012e-19)
(0.432745 -0.0457914 -1.0187e-18)
(0.431978 -0.0489044 2.32872e-19)
(0.431019 -0.0522021 -2.38092e-19)
(0.429856 -0.0557016 -9.70502e-19)