/*--------------------------------*- C++ -*----------------------------------*\
  =========                 |
  \\      /  F ield         | OpenFOAM: The Open Source CFD Toolbox
   \\    /   O peration     | Website:  https://openfoam.org
    \\  /    A nd           | Version:  11
     \\/     M anipulation  |
\*---------------------------------------------------------------------------*/
FoamFile
{
    format      ascii;
    class       volScalarField;
    location    "2.3";
    object      p;
}
// * * * * * * * * * * * * * * * * * * * * * * * * * * * * * * * * * * * * * //

dimensions      [0 2 -2 0 0 0 0];

internalField   nonuniform List<scalar> 
12600
(
0.064254
0.0641184
0.0640553
0.0640381
0.0640236
0.0640036
0.0639817
0.0639598
0.0639375
0.0639141
0.0638889
0.0638614
0.0638311
0.0637974
0.0637592
0.0637157
0.0636654
0.0636073
0.0635396
0.0634596
0.0633642
0.06325
0.0631128
0.0629467
0.0627437
0.0624934
0.0621847
0.0617941
0.0613043
0.0606116
0.0641789
0.0641092
0.0640574
0.064037
0.0640215
0.0640023
0.0639809
0.0639592
0.0639371
0.0639139
0.0638889
0.0638616
0.0638316
0.0637981
0.0637603
0.0637171
0.0636675
0.0636101
0.0635431
0.0634641
0.0633702
0.0632579
0.0631224
0.0629581
0.0627582
0.062512
0.0622125
0.0618297
0.0613948
0.060927
0.064143
0.0641101
0.0640653
0.0640388
0.0640217
0.0640033
0.0639825
0.0639609
0.063939
0.063916
0.0638912
0.0638642
0.0638345
0.0638015
0.0637644
0.0637222
0.0636737
0.0636175
0.0635516
0.063474
0.0633822
0.0632724
0.0631402
0.0629802
0.0627857
0.0625473
0.0622559
0.0618956
0.0614764
0.0609815
0.0641179
0.0640977
0.0640625
0.064036
0.0640185
0.0640012
0.0639813
0.0639603
0.0639389
0.0639164
0.0638921
0.0638657
0.0638366
0.0638042
0.063768
0.063727
0.06368
0.0636253
0.0635613
0.0634863
0.0633975
0.0632915
0.0631642
0.0630103
0.0628233
0.0625949
0.0623158
0.0619743
0.0615598
0.0610565
0.0640995
0.0640864
0.0640604
0.0640364
0.0640187
0.0640018
0.0639827
0.0639624
0.0639413
0.0639193
0.0638956
0.0638698
0.0638416
0.06381
0.0637748
0.0637349
0.0636894
0.0636367
0.0635754
0.0635035
0.0634185
0.0633174
0.0631961
0.0630499
0.0628726
0.0626565
0.0623924
0.0620694
0.0616682
0.0611809
0.0640858
0.0640767
0.0640569
0.0640355
0.0640177
0.064001
0.0639828
0.0639631
0.0639426
0.0639211
0.063898
0.0638727
0.0638455
0.0638153
0.0637814
0.0637431
0.0636995
0.0636494
0.0635911
0.063523
0.0634428
0.0633475
0.0632336
0.0630965
0.0629308
0.0627293
0.0624828
0.0621813
0.0618023
0.0613409
0.0640754
0.0640687
0.0640531
0.0640344
0.0640173
0.064001
0.0639837
0.0639649
0.063945
0.0639242
0.063902
0.063878
0.0638514
0.0638224
0.06379
0.0637536
0.0637123
0.063665
0.0636103
0.0635465
0.0634717
0.0633832
0.0632778
0.0631514
0.0629989
0.0628141
0.0625882
0.0623118
0.0619617
0.0615355
0.0640674
0.0640621
0.0640495
0.0640332
0.0640171
0.0640013
0.0639847
0.0639666
0.0639475
0.0639273
0.0639058
0.0638827
0.0638574
0.0638297
0.0637991
0.0637648
0.0637261
0.0636819
0.0636312
0.0635723
0.0635036
0.0634227
0.0633267
0.0632122
0.0630747
0.0629086
0.0627059
0.0624583
0.0621433
0.0617606
0.0640613
0.064057
0.0640465
0.0640322
0.0640171
0.0640019
0.0639859
0.0639687
0.0639503
0.0639309
0.0639103
0.0638883
0.0638643
0.0638382
0.0638094
0.0637775
0.0637416
0.063701
0.0636546
0.0636011
0.063539
0.0634664
0.0633809
0.0632794
0.0631582
0.0630126
0.0628357
0.0626203
0.0623457
0.0620139
0.0640568
0.0640532
0.0640441
0.0640314
0.0640173
0.0640028
0.0639874
0.0639709
0.0639533
0.0639348
0.0639152
0.0638942
0.0638716
0.0638472
0.0638205
0.063791
0.0637582
0.0637213
0.0636796
0.0636319
0.063577
0.0635133
0.0634388
0.0633513
0.0632476
0.0631241
0.062975
0.0627949
0.0625654
0.0622908
0.0640536
0.0640504
0.0640425
0.064031
0.0640178
0.0640039
0.0639892
0.0639735
0.0639567
0.063939
0.0639204
0.0639006
0.0638795
0.0638568
0.0638323
0.0638054
0.0637759
0.0637431
0.0637063
0.0636647
0.0636173
0.063563
0.0635002
0.0634274
0.0633421
0.0632419
0.0631224
0.06298
0.0627995
0.0625875
0.0640515
0.0640486
0.0640415
0.064031
0.0640186
0.0640054
0.0639913
0.0639762
0.0639602
0.0639434
0.0639259
0.0639074
0.0638878
0.0638669
0.0638446
0.0638206
0.0637944
0.0637658
0.0637341
0.0636988
0.0636593
0.0636147
0.0635641
0.0635064
0.0634403
0.0633641
0.0632754
0.0631724
0.0630438
0.0628986
0.0640504
0.0640478
0.0640412
0.0640314
0.0640198
0.0640071
0.0639936
0.0639792
0.063964
0.0639481
0.0639316
0.0639144
0.0638964
0.0638775
0.0638575
0.0638363
0.0638136
0.0637893
0.0637629
0.0637341
0.0637026
0.063668
0.0636298
0.0635875
0.0635408
0.0634892
0.0634318
0.0633692
0.0632941
0.0632182
0.0640503
0.0640477
0.0640416
0.0640324
0.0640213
0.0640091
0.0639961
0.0639824
0.063968
0.063953
0.0639375
0.0639216
0.0639052
0.0638882
0.0638707
0.0638524
0.0638333
0.0638133
0.0637923
0.0637701
0.0637467
0.0637221
0.0636963
0.0636696
0.0636423
0.0636152
0.0635892
0.0635669
0.0635457
0.0635398
0.064051
0.0640485
0.0640426
0.0640338
0.0640231
0.0640114
0.0639989
0.0639857
0.063972
0.063958
0.0639436
0.063929
0.0639142
0.0638992
0.063884
0.0638687
0.0638532
0.0638375
0.0638219
0.0638063
0.0637911
0.0637765
0.063763
0.0637516
0.0637434
0.0637404
0.063745
0.0637621
0.0637937
0.0638564
0.0640525
0.0640501
0.0640443
0.0640357
0.0640252
0.0640139
0.0640018
0.0639892
0.0639762
0.063963
0.0639497
0.0639364
0.0639232
0.0639102
0.0638974
0.063885
0.063873
0.0638618
0.0638515
0.0638425
0.0638352
0.0638304
0.063829
0.0638325
0.0638428
0.063863
0.063897
0.0639515
0.0640333
0.0641608
0.0640548
0.0640525
0.0640467
0.064038
0.0640277
0.0640165
0.0640049
0.0639928
0.0639805
0.0639681
0.0639558
0.0639438
0.0639322
0.0639211
0.0639107
0.0639011
0.0638927
0.0638858
0.0638807
0.0638781
0.0638786
0.0638833
0.0638936
0.0639114
0.0639394
0.0639813
0.0640429
0.0641321
0.0642599
0.0644461
0.0640579
0.0640556
0.0640496
0.0640407
0.0640304
0.0640194
0.0640081
0.0639965
0.0639847
0.0639731
0.0639619
0.0639511
0.063941
0.0639318
0.0639237
0.063917
0.063912
0.0639092
0.0639092
0.0639128
0.0639208
0.0639347
0.0639561
0.0639874
0.0640318
0.0640941
0.0641807
0.064301
0.0644693
0.0647063
0.0640619
0.0640594
0.0640531
0.0640438
0.0640333
0.0640224
0.0640114
0.0640001
0.0639889
0.0639781
0.0639678
0.0639583
0.0639497
0.0639423
0.0639364
0.0639324
0.0639307
0.0639319
0.0639368
0.0639463
0.0639615
0.0639839
0.0640157
0.0640596
0.0641193
0.0641998
0.0643087
0.064456
0.0646585
0.0649363
0.0640668
0.0640641
0.0640571
0.0640473
0.0640364
0.0640255
0.0640147
0.0640038
0.0639931
0.0639829
0.0639735
0.0639651
0.0639579
0.0639523
0.0639485
0.0639471
0.0639486
0.0639537
0.0639632
0.0639782
0.0640001
0.0640306
0.0640721
0.0641275
0.0642009
0.0642977
0.0644257
0.0645955
0.064825
0.0651329
0.0640727
0.0640696
0.0640617
0.064051
0.0640396
0.0640287
0.064018
0.0640073
0.0639971
0.0639875
0.063979
0.0639717
0.0639658
0.0639618
0.0639601
0.0639611
0.0639656
0.0639742
0.063988
0.0640082
0.0640364
0.0640743
0.0641246
0.0641904
0.0642759
0.0643867
0.0645308
0.0647184
0.0649676
0.0652945
0.0640798
0.064076
0.0640669
0.0640548
0.0640429
0.0640319
0.0640213
0.0640108
0.0640008
0.0639919
0.0639841
0.0639778
0.0639732
0.0639708
0.0639709
0.0639742
0.0639814
0.0639934
0.0640112
0.0640362
0.0640701
0.0641148
0.0641729
0.0642479
0.064344
0.0644666
0.0646237
0.0648246
0.0650865
0.0654221
0.0640882
0.0640835
0.0640725
0.0640587
0.0640461
0.064035
0.0640244
0.064014
0.0640044
0.0639959
0.0639889
0.0639835
0.06398
0.0639789
0.0639808
0.0639861
0.0639959
0.0640109
0.0640323
0.0640617
0.0641006
0.0641513
0.0642165
0.0642995
0.0644044
0.0645368
0.0647039
0.064914
0.0651826
0.0655178
0.0640983
0.0640922
0.0640783
0.0640624
0.0640492
0.0640381
0.0640275
0.064017
0.0640076
0.0639997
0.0639934
0.0639888
0.0639864
0.0639865
0.0639899
0.0639972
0.0640092
0.064027
0.0640517
0.0640849
0.0641283
0.0641844
0.0642556
0.0643454
0.0644577
0.0645978
0.0647722
0.064988
0.0652584
0.0655866
0.0641106
0.0641022
0.0640842
0.0640658
0.0640522
0.0640411
0.0640301
0.0640195
0.0640103
0.0640028
0.063997
0.0639931
0.0639915
0.0639928
0.0639976
0.0640065
0.0640205
0.0640406
0.0640682
0.0641047
0.0641522
0.0642127
0.0642891
0.0643845
0.0645029
0.0646488
0.0648282
0.0650469
0.0653158
0.0656332
0.064126
0.0641136
0.0640895
0.0640686
0.0640552
0.0640443
0.0640331
0.0640224
0.0640133
0.0640062
0.0640009
0.0639976
0.0639968
0.063999
0.064005
0.0640153
0.064031
0.0640531
0.0640831
0.0641225
0.0641732
0.0642376
0.0643182
0.0644182
0.0645412
0.0646913
0.0648737
0.065093
0.0653589
0.0656648
0.0641457
0.0641264
0.0640932
0.0640698
0.0640569
0.0640458
0.0640342
0.0640233
0.0640145
0.0640077
0.0640028
0.0640001
0.064
0.0640031
0.06401
0.0640215
0.0640386
0.0640625
0.0640944
0.0641362
0.0641897
0.0642572
0.0643412
0.0644447
0.0645712
0.064724
0.0649077
0.0651259
0.0653896
0.0656863
0.0641719
0.06414
0.0640973
0.0640737
0.0640613
0.0640495
0.0640371
0.0640261
0.0640174
0.0640107
0.064006
0.0640036
0.0640039
0.0640076
0.0640152
0.0640276
0.0640458
0.064071
0.0641044
0.0641478
0.0642034
0.0642732
0.0643598
0.064466
0.0645948
0.0647491
0.0649324
0.0651469
0.0654087
0.0657102
0.0642085
0.0641399
0.0640905
0.0640729
0.0640621
0.0640495
0.0640367
0.0640259
0.0640175
0.0640111
0.0640067
0.0640046
0.0640054
0.0640095
0.0640177
0.0640308
0.0640498
0.0640759
0.0641106
0.0641555
0.0642126
0.064284
0.0643724
0.0644804
0.0646108
0.0647659
0.0649476
0.0651555
0.0654017
0.0657189
0.0642843
0.0641493
0.0640886
0.0640744
0.0640647
0.0640514
0.0640382
0.0640273
0.0640189
0.0640125
0.0640081
0.0640062
0.0640071
0.0640114
0.0640198
0.0640332
0.0640526
0.0640793
0.0641147
0.0641606
0.0642183
0.0642906
0.06438
0.0644891
0.0646205
0.0647762
0.0649564
0.0651591
0.0653644
0.0655302
0.0605838
0.0598251
0.0594369
0.0594007
0.0593579
0.0592133
0.0590213
0.0588286
0.0586461
0.058472
0.0583057
0.058148
0.0579984
0.0578558
0.0577185
0.0575849
0.0574524
0.0573175
0.0571744
0.0570135
0.0568202
0.0565637
0.0562263
0.0556047
0.0549973
0.0525767
0.0522895
0.0396647
0.0437537
-0.0279135
0.0610476
0.0603499
0.0598878
0.0597813
0.0596714
0.0594836
0.0592831
0.0591091
0.0589562
0.0588133
0.0586785
0.0585534
0.0584382
0.0583324
0.0582355
0.0581471
0.0580663
0.0579913
0.0579187
0.0578426
0.0577524
0.0576291
0.057444
0.0570929
0.0566393
0.0550541
0.0545074
0.0449407
0.0474849
-0.0133775
0.0606275
0.0602312
0.059964
0.059887
0.0598009
0.0596516
0.0594974
0.0593656
0.0592475
0.0591352
0.0590307
0.0589377
0.0588571
0.0587891
0.0587343
0.0586935
0.0586671
0.0586554
0.0586576
0.0586715
0.0586918
0.0587075
0.0586963
0.0585996
0.0583983
0.0575061
0.0570417
0.0501315
0.0516976
0.00139617
0.0606099
0.0604113
0.0602626
0.0601626
0.0600545
0.0599221
0.0597952
0.0596884
0.0595956
0.059512
0.0594398
0.0593819
0.0593393
0.059313
0.0593046
0.0593161
0.0593498
0.0594079
0.0594927
0.059606
0.0597479
0.0599157
0.0600978
0.0602654
0.0603778
0.060117
0.0599733
0.0554106
0.0564983
0.0160931
0.0607147
0.060586
0.0604849
0.0603876
0.0602893
0.0601916
0.060104
0.0600308
0.0599697
0.0599195
0.0598826
0.059862
0.0598597
0.0598779
0.0599192
0.0599872
0.0600858
0.0602196
0.0603939
0.0606148
0.0608884
0.0612204
0.0616119
0.0620571
0.0625268
0.0628628
0.0632286
0.0607406
0.061878
0.0305867
0.0608854
0.060803
0.0607449
0.0606701
0.0605913
0.0605216
0.0604643
0.0604197
0.0603879
0.0603702
0.0603691
0.0603875
0.060428
0.0604937
0.0605885
0.0607172
0.0608857
0.0611011
0.0613719
0.0617086
0.0621237
0.0626319
0.0632475
0.0639859
0.0648421
0.0657647
0.066767
0.0661402
0.0677202
0.0448143
0.061106
0.0610585
0.0610333
0.0609805
0.0609224
0.0608792
0.0608525
0.0608394
0.0608403
0.0608578
0.0608949
0.0609547
0.0610405
0.0611567
0.0613083
0.0615017
0.0617448
0.0620471
0.0624208
0.062881
0.0634466
0.0641415
0.0649937
0.0660393
0.0673025
0.0688101
0.0705315
0.0715819
0.0739058
0.0586342
0.0613661
0.0613487
0.0613531
0.0613247
0.0612907
0.0612751
0.0612789
0.0612974
0.0613313
0.0613845
0.0614605
0.0615631
0.0616964
0.0618655
0.0620769
0.0623386
0.0626603
0.0630545
0.0635367
0.0641268
0.0648505
0.065741
0.0668398
0.0682035
0.0698868
0.0719788
0.0744652
0.077031
0.0803405
0.071862
0.0616622
0.0616721
0.0617038
0.0617002
0.061691
0.0617028
0.0617365
0.0617869
0.0618548
0.0619448
0.0620613
0.0622084
0.0623909
0.0626151
0.0628889
0.0632217
0.0636254
0.0641153
0.0647104
0.0654357
0.0663232
0.0674155
0.0687677
0.0704557
0.0725649
0.0752364
0.0785037
0.0824373
0.0869048
0.0843179
0.0619893
0.0620246
0.0620817
0.062103
0.0621194
0.0621588
0.0622225
0.0623051
0.0624075
0.062535
0.0626926
0.0628851
0.063118
0.0633988
0.0637365
0.0641423
0.0646304
0.0652185
0.0659294
0.0667928
0.0678474
0.0691448
0.070753
0.0727664
0.0752994
0.0785373
0.082576
0.0877378
0.0934624
0.095832
0.0623433
0.062402
0.0624825
0.0625284
0.0625705
0.0626375
0.0627308
0.0628454
0.0629824
0.0631475
0.0633464
0.0635846
0.0638685
0.0642064
0.0646088
0.0650885
0.0656617
0.0663489
0.0671765
0.0681787
0.0694006
0.0709024
0.0727643
0.0750978
0.0780442
0.0818255
0.0866038
0.0928569
0.0998639
0.106256
0.0627176
0.0627977
0.0628996
0.0629695
0.0630373
0.0631313
0.0632537
0.0633997
0.0635708
0.0637731
0.0640129
0.0642963
0.0646306
0.0650251
0.0654916
0.0660445
0.066702
0.0674872
0.0684298
0.0695686
0.0709546
0.0726558
0.0747638
0.0774051
0.0807453
0.0850363
0.0905025
0.097707
0.105951
0.11546
0.0631054
0.0632048
0.0633256
0.0634183
0.0635112
0.0636314
0.0637817
0.063958
0.064162
0.0644002
0.0646795
0.0650067
0.0653898
0.0658391
0.0663677
0.0669914
0.0677304
0.0686101
0.0696635
0.0709334
0.0724761
0.0743671
0.0767075
0.0796373
0.0833425
0.088098
0.0941827
0.102193
0.111557
0.123294
0.0634978
0.0636142
0.0637512
0.0638653
0.0639822
0.0641272
0.0643037
0.0645083
0.0647433
0.0650154
0.0653319
0.0657002
0.0661292
0.0666302
0.0672171
0.0679073
0.0687227
0.069691
0.0708479
0.0722398
0.073928
0.0759938
0.0785472
0.0817388
0.0857709
0.0909356
0.0975542
0.106218
0.116515
0.129551
0.0638856
0.0640163
0.0641667
0.0643001
0.0644393
0.0646071
0.0648072
0.0650376
0.0653008
0.0656036
0.0659539
0.0663596
0.0668303
0.067378
0.0680178
0.0687682
0.0696527
0.0707009
0.071951
0.0734524
0.0752704
0.0774915
0.0802322
0.0836518
0.0879649
0.093474
0.100531
0.109697
0.120696
0.134168
0.0642586
0.0644009
0.0645617
0.0647118
0.0648708
0.0650587
0.0652795
0.0655321
0.0658198
0.0661493
0.0665288
0.0669669
0.0674736
0.0680618
0.0687471
0.0695495
0.0704934
0.0716103
0.0729401
0.074535
0.0764631
0.078815
0.0817123
0.0853198
0.0898605
0.0956414
0.103033
0.112548
0.124016
0.137431
0.064607
0.064758
0.0649261
0.0650897
0.0652656
0.0654702
0.0657077
0.0659784
0.0662859
0.0666372
0.0670403
0.0675045
0.0680402
0.0686609
0.069383
0.070227
0.0712187
0.0723905
0.073784
0.0754531
0.0774682
0.0799225
0.0829406
0.0866906
0.0913997
0.0973737
0.104991
0.114704
0.126418
0.139395
0.0649216
0.0650785
0.0652506
0.0654244
0.0656133
0.0658306
0.0660805
0.0663644
0.0666863
0.0670532
0.0674735
0.0679564
0.068513
0.069157
0.0699054
0.0707793
0.0718051
0.0730161
0.0744549
0.0761765
0.0782524
0.0807772
0.0838769
0.0877201
0.092534
0.0986181
0.106347
0.116106
0.127837
0.13985
0.065195
0.0653548
0.065528
0.065708
0.0659057
0.0661312
0.0663885
0.06668
0.0670103
0.0673864
0.0678164
0.0683098
0.0688781
0.0695352
0.0702984
0.0711891
0.072234
0.073467
0.074931
0.0766813
0.0787899
0.0813512
0.0844907
0.0883751
0.0932277
0.099336
0.107061
0.116703
0.12817
0.138899
0.0654223
0.0655822
0.0657536
0.0659356
0.0661374
0.0663662
0.0666257
0.066919
0.0672512
0.0676292
0.068061
0.0685563
0.0691265
0.0697858
0.0705514
0.071445
0.0724932
0.0737299
0.0751979
0.0769522
0.0790642
0.081627
0.0847635
0.0886361
0.0934603
0.099506
0.107109
0.116459
0.12739
0.136651
0.065601
0.0657582
0.065925
0.066105
0.066306
0.066533
0.0667892
0.0670782
0.0674056
0.0677781
0.0682037
0.0686918
0.0692539
0.0699042
0.0706597
0.0715419
0.0725773
0.0737993
0.07525
0.0769835
0.0790695
0.0815986
0.0846898
0.0884981
0.0932279
0.0991248
0.106491
0.115381
0.125634
0.132997
0.0657329
0.0658849
0.0660444
0.0662184
0.0664137
0.0666338
0.0668812
0.06716
0.0674758
0.0678354
0.0682465
0.0687184
0.0692625
0.0698925
0.0706255
0.0714824
0.0724891
0.0736782
0.0750909
0.0767796
0.0788115
0.0812737
0.0842794
0.0879744
0.0925486
0.0982164
0.105242
0.113517
0.123025
0.127805
0.0658213
0.0659656
0.0661153
0.0662794
0.0664646
0.0666729
0.0669064
0.0671694
0.0674676
0.0678074
0.0681964
0.0686436
0.0691601
0.0697594
0.070458
0.0712763
0.0722393
0.0733785
0.0747336
0.0763549
0.0783064
0.0806706
0.0835537
0.0870899
0.0914521
0.0968155
0.103412
0.110923
0.119648
0.121317
0.0658749
0.0660091
0.0661462
0.0662967
0.0664671
0.0666588
0.0668732
0.0671146
0.0673887
0.067702
0.0680616
0.0684761
0.0689562
0.069515
0.0701683
0.0709357
0.0718414
0.0729152
0.074195
0.0757283
0.0775755
0.0798134
0.08254
0.0858757
0.0899746
0.0949662
0.101062
0.107679
0.115594
0.113876
0.0659021
0.0660242
0.0661454
0.0662788
0.0664319
0.0666046
0.0667969
0.0670125
0.0672574
0.0675382
0.0678617
0.0682361
0.0686716
0.0691807
0.0697785
0.0704838
0.0713193
0.0723135
0.0735019
0.074929
0.0766509
0.0787379
0.0812789
0.0843787
0.0881721
0.0927367
0.0982803
0.103885
0.110987
0.105391
0.0659201
0.0660278
0.0661255
0.0662337
0.0663639
0.0665135
0.0666797
0.0668658
0.0670779
0.067322
0.0676046
0.0679333
0.0683179
0.0687703
0.0693049
0.0699393
0.0706948
0.0715979
0.0726817
0.0739872
0.075566
0.0774817
0.0798133
0.0826488
0.086104
0.090197
0.0951535
0.0996229
0.105972
0.095788
0.0659442
0.0660348
0.0661046
0.0661906
0.0663016
0.0664262
0.0665605
0.0667107
0.0668843
0.0670864
0.0673224
0.0675991
0.0679259
0.0683142
0.0687776
0.0693327
0.0699991
0.0708013
0.0717702
0.0729432
0.0743664
0.0760957
0.0782001
0.0807495
0.0838424
0.0874268
0.0917786
0.0949746
0.100664
0.085229
0.0660263
0.0660365
0.0660235
0.0660834
0.0661935
0.0663071
0.0664155
0.06653
0.0666636
0.0668226
0.0670105
0.0672332
0.0674993
0.0678194
0.0682069
0.0686776
0.0692487
0.0699409
0.0707838
0.071812
0.0730674
0.074598
0.0764617
0.0787091
0.0814245
0.0844687
0.0882246
0.0899912
0.0951723
0.0739726
0.0663999
0.066247
0.0660619
0.0660497
0.0661339
0.06623
0.066314
0.0663907
0.0664781
0.0665863
0.0667197
0.0668834
0.0670841
0.067331
0.067637
0.0680191
0.0684946
0.0690785
0.0697974
0.0706801
0.0717646
0.0730922
0.0747102
0.0766481
0.07898
0.0814562
0.0846414
0.0848035
0.0896326
0.0622696
0.0663442
0.0660029
0.0658602
0.0659346
0.0660485
0.0661267
0.0661728
0.0662177
0.0662706
0.066335
0.066415
0.0665173
0.0666505
0.0668228
0.0670433
0.0673212
0.0676753
0.0681323
0.0687107
0.0694346
0.0703353
0.0714465
0.0728078
0.074423
0.0763764
0.0782445
0.080956
0.0792905
0.0840284
0.0502978
0.0394472
0.0282876
0.0160075
0.00316069
-0.00969389
-0.0222443
-0.034197
-0.0452072
-0.0548805
-0.0627523
-0.0683415
-0.0713474
-0.072112
-0.0718579
-0.0724874
-0.0747081
-0.078145
-0.081721
-0.083858
-0.0844229
-0.0846627
-0.0850566
-0.0855291
-0.0861908
-0.0872966
-0.0888468
-0.0904872
-0.0916689
-0.0921152
-0.0915166
0.0782378
0.0703145
0.061391
0.0522794
0.0429002
0.0329533
0.0225607
0.0120287
0.00155467
-0.00865265
-0.0184677
-0.0271873
-0.0346571
-0.0412875
-0.0478983
-0.0559003
-0.0649781
-0.0737601
-0.0799084
-0.0823478
-0.0824146
-0.0827193
-0.0841936
-0.087353
-0.0917088
-0.0967307
-0.102048
-0.106915
-0.110508
-0.111388
0.0746042
0.0691665
0.0629466
0.0561807
0.0483532
0.0394768
0.0298537
0.0196563
0.00925924
-0.000695956
-0.00993769
-0.0184416
-0.0261132
-0.0331498
-0.0402574
-0.0482612
-0.0570321
-0.0642285
-0.0689646
-0.0725287
-0.0754891
-0.0794754
-0.0855417
-0.092627
-0.100235
-0.107898
-0.114127
-0.116495
-0.115173
-0.11005
0.0779848
0.0745132
0.0702208
0.0648935
0.0585734
0.0513172
0.0431349
0.0341326
0.02456
0.0147142
0.00483935
-0.00472888
-0.0136919
-0.0220122
-0.0299036
-0.0375532
-0.044575
-0.0501884
-0.0547821
-0.0597905
-0.0648793
-0.0702006
-0.0767497
-0.0832856
-0.0880953
-0.0892149
-0.0851015
-0.0755343
-0.0630665
-0.0486587
0.0758559
0.0734531
0.0704202
0.0665613
0.0618228
0.0561072
0.0494071
0.0417389
0.0331877
0.0239746
0.0144298
0.00492273
-0.00421081
-0.0127688
-0.0206974
-0.0279894
-0.0344932
-0.0400188
-0.0447342
-0.0489392
-0.0523002
-0.0549348
-0.0568048
-0.0567742
-0.0523245
-0.0430554
-0.0299306
-0.012652
0.00653771
0.0251965
0.0745593
0.0729497
0.0708337
0.0678915
0.0640271
0.0592411
0.0534882
0.0467204
0.0389688
0.0303974
0.0212969
0.0120277
0.00295988
-0.00560219
-0.0134725
-0.0205535
-0.0267229
-0.0317835
-0.0356284
-0.0382204
-0.0393614
-0.0388164
-0.0359448
-0.0295804
-0.0193733
-0.00546483
0.0111724
0.0294172
0.0481849
0.0645403
0.0729458
0.0718044
0.0702665
0.0679962
0.0649154
0.0609954
0.0561476
0.0502771
0.0433647
0.0355133
0.0269552
0.0180292
0.00913321
0.000649365
-0.00712387
-0.0139712
-0.0196829
-0.0240061
-0.0267457
-0.0277535
-0.0267317
-0.0232087
-0.0166051
-0.00669092
0.0063894
0.0218228
0.0384082
0.0548188
0.0700468
0.0812117
0.0715955
0.0707808
0.0696546
0.0678807
0.0653714
0.0620882
0.0579366
0.052798
0.0466129
0.0394327
0.0314379
0.0229361
0.0143301
0.00605209
-0.00150987
-0.00803528
-0.0132316
-0.0168006
-0.0184782
-0.0180009
-0.0150051
-0.009105
-0.000138939
0.0117144
0.0258019
0.0408596
0.0556708
0.0690232
0.080305
0.0864754
0.0704283
0.0698211
0.0689637
0.0675385
0.0654594
0.0626858
0.0591064
0.0545844
0.0490309
0.0424579
0.0350046
0.0269482
0.0186874
0.0106874
0.00340538
-0.00275355
-0.00742296
-0.0102502
-0.0109058
-0.00907399
-0.00444774
0.00313955
0.013528
0.0261425
0.0399333
0.0536939
0.0660241
0.0759934
0.0833545
0.0847067
0.0694683
0.0690001
0.0683275
0.0671579
0.065408
0.0630285
0.0599062
0.0558949
0.0508849
0.0448561
0.0379107
0.030295
0.0223978
0.0147068
0.00773378
0.00195669
-0.0021898
-0.00430194
-0.00401606
-0.00103213
0.00483535
0.0135257
0.0245931
0.0371646
0.0500215
0.0618492
0.0714682
0.07812
0.0817901
0.0796367
0.0686877
0.0683105
0.0677615
0.066776
0.0652744
0.0632041
0.0604514
0.0568658
0.0523227
0.0467772
0.0402998
0.0331079
0.0255768
0.0182081
0.0115571
0.00616337
0.00252037
0.00106889
0.00217556
0.00608522
0.0128379
0.0221457
0.0333191
0.045277
0.0567031
0.0663398
0.0731823
0.0766513
0.0763701
0.0721629
0.0680632
0.0677471
0.0672813
0.0664301
0.0651181
0.0632903
0.0608363
0.057603
0.0534574
0.0483356
0.0422821
0.0354879
0.0283133
0.0212671
0.0149386
0.00991796
0.00674583
0.00588413
0.00768316
0.0123023
0.0196257
0.0291671
0.0400271
0.0509874
0.0607238
0.0680984
0.0722824
0.0729997
0.0699337
0.0634026
0.0675712
0.0672969
0.066887
0.0661342
0.0649669
0.06333
0.0611163
0.0581751
0.0543681
0.0496168
0.0439441
0.0375177
0.0306824
0.0239499
0.0179351
0.0132686
0.0105277
0.0101815
0.0125491
0.0176837
0.0253193
0.0347963
0.0450492
0.0547857
0.0627388
0.0679257
0.0697333
0.0681366
0.0629378
0.0552881
0.0671902
0.0669444
0.0665733
0.0658942
0.0648381
0.0633518
0.0613321
0.0586331
0.0551136
0.0506844
0.0453511
0.0392611
0.0327435
0.0263097
0.0205938
0.0162581
0.0139061
0.0140035
0.0168274
0.0223063
0.0300529
0.0392468
0.048698
0.0571036
0.0632989
0.0664787
0.0662723
0.0628708
0.0563606
0.0484916
0.0668972
0.0666705
0.0663308
0.0657092
0.0647396
0.0633731
0.0615112
0.0590127
0.0557366
0.0515866
0.0465538
0.0407681
0.0345441
0.0283902
0.0229545
0.0189237
0.0169182
0.017392
0.0205766
0.0262537
0.0339542
0.0427102
0.0512518
0.0583109
0.0628575
0.0642858
0.0624919
0.0578807
0.0509953
0.0436723
0.0666686
0.0664618
0.0661501
0.0655752
0.0646749
0.0634049
0.061672
0.05934
0.0562698
0.0523604
0.0475921
0.0420792
0.036123
0.0302277
0.025051
0.0212982
0.0195981
0.0203883
0.0238127
0.0296244
0.0371639
0.0453685
0.0529531
0.0587146
0.0617789
0.0617621
0.0588335
0.0536192
0.0470991
0.0407495
0.0664933
0.0663077
0.0660212
0.0654864
0.0646441
0.0634534
0.0618269
0.0596338
0.0567376
0.0530349
0.0484976
0.043227
0.0375123
0.0318526
0.0269124
0.0234103
0.0219782
0.0230333
0.026615
0.0324838
0.0397865
0.0473736
0.0540045
0.058563
0.0603488
0.0592151
0.0555945
0.0503416
0.0446026
0.039589
0.0663637
0.0661975
0.0659344
0.0654363
0.0646453
0.0635221
0.0619835
0.0599077
0.0571588
0.0536331
0.0492961
0.0442385
0.0387386
0.0332906
0.0285633
0.0252852
0.0240874
0.0253589
0.02907
0.0349067
0.0418934
0.0488517
0.0545756
0.0580557
0.0587852
0.0568529
0.0529301
0.0480181
0.0433371
0.0398637
0.0662706
0.066122
0.0658815
0.0654185
0.0646751
0.0636119
0.0621494
0.0601715
0.0575476
0.0541731
0.0500085
0.0451359
0.0398244
0.0345633
0.030025
0.026945
0.0259506
0.0274035
0.0311885
0.0369551
0.0435879
0.0499316
0.054812
0.0573503
0.0572426
0.0547966
0.0508843
0.0465649
0.0430449
0.0410048
0.0662059
0.0660735
0.065855
0.0654267
0.0647298
0.0637221
0.0623263
0.0604326
0.0579154
0.0546698
0.0506523
0.0459379
0.0407884
0.0356892
0.0313154
0.0284087
0.0275899
0.0291818
0.0330291
0.038679
0.0449601
0.0507144
0.0548243
0.056563
0.0558232
0.0531046
0.0494301
0.0458211
0.0434236
0.0425648
0.0661633
0.0660457
0.0658481
0.0654542
0.0648051
0.0638518
0.0625161
0.0606965
0.058271
0.0551353
0.0512421
0.0466607
0.0416472
0.0366842
0.0324503
0.0296933
0.0290266
0.0307273
0.0346441
0.0401236
0.046071
0.0512734
0.0546977
0.0557763
0.0545882
0.0517973
0.0484602
0.0455834
0.044252
0.0443114
0.0661386
0.0660342
0.0658555
0.0654958
0.0648948
0.063997
0.0627198
0.060967
0.0586211
0.0555791
0.05179
0.047318
0.0424147
0.0375618
0.0334427
0.0308129
0.0302787
0.0320834
0.0360389
0.0413457
0.0469785
0.0516774
0.0545046
0.0550535
0.0535687
0.0508258
0.0478779
0.0457295
0.0453255
0.0460793
0.0661294
0.0660362
0.0658714
0.0655472
0.0649958
0.064153
0.0629355
0.0612465
0.0589721
0.0560098
0.0523063
0.0479213
0.0431034
0.0383344
0.034305
0.0317806
0.0313623
0.0332618
0.0372305
0.0423959
0.047735
0.0519783
0.0542879
0.0544173
0.0527558
0.050113
0.0475656
0.0461214
0.04651
0.0477761
0.0661334
0.0660511
0.0658947
0.0656041
0.0651042
0.0643181
0.0631608
0.0615338
0.0593272
0.0564349
0.0528014
0.0484812
0.0437225
0.0390101
0.0350448
0.0326058
0.0322916
0.0342782
0.0382619
0.0433207
0.0483899
0.0522302
0.0541029
0.0539091
0.0521426
0.0496064
0.0474513
0.0466699
0.0477151
0.0493384
0.0661478
0.0660759
0.0659228
0.0656634
0.0652157
0.0644896
0.0633957
0.0618309
0.0596861
0.0568567
0.0532837
0.0490119
0.0442886
0.0396043
0.0356751
0.0332978
0.0330717
0.0351379
0.0391432
0.0441341
0.0489591
0.0524364
0.0539317
0.0534844
0.0516402
0.0492124
0.0474429
0.0473349
0.0489403
0.050765
0.0661666
0.0661077
0.0659571
0.0657257
0.0653274
0.0646624
0.063638
0.0621424
0.0600551
0.0572748
0.0537454
0.0495027
0.0447933
0.0401118
0.0361972
0.0338722
0.0337371
0.0358905
0.0399409
0.0448905
0.0495138
0.0526773
0.0538573
0.0532048
0.0512521
0.0488549
0.0474464
0.0479706
0.0500448
0.0520186
0.0661874
0.0661391
0.0659926
0.0657912
0.0654381
0.064829
0.0638745
0.0624618
0.0604592
0.0577354
0.0542407
0.0500033
0.045276
0.040557
0.0366097
0.0343001
0.0342335
0.0364857
0.0406072
0.0455422
0.0499961
0.0528842
0.0538008
0.052984
0.0508949
0.0485034
0.0475593
0.0485972
0.0508827
0.0528845
0.066211
0.0661557
0.0660215
0.0658602
0.0655577
0.0649999
0.0640939
0.0627288
0.0607822
0.0581474
0.0546972
0.0504667
0.0457169
0.0409659
0.0369788
0.0346937
0.0347057
0.0370691
0.0412862
0.0462181
0.0505259
0.0532012
0.0538295
0.0528218
0.0504649
0.0481128
0.0478258
0.0496614
0.0520702
0.0537373
0.0662738
0.066166
0.0660361
0.0659115
0.0656794
0.0652117
0.0643942
0.0631166
0.0612208
0.0586031
0.0551482
0.050875
0.0460333
0.0411777
0.0370961
0.0348248
0.0349335
0.0374348
0.0417793
0.0467483
0.0509625
0.0534985
0.0539158
0.0526225
0.0499382
0.0475005
0.0473195
0.0497259
0.0525386
0.0542448
0.0663992
0.0662225
0.0660792
0.0659422
0.0657267
0.0653325
0.0646136
0.0634472
0.0617323
0.0592486
0.0558669
0.051602
0.0466928
0.041645
0.0373938
0.0350277
0.0352071
0.0379705
0.0425563
0.0476435
0.0517954
0.053889
0.05396
0.0522312
0.0493384
0.0474097
0.0483927
0.0511067
0.0535477
0.0545831
-0.0224433
-0.00806389
-0.022599
-0.00484912
0.000225354
0.0142479
0.0216019
0.029396
0.0339358
0.0383574
0.0412479
0.0435914
0.0452536
0.0464837
0.0473335
0.0479101
0.0482782
0.0484942
0.0486026
0.0486359
0.0486266
0.0485806
0.0485439
0.0484772
0.0485059
0.0484811
0.048699
0.0488289
0.0496497
0.0481064
-0.0228976
-0.00246174
-0.0217425
-0.00920603
-0.00345578
0.0110472
0.0194575
0.0274309
0.0326222
0.0372292
0.0405086
0.0430594
0.0449512
0.0463542
0.0473563
0.0480521
0.0485129
0.048796
0.048949
0.0490063
0.0490045
0.0489515
0.0488895
0.0487867
0.0487214
0.0485869
0.0485578
0.0483101
0.0484499
0.047588
-0.0229725
0.00569049
-0.0189281
-0.0156829
-0.00779001
0.00655273
0.0163886
0.0246707
0.0306845
0.0356227
0.0393878
0.0422751
0.0444753
0.0461287
0.0473396
0.0481987
0.048783
0.0491538
0.0493632
0.0494515
0.0494571
0.0493997
0.0493106
0.049184
0.0490548
0.0488726
0.0487649
0.048523
0.0484153
0.0481384
-0.024288
0.0106466
-0.0163345
-0.0239323
-0.0116132
0.00223046
0.0135736
0.0225572
0.0292443
0.0345698
0.0387381
0.0419335
0.0443797
0.0462282
0.04759
0.0485602
0.0492212
0.0496397
0.0498728
0.0499665
0.0499615
0.0498864
0.0497705
0.0496258
0.0494785
0.0493154
0.0492009
0.0490416
0.0489394
0.0487698
-0.0262867
0.0106802
-0.0146304
-0.032591
-0.0159821
-0.0025751
0.0104953
0.0205428
0.027846
0.0335985
0.0381444
0.0416463
0.0443337
0.0463755
0.0478895
0.0489752
0.0497186
0.0501909
0.0504528
0.0505548
0.0505409
0.0504456
0.0502995
0.0501234
0.0499401
0.0497524
0.0495871
0.0494206
0.0492827
0.0491062
-0.0279313
0.00775863
-0.0143486
-0.0403708
-0.0226825
-0.00868221
0.00646986
0.0179618
0.0260231
0.0322873
0.0372668
0.0411333
0.0441192
0.046408
0.0481235
0.0493683
0.0502313
0.0507872
0.0511001
0.0512255
0.0512111
0.0510968
0.0509166
0.0506968
0.0504606
0.0502206
0.0499944
0.04978
0.0495996
0.0494067
-0.0302074
0.00410818
-0.0159502
-0.0471801
-0.0325444
-0.016145
0.00133537
0.0146593
0.0237209
0.030613
0.0360983
0.0403897
0.0437314
0.04632
0.0482844
0.0497296
0.0507473
0.0514156
0.0518021
0.0519669
0.0519626
0.0518343
0.0516211
0.051355
0.0510638
0.0507674
0.0504851
0.0502213
0.0500021
0.0497752
-0.0341163
-0.00174939
-0.0210024
-0.0528943
-0.0445386
-0.0247951
-0.00516651
0.0105051
0.0209302
0.0286023
0.0346593
0.0394157
0.043151
0.0460785
0.0483316
0.0500161
0.051225
0.052038
0.052526
0.0527528
0.0527758
0.0526453
0.052405
0.0520927
0.0517415
0.0513783
0.0510282
0.0507007
0.0504299
0.050155
-0.039943
-0.0104448
-0.0303358
-0.0589893