/*--------------------------------*- C++ -*----------------------------------*\
  =========                 |
  \\      /  F ield         | OpenFOAM: The Open Source CFD Toolbox
   \\    /   O peration     | Website:  https://openfoam.org
    \\  /    A nd           | Version:  11
     \\/     M anipulation  |
\*---------------------------------------------------------------------------*/
FoamFile
{
    format      ascii;
    class       volScalarField;
    location    "2.3";
    object      p;
}
// * * * * * * * * * * * * * * * * * * * * * * * * * * * * * * * * * * * * * //

dimensions      [0 2 -2 0 0 0 0];

internalField   nonuniform List<scalar> 
12600
(
0.895581
0.895444
0.895367
0.895326
0.895279
0.895213
0.895132
0.895036
0.894921
0.894783
0.894616
0.894413
0.894166
0.893867
0.893502
0.893057
0.892512
0.891845
0.891025
0.890021
0.888792
0.887285
0.885431
0.883144
0.880318
0.876822
0.872485
0.867089
0.860395
0.851991
0.895511
0.895437
0.895371
0.895328
0.895279
0.895215
0.895135
0.895041
0.894928
0.894791
0.894626
0.894425
0.894182
0.893886
0.893525
0.893086
0.892549
0.891891
0.891081
0.890088
0.888874
0.887385
0.885554
0.883294
0.880501
0.877042
0.872748
0.867407
0.860744
0.85243
0.89548
0.895442
0.895385
0.895335
0.895286
0.895224
0.895146
0.895054
0.894942
0.894808
0.894646
0.89445
0.894212
0.893922
0.893569
0.893139
0.892614
0.89197
0.891179
0.89021
0.889024
0.887569
0.885778
0.883567
0.880833
0.877445
0.873233
0.867992
0.861412
0.853247
0.895463
0.895437
0.895388
0.895339
0.895291
0.895232
0.895158
0.895068
0.894961
0.894831
0.894674
0.894484
0.894253
0.893973
0.893632
0.893216
0.892708
0.892086
0.891323
0.890388
0.889243
0.887836
0.886103
0.883965
0.881319
0.878037
0.873949
0.868857
0.86243
0.854458
0.895453
0.895435
0.895396
0.895352
0.895303
0.895247
0.895176
0.89509
0.894986
0.894862
0.894712
0.89453
0.89431
0.894042
0.893716
0.893318
0.892833
0.892239
0.891511
0.89062
0.889526
0.888183
0.886528
0.884485
0.881953
0.87881
0.874888
0.869993
0.863784
0.856075
0.89545
0.895437
0.895405
0.895363
0.895317
0.895263
0.895196
0.895115
0.895017
0.894899
0.894757
0.894585
0.894377
0.894124
0.893817
0.893442
0.892984
0.892425
0.89174
0.890901
0.889871
0.888606
0.887046
0.885119
0.882729
0.879758
0.876042
0.871393
0.865466
0.85809
0.895453
0.895441
0.895414
0.895377
0.895334
0.895283
0.89522
0.895145
0.895053
0.894943
0.894811
0.894651
0.894457
0.894222
0.893936
0.893588
0.893163
0.892644
0.892009
0.891231
0.890276
0.889101
0.887653
0.885863
0.88364
0.880872
0.877402
0.873049
0.867465
0.860494
0.895459
0.895449
0.895426
0.895393
0.895353
0.895305
0.895248
0.895178
0.895094
0.894993
0.894871
0.894724
0.894547
0.894332
0.894071
0.893753
0.893365
0.892892
0.892313
0.891604
0.890734
0.889663
0.888342
0.886707
0.884676
0.882141
0.878954
0.874944
0.869768
0.863275
0.895468
0.89546
0.89544
0.895411
0.895374
0.895331
0.895279
0.895215
0.895139
0.895048
0.894938
0.894806
0.894647
0.894454
0.89422
0.893936
0.89359
0.893167
0.892651
0.892018
0.891241
0.890285
0.889105
0.887644
0.885825
0.883551
0.880684
0.877062
0.872355
0.866419
0.89548
0.895473
0.895456
0.89543
0.895398
0.895359
0.895312
0.895256
0.895189
0.895108
0.895011
0.894896
0.894756
0.894587
0.894383
0.894135
0.893834
0.893466
0.893017
0.892467
0.891792
0.890961
0.889934
0.888662
0.887075
0.885087
0.882572
0.879381
0.875204
0.869902
0.895495
0.895489
0.895474
0.895452
0.895423
0.895389
0.895349
0.8953
0.895242
0.895172
0.89509
0.894991
0.894872
0.894729
0.894557
0.894348
0.894094
0.893785
0.893408
0.892947
0.89238
0.891682
0.89082
0.889749
0.888412
0.886732
0.884598
0.881877
0.878285
0.87369
0.895511
0.895506
0.895494
0.895475
0.89545
0.895421
0.895387
0.895346
0.895297
0.89524
0.895172
0.895091
0.894995
0.894879
0.89474
0.894572
0.894369
0.894122
0.89382
0.893452
0.892999
0.892442
0.891752
0.890894
0.88982
0.888466
0.886737
0.884519
0.881562
0.877742
0.895529
0.895525
0.895515
0.895499
0.895479
0.895455
0.895427
0.895394
0.895355
0.89531
0.895258
0.895196
0.895122
0.895035
0.894931
0.894805
0.894654
0.894471
0.894248
0.893976
0.893642
0.893231
0.89272
0.892084
0.891284
0.890269
0.888965
0.887275
0.884994
0.882005
0.895549
0.895546
0.895537
0.895525
0.895508
0.89549
0.895468
0.895443
0.895415
0.895383
0.895346
0.895303
0.895253
0.895195
0.895126
0.895045
0.894947
0.89483
0.894688
0.894515
0.894302
0.89404
0.893713
0.893304
0.892784
0.892119
0.891251
0.890108
0.888531
0.886417
0.89557
0.895567
0.895561
0.895551
0.895539
0.895525
0.89551
0.895494
0.895476
0.895457
0.895435
0.895412
0.895387
0.895358
0.895325
0.895288
0.895245
0.895194
0.895134
0.895061
0.894972
0.89486
0.89472
0.89454
0.894305
0.893992
0.893566
0.892979
0.892121
0.890908
0.895592
0.89559
0.895585
0.895578
0.89557
0.895561
0.895553
0.895545
0.895537
0.895531
0.895526
0.895522
0.89552
0.895521
0.895525
0.895532
0.895544
0.89556
0.895582
0.895609
0.895643
0.895683
0.895729
0.895778
0.895826
0.895866
0.895881
0.895847
0.895708
0.8954
0.895614
0.895613
0.89561
0.895605
0.895601
0.895597
0.895595
0.895595
0.895598
0.895605
0.895615
0.895631
0.895654
0.895684
0.895724
0.895775
0.895841
0.895923
0.896026
0.896153
0.896309
0.896499
0.896729
0.897004
0.897331
0.897716
0.898164
0.898672
0.899236
0.899816
0.895637
0.895636
0.895634
0.895632
0.895631
0.895633
0.895637
0.895645
0.895658
0.895677
0.895703
0.895739
0.895785
0.895844
0.895919
0.896014
0.896133
0.89628
0.896463
0.896688
0.896963
0.897299
0.897708
0.898204
0.898802
0.899522
0.900386
0.901416
0.90265
0.904077
0.89566
0.89566
0.895659
0.895659
0.895662
0.895668
0.895678
0.895694
0.895717
0.895748
0.895789
0.895843
0.895912
0.895999
0.896109
0.896246
0.896416
0.896627
0.896887
0.897206
0.897597
0.898075
0.898657
0.899364
0.900222
0.901262
0.902521
0.904041
0.9059
0.908111
0.895684
0.895684
0.895684
0.895686
0.895691
0.895701
0.895718
0.895741
0.895773
0.895816
0.895872
0.895944
0.896034
0.896149
0.896291
0.896469
0.896689
0.89696
0.897294
0.897703
0.898205
0.898817
0.899564
0.900472
0.901576
0.902915
0.904543
0.906515
0.908941
0.911858
0.895707
0.895707
0.895708
0.895711
0.895719
0.895734
0.895755
0.895786
0.895827
0.895881
0.89595
0.896039
0.89615
0.89629
0.896464
0.89668
0.896947
0.897275
0.897679
0.898174
0.89878
0.899519
0.90042
0.901517
0.902849
0.904466
0.906431
0.908812
0.911739
0.915268
0.89573
0.89573
0.895731
0.895735
0.895746
0.895764
0.895791
0.895828
0.895877
0.895941
0.896024
0.896128
0.896259
0.896423
0.896626
0.896878
0.897188
0.89757
0.898039
0.898613
0.899316
0.900173
0.901218
0.902487
0.904029
0.905899
0.908166
0.91091
0.914268
0.91831
0.895754
0.895753
0.895754
0.895758
0.89577
0.895792
0.895824
0.895866
0.895923
0.895997
0.896091
0.89621
0.896359
0.896545
0.896775
0.897059
0.89741
0.897841
0.898369
0.899017
0.899808
0.900772
0.901947
0.903375
0.905105
0.9072
0.909735
0.912793
0.916513
0.920968
0.895777
0.895776
0.895774
0.895778
0.895793
0.895818
0.895853
0.895901
0.895965
0.896047
0.896152
0.896284
0.896449
0.896655
0.896909
0.897223
0.89761
0.898085
0.898667
0.89938
0.90025
0.901312
0.902603
0.90417
0.906068
0.908361
0.911127
0.914452
0.918467
0.923243
0.895802
0.895798
0.895794
0.895797
0.895813
0.89584
0.895879
0.895932
0.896001
0.896091
0.896206
0.896349
0.896529
0.896751
0.897027
0.897367
0.897785
0.898299
0.898928
0.899699
0.900639
0.901784
0.903178
0.904867
0.90691
0.909372
0.912334
0.91588
0.920132
0.925147
0.895827
0.89582
0.89581
0.895812
0.89583
0.895861
0.895902
0.895959
0.896033
0.89613
0.896252
0.896406
0.896597
0.896835
0.897128
0.897491
0.897936
0.898483
0.899152
0.899971
0.90097
0.902188
0.903667
0.90546
0.907625
0.910228
0.913352
0.917077
0.921515
0.926708
0.895855
0.895842
0.895823
0.895824
0.895843
0.895876
0.89592
0.89598
0.896058
0.89616
0.896289
0.896451
0.896652
0.896902
0.89721
0.897591
0.898058
0.898632
0.899334
0.900193
0.90124
0.902516
0.904066
0.905943
0.908207
0.910923
0.914174
0.918041
0.922628
0.927955
0.895887
0.895862
0.895835
0.895835
0.895857
0.89589
0.895935
0.895997
0.896079
0.896185
0.896319
0.896487
0.896695
0.896955
0.897275
0.897669
0.898153
0.898747
0.899474
0.900363
0.901448
0.902768
0.904372
0.906316
0.908655
0.911456
0.914803
0.918774
0.92348
0.928926
0.895927
0.895867
0.895834
0.89584
0.895863
0.895897
0.895944
0.896008
0.896092
0.896201
0.896338
0.89651
0.896724
0.89699
0.897318
0.897721
0.898217
0.898825
0.89957
0.900479
0.901589
0.902939
0.904581
0.906572
0.908966
0.911825
0.915237
0.919277
0.924064
0.92961
0.896004
0.895878
0.895835
0.895844
0.895869
0.895903
0.895949
0.896014
0.8961
0.89621
0.896349
0.896524
0.896741
0.89701
0.897342
0.897751
0.898253
0.898869
0.899624
0.900545
0.901669
0.903038
0.9047
0.906713
0.909132
0.912023
0.915469
0.919551
0.924351
0.929896
0.844575
0.841665
0.839232
0.837116
0.834891
0.832458
0.829886
0.827231
0.824497
0.821673
0.818747
0.815705
0.812524
0.809171
0.805605
0.801774
0.797615
0.793047
0.787969
0.782251
0.775724
0.768169
0.759293
0.748696
0.735867
0.719913
0.700411
0.672353
0.648974
0.577462
0.845992
0.843476
0.841223
0.839149
0.836984
0.834679
0.832308
0.829903
0.82745
0.824923
0.822309
0.819589
0.816742
0.813736
0.810536
0.807096
0.80336
0.799259
0.794703
0.789578
0.783739
0.776992
0.769083
0.759672
0.748302
0.734241
0.717014
0.693132
0.670578
0.611088
0.846567
0.844503
0.84263
0.840749
0.83878
0.836741
0.834666
0.832557
0.830392
0.828156
0.82584
0.823429
0.820906
0.818244
0.815412
0.812371
0.809074
0.805458
0.801448
0.796945
0.791823
0.785919
0.779014
0.770821
0.760943
0.7488
0.733878
0.713704
0.693136
0.644269
0.847842
0.846209
0.844701
0.843029
0.841249
0.839442
0.837621
0.835767
0.833865
0.831908
0.829887
0.827789
0.825597
0.823288
0.820835
0.818205
0.815357
0.81224
0.808789
0.804921
0.80053
0.795478
0.789582
0.782605
0.774202
0.763931
0.751244
0.734449
0.716348
0.676844
0.849599
0.848279
0.847056
0.845586
0.844008
0.842442
0.840886
0.839302
0.837678
0.83601
0.834292
0.832513
0.830657
0.828707
0.826641
0.824431
0.822045
0.81944
0.816562
0.813344
0.809698
0.805511
0.80063
0.794863
0.787921
0.779465
0.768952
0.755294
0.739847
0.708597
0.851806
0.850773
0.849828
0.848582
0.847225
0.845905
0.844608
0.84329
0.841939
0.840556
0.839141
0.837681
0.836166
0.83458
0.832908
0.831127
0.829211
0.827126
0.82483
0.822268
0.819369
0.816044
0.812169
0.80759
0.802068
0.795351
0.786921
0.776156
0.763375
0.739307
0.854461
0.853698
0.853018
0.851995
0.850858
0.849778
0.848737
0.847684
0.846608
0.845515
0.844405
0.843269
0.842099
0.840883
0.83961
0.838263
0.836822
0.835262
0.833549
0.831643
0.829488
0.827014
0.824124
0.820697
0.81654
0.811468
0.80501
0.79688
0.786675
0.76881
0.857561
0.857057
0.856631
0.85583
0.854915
0.854075
0.85329
0.852502
0.851701
0.850897
0.850093
0.849283
0.848458
0.847614
0.846741
0.845829
0.844863
0.843825
0.842692
0.841433
0.840007
0.838361
0.836421
0.834096
0.831231
0.827694
0.823071
0.817303
0.809516
0.796918
0.8611
0.860841
0.860657
0.860076
0.859383
0.858781
0.858248
0.857723
0.857196
0.85668
0.856181
0.855694
0.855215
0.85474
0.854265
0.853784
0.853287
0.852764
0.852198
0.851569
0.850848
0.849996
0.84896
0.847671
0.84601
0.843883
0.840935
0.837248
0.831679
0.823463
0.86506
0.865031
0.865075
0.864711
0.86424
0.863873
0.863589
0.863322
0.863066
0.862835
0.862637
0.86247
0.86233
0.862219
0.862135
0.862075
0.862036
0.862011
0.861992
0.861967
0.861916
0.861814
0.861623
0.861292
0.860732
0.859877
0.858428
0.856539
0.852958
0.848301
0.869409
0.869596
0.869851
0.8697
0.869448
0.869312
0.86927
0.869257
0.869265
0.869313
0.869409
0.869552
0.869744
0.869985
0.870278
0.870625
0.871024
0.871476
0.871976
0.872519
0.873095
0.873687
0.87427
0.874809
0.875236
0.875505
0.875366
0.874998
0.873158
0.871298
0.874103
0.874487
0.874937
0.874991
0.874955
0.875044
0.875235
0.875466
0.87573
0.876047
0.876426
0.876868
0.877377
0.877955
0.878608
0.879339
0.880152
0.881049
0.882033
0.883101
0.884251
0.885473
0.886752
0.888063
0.889355
0.890594
0.891571
0.892462
0.892102
0.892342
0.879081
0.879644
0.880269
0.880519
0.880692
0.880996
0.88141
0.881873
0.882381
0.882953
0.8836
0.884325
0.885132
0.886026
0.887015
0.888104
0.889298
0.890605
0.892029
0.893572
0.895236
0.897017
0.898907
0.900888
0.90292
0.904975
0.90688
0.908787
0.909644
0.911382
0.884266
0.884988
0.885766
0.886202
0.886575
0.887082
0.887704
0.888385
0.889121
0.889931
0.890827
0.891815
0.892897
0.894081
0.895377
0.89679
0.89833
0.900004
0.90182
0.903782
0.905895
0.90816
0.910571
0.913116
0.915764
0.918487
0.921142
0.923853
0.925679
0.928441
0.889568
0.890426
0.891336
0.891944
0.892506
0.893202
0.894015
0.894895
0.89584
0.896868
0.897991
0.899216
0.900546
0.901992
0.903561
0.905263
0.907106
0.909101
0.911256
0.913578
0.916072
0.918742
0.921585
0.924589
0.927729
0.930977
0.934213
0.937524
0.940085
0.943571
0.894883
0.895857
0.896878
0.897641
0.898377
0.899245
0.90023
0.901289
0.902421
0.903644
0.904969
0.906402
0.907951
0.909624
0.911431
0.913381
0.915484
0.917751
0.92019
0.92281
0.925616
0.928613
0.931797
0.935159
0.938673
0.942307
0.94596
0.949666
0.952733
0.956692
0.900106
0.901175
0.902285
0.903187
0.90408
0.905099
0.906235
0.907451
0.908746
0.910137
0.911636
0.913249
0.914984
0.91685
0.918856
0.921012
0.92333
0.925818
0.928486
0.931342
0.934393
0.93764
0.941081
0.944702
0.948479
0.952372
0.956289
0.960209
0.963587
0.967654
0.90513
0.906274
0.907454
0.908476
0.909506
0.910658
0.911922
0.91327
0.914703
0.916235
0.917879
0.919641
0.921528
0.92355
0.925716
0.928037
0.930523
0.933183
0.936026
0.93906
0.94229
0.945717
0.949334
0.953128
0.957069
0.96111
0.965159
0.969148
0.972652
0.976518
0.909856
0.911059
0.912291
0.913414
0.914562
0.915823
0.917193
0.918649
0.920194
0.92184
0.923599
0.925478
0.927484
0.929626
0.931915
0.934359
0.936969
0.939754
0.942721
0.945877
0.949226
0.952767
0.956491
0.960379
0.964399
0.968495
0.972574
0.976527
0.980024
0.983514
0.914203
0.91545
0.916719
0.917923
0.919167
0.920518
0.92197
0.92351
0.925141
0.926874
0.928719
0.930684
0.932777
0.935006
0.93738
0.939909
0.942602
0.945466
0.948509
0.951737
0.955151
0.958747
0.962514
0.96643
0.970456
0.97453
0.978556
0.982395
0.985785
0.988819
0.918109
0.919387
0.920682
0.921949
0.923268
0.924686
0.926199
0.9278
0.929493
0.931287
0.933191
0.935215
0.937363
0.939646
0.942072
0.944649
0.947386
0.95029
0.953367
0.95662
0.960049
0.963648
0.967403
0.971287
0.975256
0.979239
0.983136
0.986784
0.989949
0.992441
0.921536
0.922835
0.924146
0.925459
0.926833
0.928299
0.929854
0.931494
0.933226
0.935057
0.936996
0.939051
0.941228
0.943536
0.945982
0.948575
0.951322
0.954229
0.9573
0.960538
0.96394
0.967497
0.97119
0.974987
0.978839
0.982666
0.986357
0.989722
0.992537
0.994425
0.924472
0.925785
0.927104
0.928448
0.929859
0.931355
0.932933
0.934594
0.936343
0.93819
0.940141
0.942203
0.944384
0.94669
0.949129
0.951709
0.954434
0.957312
0.960344
0.96353
0.966866
0.970339
0.973926
0.97759
0.981272
0.984879
0.98829
0.991284
0.993644
0.994913
0.926929
0.92825
0.929573
0.930934
0.932366
0.933876
0.935462
0.937127
0.938878
0.940721
0.942665
0.944714
0.946877
0.949159
0.951567
0.954107
0.956785
0.959604
0.962566
0.965668
0.968902
0.972253
0.975693
0.979178
0.982641
0.985975
0.989045
0.991601
0.993488
0.993787
0.928939
0.930264
0.931585
0.932952
0.93439
0.9359
0.937481
0.939138
0.940877
0.942705
0.944629
0.946653
0.948784
0.951026
0.953386
0.955869
0.958478
0.961216
0.964084
0.967075
0.970181
0.973376
0.976632
0.979895
0.983091
0.986097
0.988778
0.990807
0.992184
0.991262
0.930557
0.931887
0.933201
0.93456
0.935989
0.937485
0.939045
0.940674
0.94238
0.944171
0.946053
0.948031
0.95011
0.952294
0.954589
0.956996
0.959518
0.962157
0.964909
0.967768
0.970718
0.973741
0.976792
0.979811
0.982713
0.985356
0.987605
0.989049
0.989902
0.987766
0.931852
0.933185
0.934479
0.935819
0.937235
0.938719
0.940264
0.941875
0.943561
0.945326
0.947172
0.949105
0.951128
0.953245
0.955458
0.957771
0.960188
0.962706
0.96532
0.968019
0.970784
0.973589
0.97639
0.979118
0.981679
0.983908
0.985677
0.986458
0.986717
0.983085
0.932967
0.934267
0.935479
0.936754
0.938119
0.939545
0.941021
0.942564
0.944191
0.945905
0.947705
0.949591
0.951565
0.953632
0.955782
0.958003
0.960308
0.962698
0.965165
0.967697
0.970274
0.972863
0.97541
0.977835
0.980036
0.981818
0.983065
0.983082
0.982671
0.977143
0.934124
0.935292
0.936356
0.937627
0.939031
0.940473
0.94195
0.943476
0.945059
0.946715
0.94845
0.950265
0.952155
0.954116
0.956157
0.958279
0.960475
0.962736
0.965044
0.967366
0.969701
0.972017
0.974249
0.976305
0.978072
0.979321
0.979957
0.97905
0.977987
0.970153
0.935374
0.935986
0.936565
0.937646
0.938991
0.940405
0.941857
0.943364
0.944935
0.94657
0.948263
0.950027
0.951873
0.95377
0.955702
0.957689
0.959737
0.961838
0.963984
0.966153
0.968304
0.970396
0.972363
0.974094
0.975463
0.976192
0.976261
0.974207
0.972916
0.962096
0.953395
0.944012
0.933192
0.921442
0.909052
0.895846
0.881817
0.867344
0.853183
0.839904
0.828851
0.81951
0.812333
0.808919
0.807979
0.808233
0.808085
0.806676
0.802446
0.794192
0.7928
0.798899
0.796859
0.78969
0.782119
0.768172
0.742076
0.707651
0.67459
0.649926
0.967913
0.960236
0.950838
0.940592
0.92952
0.917502
0.904369
0.890134
0.875257
0.859961
0.845512
0.832204
0.819897
0.811437
0.808426
0.808413
0.807829
0.806051
0.801231
0.792214
0.790783
0.7959
0.79246
0.785964
0.778506
0.75907
0.720875
0.678873
0.643186
0.620511
0.969069
0.962265
0.95442
0.94525
0.934638
0.922652
0.909421
0.895262
0.880424
0.865379
0.850494
0.836776
0.823893
0.81408
0.809772
0.808857
0.807796
0.806235
0.800985
0.789155
0.786692
0.793644
0.79325
0.789704
0.775944
0.744086
0.698655
0.656931
0.628794
0.61512
0.972868
0.967982
0.961301
0.95322
0.943787
0.932654
0.919836
0.905565
0.890022
0.873817
0.857713
0.842653
0.828929
0.817911
0.812029
0.809876
0.807878
0.805987
0.799846
0.784498
0.782316
0.79725
0.800251
0.792067
0.764266
0.721604
0.677924
0.646757
0.634484
0.635585
0.973537
0.969639
0.964353
0.957797
0.949603
0.939672
0.927867
0.914233
0.898925
0.882418
0.865517
0.849247
0.834346
0.822193
0.8148
0.811309
0.808334
0.80523
0.797221
0.77972
0.78164
0.807405
0.810835
0.789531
0.744893
0.699543
0.669494
0.659456
0.669367
0.683304
0.973582
0.970954
0.967036
0.961489
0.954264
0.945231
0.934192
0.92108
0.906033
0.889452
0.872056
0.854924
0.839034
0.825813
0.817256
0.812749
0.808983
0.804319
0.79412
0.77762
0.787677
0.819805
0.8184
0.777579
0.721452
0.684329
0.675683
0.690533
0.716325
0.727998
0.972819
0.971221
0.968412
0.963994
0.957859
0.949869
0.939742
0.927275
0.91253
0.895878
0.878022
0.860088
0.843263
0.829022
0.819369
0.81399
0.809561
0.803707
0.792853
0.78051
0.799539
0.830112
0.818995
0.758096
0.699405
0.679072
0.695104
0.728045
0.754081
0.745481
0.971588
0.970921
0.969147
0.965729
0.960591
0.953622
0.944469
0.932796
0.918541
0.901988
0.883801
0.865136
0.847371
0.832113
0.82138
0.815081
0.810039
0.80354
0.793542
0.786734
0.810322
0.83526
0.810103
0.73548
0.683896
0.682872
0.71856
0.759363
0.77162
0.731162
0.970038
0.970176
0.969302
0.96678
0.962592
0.956602
0.948407
0.937572
0.92392
0.907625
0.889274
0.870007
0.851357
0.835098
0.823316
0.816107
0.810435
0.803664
0.795064
0.792666
0.816883
0.83326
0.793951
0.714251
0.675226
0.692792
0.739604
0.77546
0.765832
0.691361
0.968291
0.969123
0.969034
0.967327
0.964016
0.958952
0.95169
0.941709
0.928719
0.912779
0.894382
0.874633
0.855173
0.837949
0.825152
0.817068
0.810809
0.8039
0.796494
0.796805
0.818304
0.824219
0.773163
0.695877
0.672516
0.705013
0.754061
0.77325
0.737572
0.637316
0.96643
0.967854
0.968446
0.967467
0.96496
0.960769
0.954417
0.945302
0.933022
0.917515
0.899169
0.879034
0.85883
0.840677
0.826897
0.817967
0.81117
0.804177
0.797625
0.799413
0.815965
0.810961
0.750809
0.682537
0.675155
0.716801
0.758839
0.753649
0.69101
0.578141
0.964516
0.966439
0.967616
0.967287
0.965516
0.962138
0.956658
0.948406
0.936875
0.921871
0.903665
0.883233
0.862347
0.843298
0.828565
0.818814
0.811515
0.804463
0.798534
0.801003
0.81146
0.796379
0.732305
0.676856
0.681991
0.724554
0.750964
0.720515
0.635563
0.524845
0.96259
0.964927
0.966609
0.966856
0.965761
0.963138
0.958482
0.951075
0.940313
0.925869
0.90788
0.887233
0.865727
0.845815
0.830155
0.81961
0.811839
0.804728
0.799268
0.801539
0.805904
0.783064
0.720464
0.679506
0.689461
0.725459
0.730942
0.679107
0.582084
0.482166
0.960669
0.963354
0.965473
0.966233
0.965729
0.963827
0.959946
0.953359
0.943374
0.929532
0.911828
0.891041
0.868971
0.848228
0.831665
0.820353
0.812137
0.804957
0.799754
0.800982
0.80007
0.771938
0.715121
0.684761
0.694782
0.717901
0.702873
0.636667
0.537639
0.453528
0.958762
0.961745
0.964243
0.965466
0.96552
0.964255
0.961101
0.955306
0.946097
0.932888
0.915526
0.894664
0.872085
0.85054
0.833097
0.82104
0.812402
0.80513
0.800001
0.799604
0.794257
0.762931
0.712678
0.68767
0.696236
0.704308
0.672515
0.5979
0.506478
0.441723
0.956868
0.960122
0.962942
0.964583
0.965145
0.964466
0.96199
0.956954
0.948514
0.93596
0.918988
0.898113
0.875074
0.852755
0.834451
0.821672
0.812627
0.805234
0.799991
0.797712
0.78847
0.755181
0.710918
0.688508
0.693078
0.686545
0.643345
0.566044
0.489461
0.444678
0.954999
0.958491
0.96159
0.963606
0.964636
0.964499
0.962654
0.95834
0.950654
0.938771
0.92223
0.901395
0.877943
0.854876
0.83573
0.822248
0.81281
0.805261
0.799714
0.795462
0.782861
0.748643
0.709187
0.687378
0.685685
0.66652
0.616159
0.543007
0.484169
0.458635
0.953178
0.956848
0.960196
0.962553
0.964015
0.964382
0.963126
0.959496
0.952545
0.941341
0.925265
0.904518
0.880697
0.856906
0.836933
0.822768
0.812948
0.805205
0.799182
0.792962
0.777515
0.743321
0.706947
0.684125
0.674942
0.646132
0.592732
0.528471
0.488167
0.479896
0.951409
0.9552
0.958772
0.961438
0.963299
0.964133
0.963435
0.96045
0.954212
0.943689
0.928106
0.907491
0.883339
0.858848
0.838063
0.823232
0.813042
0.805064
0.798414
0.790314
0.772467
0.738447
0.703615
0.679083
0.662502
0.626944
0.573682
0.521379
0.49936
0.505149
0.949676
0.953564
0.957335
0.960277
0.9625
0.96378
0.963604
0.961228
0.955678
0.945833
0.930766
0.910321
0.885876
0.860703
0.839121
0.823641
0.813092
0.804842
0.797439
0.787557
0.767557
0.733956
0.699143
0.672799
0.648674
0.609347
0.559092
0.521139
0.514326
0.531931
0.947979
0.951945
0.95589
0.959084
0.961633
0.96333
0.963648
0.961852
0.956964
0.947792
0.933257
0.913017
0.888309
0.862474
0.840107
0.823996
0.813099
0.80454
0.796302
0.784719
0.762726
0.729801
0.694017
0.665154
0.633713
0.59348
0.54978
0.526517
0.531651
0.557044
0.946338
0.950344
0.954436
0.957862
0.96071
0.962796
0.963581
0.96234
0.95809
0.94958
0.93559
0.915584
0.890645
0.864162
0.841023
0.824298
0.813065
0.804165
0.795041
0.781842
0.758248
0.725646
0.688202
0.655592
0.618612
0.580144
0.546321
0.535783
0.549485
0.576945
0.944765
0.948773
0.952977
0.956614
0.959739
0.962187
0.963418
0.962706
0.959072
0.951212
0.937778
0.918031
0.892886
0.865771
0.841869
0.824546
0.812991
0.803722
0.793677
0.778949
0.754248
0.721183
0.681615
0.644264
0.604245
0.570159
0.547372
0.546756
0.565109
0.59092
0.943269
0.947245
0.951518
0.955347
0.95873
0.96151
0.963168
0.962966
0.959923
0.9527
0.939827
0.920364
0.895038
0.867302
0.842648
0.824746
0.812881
0.803221
0.792236
0.775973
0.750666
0.716312
0.674423
0.632149
0.591453
0.563807
0.551038
0.556994
0.576853
0.600294
0.941864
0.945767
0.950067
0.954061
0.957692
0.960775
0.962836
0.963133
0.960668
0.954068
0.941755
0.922591
0.897101
0.868752
0.843355
0.82489
0.812727
0.802609
0.7907
0.772979
0.747248
0.711043
0.666759
0.620606
0.581606
0.560319
0.555359
0.565515
0.585871
0.607156
0.940561
0.94435
0.948632
0.952746
0.956617
0.960015
0.962399
0.963172
0.961274
0.955296
0.943558
0.924719
0.89909
0.87014
0.844013
0.825011
0.812587
0.802018
0.789109
0.770323
0.743657
0.705485
0.65852
0.610491
0.574796
0.558755
0.559326
0.572288
0.592804
0.612171
0.939383
0.94302
0.947241
0.951409
0.955458
0.959224
0.96209
0.963234
0.961843
0.956448
0.945258
0.926735
0.90097
0.871412
0.844533
0.824973
0.812261
0.801249
0.78736
0.767576
0.739456
0.699187
0.649692
0.601777
0.569921
0.558547
0.563452
0.579141
0.599283
0.615789
0.938364
0.941788
0.945955
0.950177
0.954212
0.958043
0.961296
0.963065
0.962243
0.957467
0.946887
0.928738
0.902898
0.872816
0.845273
0.825194
0.812249
0.800695
0.78583
0.764897
0.73477
0.692103
0.640885
0.594091
0.566149
0.559191
0.567408
0.584726
0.604231
0.617886
0.937498
0.940564
0.944708
0.949205
0.953581
0.95763
0.961033
0.963044
0.962662
0.958342
0.948194
0.930225
0.904145
0.873453
0.845252
0.824781
0.811745
0.799966
0.784323
0.763044
0.731749
0.686119
0.632489
0.587228
0.563297
0.560613
0.572228
0.591044
0.609403
0.619733
0.936752
0.93912
0.942697
0.947013
0.951588
0.956032
0.95997
0.962691
0.962991
0.959538
0.950284
0.933013
0.906916
0.875529
0.84632
0.825021
0.811384
0.798696
0.78131
0.757727
0.723178
0.67409
0.620183
0.579483
0.56161
0.563689
0.578025
0.596992
0.613432
0.619335
0.427377
0.43608
0.450174
0.444378
0.428737
0.44319
0.474797
0.507653
0.540431
0.570476
0.596547
0.619063
0.638635
0.655673
0.670529
0.683563
0.6951
0.705411
0.714719
0.723206
0.731019
0.738284
0.745104
0.751558
0.757728
0.763814
0.770048
0.776597
0.784442
0.784102
0.42288
0.431371
0.432964
0.426365
0.410128
0.415232
0.447226
0.485643
0.522564
0.556506
0.585362
0.609837
0.63091
0.649083
0.664759
0.678375
0.690327
0.700932
0.710442
0.719061
0.726952
0.734246
0.741045
0.747433
0.753462
0.759149
0.764652
0.769291
0.775068
0.778107
0.403613
0.405573
0.389494
0.380478
0.377353
0.381975
0.410499
0.452996
0.4959
0.536097
0.569149
0.596453
0.619734
0.639718
0.65682
0.671514
0.684272
0.695486
0.705459
0.714431
0.722593
0.730094
0.737051
0.743551
0.749672
0.755402
0.760945
0.765962
0.771391
0.776852
0.366401
0.360547
0.335016
0.322815
0.327108
0.339454
0.368039
0.414648
0.466688
0.514064
0.553994
0.585882
0.612027
0.63405
0.652707
0.66856
0.682147
0.693939
0.704312
0.713559
0.721912
0.729553
0.736626
0.743233
0.749481
0.755399
0.761124
0.766581
0.771845
0.777003
0.318657
0.309787
0.285096
0.272076
0.275142
0.292068
0.322385
0.370593
0.429805
0.48678
0.535255
0.573751
0.604194
0.62886
0.649237
0.666282
0.680693
0.693027
0.703728
0.713149
0.721572
0.729218
0.736255
0.742809
0.748986
0.754842
0.760439
0.765809
0.7709
0.77583
0.27401
0.266834
0.247195
0.233226
0.232306
0.248198
0.278593
0.325179
0.386177
0.451263
0.509327
0.556457
0.593232
0.621903
0.644703
0.663247
0.678616
0.691562
0.702625
0.712225
0.720697
0.728301
0.735238
0.741662
0.747688
0.753402
0.758861
0.76413
0.769197
0.774187
0.246421
0.239641
0.222272
0.206087
0.202207
0.214074
0.241759
0.28487
0.343399
0.411084
0.477097
0.533772
0.578692
0.613128
0.639593
0.66032
0.676955
0.690623
0.702072
0.71184
0.720332
0.727853
0.73464
0.740877
0.746703
0.752225
0.757515
0.762642
0.7676
0.772523
0.241641
0.230816
0.211772
0.192284
0.184802
0.191491
0.215015
0.254064
0.307975
0.373862
0.443556
0.507923
0.561479
0.602976
0.634323
0.658112
0.676501
0.691055
0.702879
0.712733
0.721133
0.728449
0.734961
0.740884
0.74638
0.751572
0.756547
0.761382
0.766078
0.770779
0.260787
0.240987
0.217144
0.19312
0.181091
0.182501
0.200916
0.235282
0.284134
0.345941
0.415072
0.482634
0.543672
0.5923
0.629204
0.656902
0.677632
0.693319
0.705527
0.715344
0.723471
0.730382
0.736422
0.741842
0.746827
0.751517
0.756011
0.760398
0.764688
0.769037
0.301316
0.270657
0.239819
0.209689
0.19175
0.188181
0.201193
0.230243
0.273979
0.331052
0.397613
0.466064
0.530147
0.583867
0.625862
0.65768
0.681112
0.698153
0.710755
0.720382
0.727993
0.734224
0.739514
0.74417
0.748407
0.75238
0.756198
0.759959
0.763672
0.767506
0.357843
0.318082
0.279814
0.243024
0.218159
0.208236
0.215137
0.238909
0.278015
0.330478
0.393177
0.460788
0.525641
0.582167
0.627795
0.662981
0.688806
0.707058
0.719862
0.729
0.735718
0.740858
0.744992
0.748503
0.751644
0.75459
0.757456
0.760345
0.763262
0.766368
0.424415
0.379131
0.334175
0.290736
0.258885
0.242242
0.242559
0.260244
0.294322
0.342777
0.401875
0.466967
0.53147
0.58925
0.637536
0.675349
0.702989
0.722021
0.734616
0.742775
0.748031
0.751481
0.753872
0.755685
0.757228
0.758699
0.76022
0.761894
0.763749
0.765939
0.494354
0.447191
0.397172
0.348166
0.309584
0.286335
0.280336
0.292218
0.321203
0.365347
0.421279
0.484519
0.547727
0.605663
0.65565
0.695499
0.724615
0.744182
0.756253
0.762968
0.766167
0.767249
0.767182
0.766597
0.765886
0.765284
0.764918
0.764865
0.765125
0.765781
0.554913
0.510984
0.459569
0.407703
0.364546
0.334839
0.322641
0.328946
0.353144
0.393348
0.446455
0.507577
0.569612
0.628022
0.679303
0.721177
0.752042
0.772546
0.784359
0.78961
0.790475
0.788742
0.785654
0.782041
0.778436
0.775151
0.772367
0.770116
0.768385
0.767244
0.595511
0.559162
0.510651
0.458855
0.412649
0.378301
0.360265
0.360699
0.379684
0.415714
0.465814
0.525064
0.58726
0.647481
0.701311
0.745599
0.778849
0.801355
0.814287
0.819021
0.817989
0.813522
0.807296
0.800448
0.793691
0.787427
0.781914
0.777225
0.773316
0.770158
0.613566
0.585838
0.542696
0.492856
0.44497
0.406286
0.382165
0.37597
0.388811
0.419508
0.46542
0.523016
0.586373
0.650006
0.708706
0.758426
0.796774
0.8232
0.838749
0.845143
0.844135
0.837765
0.828529
0.818296
0.808129
0.798588
0.789977
0.782411
0.775815
0.770108
0.602875
0.587281
0.550632
0.503613
0.454317
0.410956
0.379196
0.364033
0.368968
0.39095
0.430243
0.486162
0.551048
0.619616
0.685894
0.74459
0.792277
0.826672
0.848165
0.858867
0.860954
0.855872
0.846035
0.833995
0.821367
0.80913
0.797958
0.788126
0.779616
0.772641
0.567294
0.565516
0.533897
0.488834
0.436908
0.38711
0.345928
0.319336
0.314113
0.327427
0.357445
0.406015
0.46895
0.540473
0.613946
0.683067
0.742042
0.787566
0.81844
0.836069
0.842791
0.84051
0.831926
0.820422
0.808202
0.796227
0.785662
0.776683
0.769027
0.762718
0.523103
0.529587
0.499902
0.45521
0.399969
0.344102
0.294259
0.25614
0.233978
0.229555
0.24565
0.281804
0.335919
0.404018
0.480059
0.557505
0.629308
0.689839
0.735532
0.765083
0.779872
0.782949
0.777467
0.767135
0.755555
0.745159
0.736772
0.730584
0.726559
0.723739
0.479234
0.491453
0.461075
0.415
0.355185
0.292513
0.23286
0.180547
0.13942
0.113745
0.107555
0.123581
0.162596
0.220983
0.294411
0.377023
0.460903
0.538568
0.603914
0.653241
0.685763
0.70341
0.710179
0.709748
0.705921
0.701444
0.697453
0.694149
0.691908
0.689522
0.452346