/*--------------------------------*- C++ -*----------------------------------*\
  =========                 |
  \\      /  F ield         | OpenFOAM: The Open Source CFD Toolbox
   \\    /   O peration     | Website:  https://openfoam.org
    \\  /    A nd           | Version:  11
     \\/     M anipulation  |
\*---------------------------------------------------------------------------*/
FoamFile
{
    format      ascii;
    class       surfaceScalarField;
    location    "2.3";
    object      phi;
}
// * * * * * * * * * * * * * * * * * * * * * * * * * * * * * * * * * * * * * //

dimensions      [0 3 -1 0 0 0 0];

internalField   nonuniform List<scalar> 
24840
(
1.57973e-05
1.37081e-08
1.57787e-05
1.85566e-08
1.57614e-05
1.732e-08
1.57442e-05
1.71521e-08
1.57268e-05
1.74143e-08
1.57094e-05
1.74635e-08
1.5692e-05
1.73825e-08
1.56747e-05
1.72542e-08
1.56576e-05
1.70756e-08
1.56408e-05
1.68296e-08
1.56243e-05
1.65053e-08
1.56082e-05
1.60918e-08
1.55926e-05
1.55657e-08
1.55777e-05
1.49125e-08
1.55636e-05
1.41014e-08
1.55505e-05
1.31114e-08
1.55386e-05
1.19397e-08
1.55281e-05
1.04943e-08
1.55194e-05
8.65611e-09
1.5513e-05
6.40532e-09
1.55094e-05
3.66744e-09
1.5509e-05
3.22252e-10
1.55129e-05
-3.85049e-09
1.55219e-05
-9.03774e-09
1.55374e-05
-1.54997e-08
1.55608e-05
-2.33264e-08
1.55946e-05
-3.38434e-08
1.56411e-05
-4.64594e-08
1.57104e-05
-6.92997e-08
-1.39435e-07
1.58498e-05
1.5817e-05
7.6621e-09
1.58207e-05
1.48954e-08
1.58233e-05
1.46548e-08
1.58256e-05
1.48465e-08
1.58278e-05
1.52383e-08
1.583e-05
1.53027e-08
1.58322e-05
1.51708e-08
1.58345e-05
1.49422e-08
1.5837e-05
1.46023e-08
1.58397e-05
1.41266e-08
1.58427e-05
1.34966e-08
1.58461e-05
1.2693e-08
1.585e-05
1.16652e-08
1.58545e-05
1.04029e-08
1.58598e-05
8.82764e-09
1.5866e-05
6.92535e-09
1.58732e-05
4.66868e-09
1.58818e-05
1.88916e-09
1.58921e-05
-1.60011e-09
1.59044e-05
-5.86457e-09
1.59191e-05
-1.10603e-08
1.59368e-05
-1.7435e-08
1.59583e-05
-2.52878e-08
1.59842e-05
-3.49746e-08
1.60155e-05
-4.67825e-08
1.60539e-05
-6.17087e-08
1.60993e-05
-7.92756e-08
1.6158e-05
-1.05171e-07
1.62219e-05
-1.33211e-07
-1.64345e-07
1.62468e-05
1.58136e-05
4.99202e-09
1.5817e-05
1.1533e-08
1.58191e-05
1.25346e-08
1.58214e-05
1.26081e-08
1.58236e-05
1.29772e-08
1.58258e-05
1.30775e-08
1.58281e-05
1.28943e-08
1.58305e-05
1.25631e-08
1.5833e-05
1.20873e-08
1.58357e-05
1.14277e-08
1.58387e-05
1.05416e-08
1.5842e-05
9.39463e-09
1.58457e-05
7.89991e-09
1.58501e-05
6.06022e-09
1.58551e-05
3.7698e-09
1.58611e-05
9.81086e-10
1.5868e-05
-2.29893e-09
1.58763e-05
-6.35686e-09
1.5886e-05
-1.13427e-08
1.58976e-05
-1.74452e-08
1.59115e-05
-2.49193e-08
1.59281e-05
-3.41101e-08
1.59483e-05
-4.54307e-08
1.59727e-05
-5.93883e-08
1.60024e-05
-7.65179e-08
1.60385e-05
-9.78036e-08
1.6083e-05
-1.23761e-07
1.61343e-05
-1.56446e-07
1.61974e-05
-1.96294e-07
-2.27369e-07
1.62604e-05
1.58125e-05
3.45163e-09
1.58153e-05
8.75134e-09
1.58174e-05
1.04502e-08
1.58193e-05
1.06449e-08
1.58214e-05
1.08707e-08
1.58236e-05
1.0927e-08
1.58258e-05
1.0696e-08
1.58281e-05
1.02602e-08
1.58305e-05
9.64251e-09
1.58332e-05
8.79677e-09
1.58361e-05
7.65835e-09
1.58393e-05
6.16622e-09
1.5843e-05
4.2139e-09
1.58472e-05
1.83623e-09
1.58521e-05
-1.1413e-09
1.58578e-05
-4.75886e-09
1.58646e-05
-9.07328e-09
1.58726e-05
-1.43396e-08
1.5882e-05
-2.07758e-08
1.58932e-05
-2.86552e-08
1.59066e-05
-3.83253e-08
1.59228e-05
-5.02276e-08
1.59422e-05
-6.48944e-08
1.59658e-05
-8.29716e-08
1.59945e-05
-1.05199e-07
1.60293e-05
-1.326e-07
1.60717e-05
-1.66151e-07
1.61221e-05
-2.06823e-07
1.61837e-05
-2.57961e-07
-3.00915e-07
1.62573e-05
1.58119e-05
2.50017e-09
1.5814e-05
6.67344e-09
1.58159e-05
8.52557e-09
1.58177e-05
8.85371e-09
1.58197e-05
8.91331e-09
1.58217e-05
8.85817e-09
1.58239e-05
8.55957e-09
1.58261e-05
8.02232e-09
1.58285e-05
7.26502e-09
1.58311e-05
6.23571e-09
1.58339e-05
4.85503e-09
1.5837e-05
3.04339e-09
1.58406e-05
6.19058e-10
1.58447e-05
-2.26526e-09
1.58494e-05
-5.89882e-09
1.5855e-05
-1.02933e-08
1.58615e-05
-1.55789e-08
1.58691e-05
-2.19918e-08
1.58782e-05
-2.98143e-08
1.58889e-05
-3.9392e-08
1.59017e-05
-5.11552e-08
1.59171e-05
-6.56371e-08
1.59357e-05
-8.34827e-08
1.59582e-05
-1.0547e-07
1.59855e-05
-1.32518e-07
1.60187e-05
-1.65757e-07
1.60591e-05
-2.06508e-07
1.61078e-05
-2.55597e-07
1.61672e-05
-3.17358e-07
-3.755e-07
1.62418e-05
1.58116e-05
1.86894e-09
1.58132e-05
5.09535e-09
1.58149e-05
6.78223e-09
1.58166e-05
7.15117e-09
1.58185e-05
7.08104e-09
1.58204e-05
6.88642e-09
1.58225e-05
6.49255e-09
1.58247e-05
5.85274e-09
1.5827e-05
4.95862e-09
1.58295e-05
3.74939e-09
1.58322e-05
2.12538e-09
1.58352e-05
2.1763e-11
1.58386e-05
-2.78885e-09
1.58426e-05
-6.20342e-09
1.58471e-05
-1.04383e-08
1.58524e-05
-1.55751e-08
1.58586e-05
-2.17646e-08
1.58658e-05
-2.92573e-08
1.58744e-05
-3.83841e-08
1.58846e-05
-4.95533e-08
1.58967e-05
-6.32722e-08
1.59112e-05
-8.01649e-08
1.59287e-05
-1.00986e-07
1.59499e-05
-1.26638e-07
1.59756e-05
-1.58204e-07
1.60068e-05
-1.96963e-07
1.60448e-05
-2.4452e-07
1.60911e-05
-3.01937e-07
1.61477e-05
-3.73979e-07
-4.47784e-07
1.622e-05
1.58114e-05
1.41429e-09
1.58127e-05
3.86248e-09
1.58142e-05
5.24392e-09
1.58158e-05
5.55807e-09
1.58175e-05
5.37312e-09
1.58194e-05
5.02889e-09
1.58213e-05
4.51732e-09
1.58234e-05
3.7704e-09
1.58256e-05
2.74617e-09
1.5828e-05
1.36931e-09
1.58306e-05
-4.76193e-10
1.58335e-05
-2.88878e-09
1.58368e-05
-6.03938e-09
1.58405e-05
-9.94462e-09
1.58448e-05
-1.47391e-08
1.58498e-05
-2.05582e-08
1.58556e-05
-2.75774e-08
1.58624e-05
-3.60672e-08
1.58704e-05
-4.63975e-08
1.58799e-05
-5.90352e-08
1.58912e-05
-7.45589e-08
1.59047e-05
-9.36756e-08
1.5921e-05
-1.17238e-07
1.59406e-05
-1.46268e-07
1.59644e-05
-1.81997e-07
1.59933e-05
-2.25883e-07
1.60286e-05
-2.79783e-07
1.60718e-05
-3.45186e-07
1.61248e-05
-4.27001e-07
-5.15958e-07
1.6193e-05
1.58113e-05
1.06465e-09
1.58123e-05
2.87166e-09
1.58137e-05
3.89847e-09
1.58151e-05
4.079e-09
1.58167e-05
3.77079e-09
1.58185e-05
3.27647e-09
1.58204e-05
2.63487e-09
1.58224e-05
1.77561e-09
1.58245e-05
6.25478e-10
1.58268e-05
-9.09701e-10
1.58292e-05
-2.95923e-09
1.5832e-05
-5.64767e-09
1.58351e-05
-9.12004e-09
1.58386e-05
-1.34551e-08
1.58426e-05
-1.87651e-08
1.58473e-05
-2.52048e-08
1.58527e-05
-3.29741e-08
1.5859e-05
-4.23667e-08
1.58664e-05
-5.37874e-08
1.58751e-05
-6.77536e-08
1.58854e-05
-8.49067e-08
1.58978e-05
-1.06029e-07
1.59126e-05
-1.32064e-07
1.59305e-05
-1.64144e-07
1.59521e-05
-2.03639e-07
1.59784e-05
-2.52189e-07
1.60105e-05
-3.11889e-07
1.605e-05
-3.84706e-07
1.60986e-05
-4.75591e-07
-5.78829e-07
1.61615e-05
1.58112e-05
7.8223e-10
1.58121e-05
2.05137e-09
1.58133e-05
2.71748e-09
1.58146e-05
2.71258e-09
1.58161e-05
2.26627e-09
1.58178e-05
1.62578e-09
1.58196e-05
8.51565e-10
1.58215e-05
-1.21383e-10
1.58235e-05
-1.39027e-09
1.58256e-05
-3.07076e-09
1.5828e-05
-5.30503e-09
1.58306e-05
-8.23623e-09
1.58334e-05
-1.20045e-08
1.58367e-05
-1.67162e-08
1.58404e-05
-2.24862e-08
1.58447e-05
-2.94767e-08
1.58496e-05
-3.79092e-08
1.58554e-05
-4.81004e-08
1.58621e-05
-6.04851e-08
1.58699e-05
-7.56243e-08
1.58792e-05
-9.42148e-08
1.58903e-05
-1.17105e-07
1.59036e-05
-1.45318e-07
1.59195e-05
-1.80084e-07
1.59388e-05
-2.22899e-07
1.59622e-05
-2.75574e-07
1.59907e-05
-3.40428e-07
1.60259e-05
-4.19907e-07
1.60693e-05
-5.18945e-07
-6.35322e-07
1.61258e-05
1.58112e-05
5.45015e-10
1.58119e-05
1.35288e-09
1.58129e-05
1.6715e-09
1.58142e-05
1.45309e-09
1.58156e-05
8.55458e-10
1.58172e-05
7.34061e-11
1.58189e-05
-8.3032e-10
1.58206e-05
-1.91566e-09
1.58226e-05
-3.29603e-09
1.58246e-05
-5.10746e-09
1.58268e-05
-7.50566e-09
1.58292e-05
-1.06471e-08
1.58319e-05
-1.46754e-08
1.58349e-05
-1.97112e-08
1.58383e-05
-2.58779e-08
1.58421e-05
-3.3344e-08
1.58466e-05
-4.23468e-08
1.58517e-05
-5.32236e-08
1.58576e-05
-6.64355e-08
1.58646e-05
-8.25798e-08
1.58728e-05
-1.02399e-07
1.58825e-05
-1.26798e-07
1.5894e-05
-1.56866e-07
1.59079e-05
-1.93919e-07
1.59245e-05
-2.39562e-07
1.59447e-05
-2.95758e-07
1.59693e-05
-3.65024e-07
1.59996e-05
-4.5025e-07
1.6037e-05
-5.56327e-07
-6.84396e-07
1.60861e-05
1.58112e-05
3.38955e-10
1.58118e-05
7.43168e-10
1.58127e-05
7.34434e-10
1.58139e-05
2.90751e-10
1.58152e-05
-4.66216e-10
1.58167e-05
-1.38491e-09
1.58182e-05
-2.41105e-09
1.58199e-05
-3.60367e-09
1.58217e-05
-5.08651e-09
1.58236e-05
-7.01265e-09
1.58257e-05
-9.55117e-09
1.58279e-05
-1.28692e-08
1.58303e-05
-1.71164e-08
1.5833e-05
-2.24221e-08
1.58361e-05
-2.89179e-08
1.58395e-05
-3.67783e-08
1.58434e-05
-4.62527e-08
1.58479e-05
-5.76951e-08
1.58531e-05
-7.15883e-08
1.5859e-05
-8.85583e-08
1.5866e-05
-1.09385e-07
1.58742e-05
-1.35016e-07
1.5884e-05
-1.66597e-07
1.58956e-05
-2.05508e-07
1.59094e-05
-2.53445e-07
1.59262e-05
-3.12497e-07
1.59465e-05
-3.85342e-07
1.59715e-05
-4.75258e-07
1.60022e-05
-5.87063e-07
-7.25024e-07
1.60429e-05
1.58112e-05
1.53653e-10
1.58117e-05
1.99651e-10
1.58125e-05
-1.15417e-10
1.58136e-05
-7.85188e-10
1.58149e-05
-1.70419e-09
1.58162e-05
-2.75342e-09
1.58177e-05
-3.89271e-09
1.58193e-05
-5.18377e-09
1.5821e-05
-6.75778e-09
1.58227e-05
-8.78107e-09
1.58246e-05
-1.14346e-08
1.58266e-05
-1.48943e-08
1.58288e-05
-1.93159e-08
1.58313e-05
-2.48348e-08
1.58339e-05
-3.15891e-08
1.58369e-05
-3.97585e-08
1.58402e-05
-4.9601e-08
1.5844e-05
-6.14834e-08
1.58484e-05
-7.59049e-08
1.58533e-05
-9.35127e-08
1.5859e-05
-1.15113e-07
1.58657e-05
-1.41688e-07
1.58735e-05
-1.74419e-07
1.58828e-05
-2.14738e-07
1.58937e-05
-2.64401e-07
1.59068e-05
-3.25592e-07
1.59226e-05
-4.01108e-07
1.59419e-05
-4.94534e-07
1.59654e-05
-6.1058e-07
-7.56281e-07
1.59966e-05
1.58111e-05
-1.96221e-11
1.58116e-05
-2.93674e-10
1.58124e-05
-8.95298e-10
1.58134e-05
-1.78556e-09
1.58146e-05
-2.86449e-09
1.58159e-05
-4.03707e-09
1.58172e-05
-5.27871e-09
1.58187e-05
-6.65672e-09
1.58203e-05
-8.30825e-09
1.58219e-05
-1.04094e-08
1.58236e-05
-1.31508e-08
1.58254e-05
-1.67156e-08
1.58274e-05
-2.12646e-08
1.58295e-05
-2.69375e-08
1.58318e-05
-3.38772e-08
1.58343e-05
-4.22673e-08
1.58371e-05
-5.23712e-08
1.58401e-05
-6.45638e-08
1.58436e-05
-7.93553e-08
1.58475e-05
-9.74065e-08
1.58519e-05
-1.19541e-07
1.5857e-05
-1.46759e-07
1.58628e-05
-1.80267e-07
1.58696e-05
-2.21523e-07
1.58775e-05
-2.7232e-07
1.58868e-05
-3.34896e-07
1.58978e-05
-4.12116e-07
1.59111e-05
-5.07773e-07
1.59269e-05
-6.26425e-07
-7.77378e-07
1.5948e-05
1.58111e-05
-1.8213e-10
1.58116e-05
-7.50903e-10
1.58123e-05
-1.62277e-09
1.58133e-05
-2.72338e-09
1.58143e-05
-3.95457e-09
1.58155e-05
-5.24046e-09
1.58168e-05
-6.57237e-09
1.58182e-05
-8.02436e-09
1.58196e-05
-9.73791e-09
1.58211e-05
-1.18959e-08
1.58227e-05
-1.46964e-08
1.58243e-05
-1.83283e-08
1.5826e-05
-2.29561e-08
1.58278e-05
-2.87226e-08
1.58297e-05
-3.57731e-08
1.58317e-05
-4.42934e-08
1.58339e-05
-5.45494e-08
1.58362e-05
-6.69198e-08
1.58388e-05
-8.19198e-08
1.58416e-05
-1.00216e-07
1.58447e-05
-1.22639e-07
1.58481e-05
-1.50195e-07
1.5852e-05
-1.84098e-07
1.58562e-05
-2.25812e-07
1.58611e-05
-2.77136e-07
1.58665e-05
-3.40322e-07
1.58726e-05
-4.18242e-07
1.58796e-05
-5.14787e-07
1.58875e-05
-6.34306e-07
-7.87753e-07
1.58979e-05
1.58111e-05
-3.33916e-10
1.58116e-05
-1.18649e-09
1.58122e-05
-2.31344e-09
1.58131e-05
-3.61109e-09
1.58142e-05
-4.98248e-09
1.58153e-05
-6.36905e-09
1.58165e-05
-7.77781e-09
1.58178e-05
-9.28929e-09
1.58191e-05
-1.10475e-08
1.58204e-05
-1.32398e-08
1.58218e-05
-1.60695e-08
1.58232e-05
-1.973e-08
1.58246e-05
-2.43876e-08
1.58261e-05
-3.01863e-08
1.58276e-05
-3.72721e-08
1.58291e-05
-4.58309e-08
1.58307e-05
-5.61283e-08
1.58323e-05
-6.85426e-08
1.5834e-05
-8.3588e-08
1.58357e-05
-1.01929e-07
1.58375e-05
-1.24393e-07
1.58392e-05
-1.51981e-07
1.5841e-05
-1.85895e-07
1.58428e-05
-2.27586e-07
1.58445e-05
-2.78829e-07
1.5846e-05
-3.41842e-07
1.58472e-05
-4.19446e-07
1.5848e-05
-5.15512e-07
1.58478e-05
-6.34111e-07
-7.87122e-07
1.58471e-05
1.58111e-05
-4.79194e-10
1.58115e-05
-1.61185e-09
1.58122e-05
-2.98036e-09
1.58131e-05
-4.46058e-09
1.5814e-05
-5.95719e-09
1.58151e-05
-7.42943e-09
1.58162e-05
-8.89991e-09
1.58174e-05
-1.04547e-08
1.58186e-05
-1.22388e-08
1.58198e-05
-1.4442e-08
1.5821e-05
-1.72713e-08
1.58222e-05
-2.09216e-08
1.58233e-05
-2.55596e-08
1.58245e-05
-3.13286e-08
1.58256e-05
-3.83735e-08
1.58266e-05
-4.68786e-08
1.58276e-05
-5.71066e-08
1.58285e-05
-6.94311e-08
1.58293e-05
-8.43596e-08
1.58299e-05
-1.02547e-07
1.58303e-05
-1.24808e-07
1.58304e-05
-1.52123e-07
1.58302e-05
-1.8567e-07
1.58295e-05
-2.26862e-07
1.58281e-05
-2.77422e-07
1.58257e-05
-3.39493e-07
1.58221e-05
-4.15783e-07
1.58166e-05
-5.10019e-07
1.58084e-05
-6.25932e-07
-7.75542e-07
1.57968e-05
1.58111e-05
-6.23395e-10
1.58115e-05
-2.03628e-09
1.58122e-05
-3.63749e-09
1.5813e-05
-5.2847e-09
1.58139e-05
-6.88831e-09
1.58149e-05
-8.42872e-09
1.5816e-05
-9.94433e-09
1.58171e-05
-1.15249e-08
1.58181e-05
-1.33151e-08
1.58192e-05
-1.55055e-08
1.58202e-05
-1.83044e-08
1.58212e-05
-2.1906e-08
1.58221e-05
-2.64749e-08
1.5823e-05
-3.21522e-08
1.58237e-05
-3.90806e-08
1.58242e-05
-4.74408e-08
1.58246e-05
-5.74898e-08
1.58248e-05
-6.95926e-08
1.58247e-05
-8.42443e-08
1.58242e-05
-1.02083e-07
1.58233e-05
-1.239e-07
1.58218e-05
-1.50646e-07
1.58196e-05
-1.83458e-07
1.58164e-05
-2.2369e-07
1.5812e-05
-2.72986e-07
1.58059e-05
-3.33376e-07
1.57975e-05
-4.07396e-07
1.5786e-05
-4.98518e-07
1.57701e-05
-6.10071e-07
-7.53437e-07
1.5748e-05
1.58111e-05
-7.71387e-10
1.58115e-05
-2.47126e-09
1.58122e-05
-4.29998e-09
1.5813e-05
-6.09684e-09
1.58139e-05
-7.78573e-09
1.58149e-05
-9.37476e-09
1.58158e-05
-1.0918e-08
1.58168e-05
-1.25061e-08
1.58178e-05
-1.42816e-08
1.58187e-05
-1.64349e-08
1.58196e-05
-1.91733e-08
1.58204e-05
-2.26876e-08
1.5821e-05
-2.71384e-08
1.58215e-05
-3.26632e-08
1.58219e-05
-3.9401e-08
1.5822e-05
-4.7527e-08
1.58218e-05
-5.729e-08
1.58212e-05
-6.90424e-08
1.58202e-05
-8.32619e-08
1.58187e-05
-1.00563e-07
1.58165e-05
-1.21704e-07
1.58134e-05
-1.47595e-07
1.58093e-05
-1.79316e-07
1.58038e-05
-2.18149e-07
1.57964e-05
-2.65632e-07
1.57867e-05
-3.23647e-07
1.57738e-05
-3.94511e-07
1.57566e-05
-4.81344e-07
1.57336e-05
-5.87029e-07
-7.21596e-07
1.57017e-05
1.58111e-05
-9.28505e-10
1.58116e-05
-2.9311e-09
1.58123e-05
-4.98501e-09
1.58131e-05
-6.91112e-09
1.5814e-05
-8.65967e-09
1.58149e-05
-1.02761e-08
1.58158e-05
-1.18288e-08
1.58167e-05
-1.3405e-08
1.58175e-05
-1.5144e-08
1.58183e-05
-1.72356e-08
1.5819e-05
-1.98837e-08
1.58196e-05
-2.3273e-08
1.582e-05
-2.7558e-08
1.58203e-05
-3.28711e-08
1.58202e-05
-3.93463e-08
1.58198e-05
-4.71518e-08
1.58191e-05
-5.65254e-08
1.58178e-05
-6.78036e-08
1.5816e-05
-8.14414e-08
1.58135e-05
-9.80227e-08
1.581e-05
-1.18266e-07
1.58055e-05
-1.4303e-07
1.57995e-05
-1.73327e-07
1.57917e-05
-2.10349e-07
1.57815e-05
-2.5551e-07
1.57684e-05
-3.10516e-07
1.57513e-05
-3.77431e-07
1.57289e-05
-4.58946e-07
1.56994e-05
-5.57485e-07
-6.81136e-07
1.56589e-05
1.58111e-05
-1.10163e-09
1.58116e-05
-3.43422e-09
1.58124e-05
-5.7128e-09
1.58132e-05
-7.74228e-09
1.58141e-05
-9.52035e-09
1.58149e-05
-1.1142e-08
1.58158e-05
-1.26853e-08
1.58166e-05
-1.42289e-08
1.58174e-05
-1.59091e-08
1.58181e-05
-1.79148e-08
1.58186e-05
-2.04436e-08
1.5819e-05
-2.36712e-08
1.58192e-05
-2.77441e-08
1.58191e-05
-3.27886e-08
1.58187e-05
-3.89322e-08
1.58179e-05
-4.63344e-08
1.58166e-05
-5.52199e-08
1.58147e-05
-6.59059e-08
1.58121e-05
-7.88201e-08
1.58085e-05
-9.45102e-08
1.58039e-05
-1.13648e-07
1.57979e-05
-1.3703e-07
1.57902e-05
-1.65593e-07
1.57803e-05
-2.00425e-07
1.57676e-05
-2.42802e-07
1.57513e-05
-2.94236e-07
1.57304e-05
-3.56514e-07
1.57033e-05
-4.3186e-07
1.5668e-05
-5.22246e-07
-6.33415e-07
1.56203e-05
1.58112e-05
-1.30065e-09
1.58117e-05
-4.00518e-09
1.58125e-05
-6.50753e-09
1.58134e-05
-8.60506e-09
1.58143e-05
-1.03779e-08
1.58151e-05
-1.19826e-08
1.58159e-05
-1.34968e-08
1.58167e-05
-1.49856e-08
1.58173e-05
-1.65843e-08
1.58179e-05
-1.84803e-08
1.58183e-05
-2.0862e-08
1.58185e-05
-2.38928e-08
1.58185e-05
-2.77097e-08
1.58181e-05
-3.24316e-08
1.58174e-05
-3.81783e-08
1.58162e-05
-4.5099e-08
1.58143e-05
-5.34035e-08
1.58118e-05
-6.33864e-08
1.58084e-05
-7.54444e-08
1.5804e-05
-9.00833e-08
1.57983e-05
-1.07921e-07
1.5791e-05
-1.29688e-07
1.57816e-05
-1.56233e-07
1.57697e-05
-1.88533e-07
1.57546e-05
-2.27717e-07
1.57355e-05
-2.75091e-07
1.57111e-05
-3.32162e-07
1.56799e-05
-4.00673e-07
1.56399e-05
-4.82199e-07
-5.79972e-07
1.55864e-05
1.58112e-05
-1.54073e-09
1.58119e-05
-4.678e-09
1.58128e-05
-7.39779e-09
1.58137e-05
-9.51309e-09
1.58145e-05
-1.12423e-08
1.58154e-05
-1.28092e-08
1.58161e-05
-1.42731e-08
1.58168e-05
-1.56831e-08
1.58174e-05
-1.71777e-08
1.58179e-05
-1.89415e-08
1.58182e-05
-2.11492e-08
1.58182e-05
-2.39496e-08
1.5818e-05
-2.74688e-08
1.58174e-05
-3.18174e-08
1.58163e-05
-3.71062e-08
1.58147e-05
-4.34729e-08
1.58124e-05
-5.11101e-08
1.58093e-05
-6.02877e-08
1.58052e-05
-7.13668e-08
1.57999e-05
-8.48075e-08
1.57932e-05
-1.01169e-07
1.57846e-05
-1.21108e-07
1.57738e-05
-1.45382e-07
1.57601e-05
-1.74849e-07
1.57428e-05
-2.10485e-07
1.57211e-05
-2.53391e-07
1.56938e-05
-3.04799e-07
1.56591e-05
-3.65994e-07
1.56151e-05
-4.38246e-07
-5.22303e-07
1.55575e-05
1.58113e-05
-1.84482e-09
1.58121e-05
-5.50243e-09
1.58131e-05
-8.41648e-09
1.58141e-05
-1.04775e-08
1.5815e-05
-1.2124e-08
1.58158e-05
-1.36337e-08
1.58165e-05
-1.5023e-08
1.58172e-05
-1.63292e-08
1.58177e-05
-1.76989e-08
1.58181e-05
-1.93101e-08
1.58182e-05
-2.1319e-08
1.58181e-05
-2.38577e-08
1.58177e-05
-2.70406e-08
1.58169e-05
-3.09688e-08
1.58155e-05
-3.57435e-08
1.58135e-05
-4.14894e-08
1.58108e-05
-4.83803e-08
1.58072e-05
-5.66585e-08
1.58024e-05
-6.66476e-08
1.57964e-05
-7.87575e-08
1.57887e-05
-9.34847e-08
1.5779e-05
-1.11408e-07
1.57668e-05
-1.33187e-07
1.57515e-05
-1.5956e-07
1.57324e-05
-1.9135e-07
1.57085e-05
-2.29453e-07
1.56785e-05
-2.74851e-07
1.56409e-05
-3.28408e-07
1.55939e-05
-3.91231e-07
-4.61868e-07
1.55335e-05
1.58114e-05
-2.25052e-09
1.58124e-05
-6.55223e-09
1.58136e-05
-9.59656e-09
1.58146e-05
-1.15068e-08
1.58155e-05
-1.30371e-08
1.58164e-05
-1.44686e-08
1.58171e-05
-1.57524e-08
1.58177e-05
-1.69282e-08
1.58182e-05
-1.81537e-08
1.58184e-05
-1.95931e-08
1.58185e-05
-2.13799e-08
1.58183e-05
-2.36286e-08
1.58177e-05
-2.64409e-08
1.58166e-05
-2.99072e-08
1.5815e-05
-3.41174e-08
1.58127e-05
-3.91824e-08
1.58096e-05
-4.52567e-08
1.58055e-05
-5.25528e-08
1.58002e-05
-6.13531e-08
1.57934e-05
-7.20145e-08
1.57849e-05
-8.49676e-08
1.57742e-05
-1.00711e-07
1.57608e-05
-1.19803e-07
1.57441e-05
-1.42863e-07
1.57233e-05
-1.70564e-07
1.56975e-05
-2.03602e-07
1.56654e-05
-2.42738e-07
1.56254e-05
-2.88456e-07
1.55761e-05
-3.41893e-07
-3.99798e-07
1.5514e-05
1.58115e-05
-2.82897e-09
1.58129e-05
-7.93379e-09
1.58143e-05
-1.0955e-08
1.58154e-05
-1.2605e-08
1.58164e-05
-1.40052e-08
1.58172e-05
-1.53328e-08
1.58179e-05
-1.64734e-08
1.58185e-05
-1.74932e-08
1.58189e-05
-1.85581e-08
1.58191e-05
-1.98085e-08
1.58191e-05
-2.13516e-08
1.58187e-05
-2.3284e-08
1.5818e-05
-2.5694e-08
1.58168e-05
-2.866e-08
1.58149e-05
-3.22597e-08
1.58123e-05
-3.65901e-08
1.58088e-05
-4.17854e-08
1.58043e-05
-4.80267e-08
1.57985e-05
-5.55528e-08
1.57912e-05
-6.46644e-08
1.57819e-05
-7.57249e-08
1.57704e-05
-8.91488e-08
1.57559e-05
-1.05396e-07
1.5738e-05
-1.24964e-07
1.57159e-05
-1.48383e-07
1.56884e-05
-1.76159e-07
1.56545e-05
-2.08859e-07
1.56127e-05
-2.46593e-07
1.55616e-05
-2.90794e-07
-3.36858e-07
1.54986e-05
1.58119e-05
-3.72227e-09
1.58137e-05
-9.80602e-09
1.58153e-05
-1.2474e-08
1.58164e-05
-1.37655e-08
1.58174e-05
-1.50343e-08
1.58183e-05
-1.62182e-08
1.5819e-05
-1.71782e-08
1.58196e-05
-1.80241e-08
1.58199e-05
-1.89158e-08
1.58201e-05
-1.99621e-08
1.582e-05
-2.12438e-08
1.58195e-05
-2.28396e-08
1.58186e-05
-2.48219e-08
1.58172e-05
-2.72562e-08
1.58152e-05
-3.02072e-08
1.58124e-05
-3.37578e-08
1.58086e-05
-3.80217e-08
1.58037e-05
-4.31466e-08
1.57975e-05
-4.93251e-08
1.57896e-05
-5.67988e-08
1.57798e-05
-6.58688e-08
1.57675e-05
-7.68596e-08
1.57522e-05
-9.01315e-08
1.57333e-05
-1.06069e-07
1.571e-05
-1.25069e-07
1.56813e-05
-1.47449e-07
1.5646e-05
-1.73607e-07
1.56027e-05
-2.0323e-07
1.55503e-05
-2.38405e-07
-2.72729e-07
1.54862e-05
1.58124e-05
-5.19526e-09
1.5815e-05
-1.23696e-08
1.58167e-05
-1.41469e-08
1.5818e-05
-1.50662e-08
1.58191e-05
-1.61701e-08
1.582e-05
-1.71268e-08
1.58207e-05
-1.78665e-08
1.58212e-05
-1.8528e-08
1.58215e-05
-1.92371e-08
1.58216e-05
-2.00669e-08
1.58215e-05
-2.10723e-08
1.58209e-05
-2.23135e-08
1.582e-05
-2.38453e-08
1.58184e-05
-2.572e-08
1.58162e-05
-2.79882e-08
1.58132e-05
-3.07205e-08
1.58092e-05
-3.40102e-08
1.5804e-05
-3.79712e-08
1.57974e-05
-4.27479e-08
1.57891e-05
-4.85135e-08
1.57788e-05
-5.55215e-08
1.57659e-05
-6.39933e-08
1.575e-05
-7.41948e-08
1.57303e-05
-8.6404e-08
1.57061e-05
-1.00893e-07
1.56765e-05
-1.17814e-07
1.56403e-05
-1.37386e-07
1.55957e-05
-1.58647e-07
1.55425e-05
-1.85248e-07
-2.0594e-07
1.54757e-05
1.58135e-05
-7.77542e-09
1.58167e-05
-1.55297e-08
1.58184e-05
-1.58576e-08
1.582e-05
-1.66051e-08
1.58212e-05
-1.74358e-08
1.58222e-05
-1.80676e-08
1.58229e-05
-1.85634e-08
1.58234e-05
-1.90322e-08
1.58237e-05
-1.95446e-08
1.58237e-05
-2.01428e-08
1.58235e-05
-2.08601e-08
1.5823e-05
-2.17326e-08
1.58219e-05
-2.27953e-08
1.58203e-05
-2.40901e-08
1.58179e-05
-2.56498e-08
1.58147e-05
-2.75343e-08
1.58106e-05
-2.98181e-08
1.58052e-05
-3.2578e-08
1.57983e-05
-3.59105e-08
1.57897e-05
-3.99027e-08
1.5779e-05
-4.47927e-08
1.57657e-05
-5.06759e-08
1.57492e-05
-5.77345e-08
1.5729e-05
-6.61538e-08
1.57042e-05
-7.60942e-08
1.5674e-05
-8.76098e-08
1.56373e-05
-1.00708e-07
1.55921e-05
-1.13517e-07
1.55379e-05
-1.3101e-07
-1.30526e-07
1.54625e-05
1.5817e-05
-1.38455e-08
1.58204e-05
-1.89299e-08
1.58224e-05
-1.78338e-08
1.58238e-05
-1.79947e-08
1.58249e-05
-1.85135e-08
1.58257e-05
-1.88645e-08
1.58262e-05
-1.91067e-08
1.58265e-05
-1.93384e-08
1.58266e-05
-1.95972e-08
1.58263e-05
-1.99003e-08
1.58257e-05
-2.02649e-08
1.58247e-05
-2.07095e-08
1.58232e-05
-2.12533e-08
1.5821e-05
-2.192e-08
1.58181e-05
-2.27228e-08
1.58142e-05
-2.36947e-08
1.58093e-05
-2.48767e-08
1.5803e-05
-2.63082e-08
1.57952e-05
-2.80384e-08
1.57854e-05
-3.00972e-08
1.57732e-05
-3.26533e-08
1.57583e-05
-3.57285e-08
1.574e-05
-3.94238e-08
1.57176e-05
-4.38341e-08
1.56906e-05
-4.90425e-08
1.5658e-05
-5.50234e-08
1.56191e-05
-6.18314e-08
1.55728e-05
-6.71971e-08
1.55148e-05
-7.30075e-08
-2.75481e-08
1.54118e-05
1.57971e-05
1.57782e-05
1.57604e-05
1.57424e-05
1.57238e-05
1.5705e-05
1.56859e-05
1.56665e-05
1.56469e-05
1.5627e-05
1.56068e-05
1.55861e-05
1.55648e-05
1.55429e-05
1.55202e-05
1.54965e-05
1.54716e-05
1.54453e-05
1.54173e-05
1.53872e-05
1.53545e-05
1.53188e-05
1.52794e-05
1.52355e-05
1.51865e-05
1.51315e-05
1.50696e-05
1.50024e-05
1.49294e-05
1.49019e-05
1.5561e-05
-9.09339e-06
9.38219e-06
1.52272e-05
-9.1803e-06
9.51413e-06
1.48393e-05
-9.24462e-06
9.63248e-06
1.44062e-05
-9.28326e-06
9.71632e-06
1.39468e-05
-9.31606e-06
9.77547e-06
1.34747e-05
-9.35093e-06
9.82307e-06
1.29967e-05
-9.38939e-06
9.86734e-06
1.2516e-05
-9.43145e-06
9.91218e-06
1.20335e-05
-9.47698e-06
9.95947e-06
1.15493e-05
-9.52575e-06
1.001e-05
1.10631e-05
-9.57768e-06
1.00639e-05
1.05746e-05
-9.63295e-06
1.01214e-05
1.00837e-05
-9.69209e-06
1.0183e-05
9.59045e-06
-9.75587e-06
1.02491e-05
9.09472e-06
-9.82523e-06
1.0321e-05
8.5964e-06
-9.90133e-06
1.03996e-05
8.09528e-06
-9.98561e-06
1.04867e-05
7.59102e-06
-1.008e-05
1.05842e-05
7.08318e-06
-1.01868e-05
1.06947e-05
6.57106e-06
-1.03096e-05
1.08217e-05
6.05382e-06
-1.04526e-05
1.09698e-05
5.52961e-06
-1.06225e-05
1.11467e-05
4.99815e-06
-1.08272e-05
1.13586e-05
4.45092e-06
-1.1085e-05
1.16323e-05
3.89741e-06
-1.13996e-05
1.19531e-05
3.29544e-06
-1.18631e-05
1.24651e-05
2.70073e-06
-1.23655e-05
1.29602e-05
1.95329e-06
-1.3485e-05
1.42325e-05
1.18728e-06
-1.431e-05
1.5076e-05
-1.8149e-05
1.93363e-05
1.58443e-05
-8.69087e-06
1.53945e-05
-8.73052e-06
1.49199e-05
-8.77e-06
1.44376e-05
-8.80089e-06
1.3955e-05
-8.83345e-06
1.34742e-05
-8.87017e-06
1.29949e-05
-8.91013e-06
1.25158e-05
-8.95233e-06
1.20355e-05
-8.99668e-06
1.15532e-05
-9.04346e-06
1.10686e-05
-9.09305e-06
1.05816e-05
-9.14594e-06
1.00922e-05
-9.20275e-06
9.60056e-06
-9.26419e-06
9.10644e-06
-9.33111e-06
8.60971e-06
-9.4046e-06
8.11011e-06
-9.486e-06
7.60725e-06
-9.5771e-06
7.10064e-06
-9.68023e-06
6.58956e-06
-9.79848e-06
6.07302e-06
-9.93607e-06
5.54943e-06
-1.00989e-05
5.0173e-06
-1.0295e-05
4.47106e-06
-1.05388e-05
3.91294e-06
-1.08415e-05
3.31476e-06
-1.12649e-05
2.70797e-06
-1.17587e-05
1.96773e-06
-1.27448e-05
1.19545e-06
-1.35377e-05
-1.69536e-05
1.58059e-05
-8.23639e-06
1.53408e-05
-8.26537e-06
1.48696e-05
-8.29884e-06
1.43998e-05
-8.33112e-06
1.39301e-05
-8.36374e-06
1.34591e-05
-8.39918e-06
1.29858e-05
-8.43682e-06
1.25098e-05
-8.47628e-06
1.2031e-05
-8.5179e-06
1.15497e-05
-8.56221e-06
1.10662e-05
-8.60955e-06
1.05806e-05
-8.66031e-06
1.00928e-05
-8.71497e-06
9.60278e-06
-8.77414e-06
9.1103e-06
-8.83864e-06
8.61518e-06
-8.90947e-06
8.11711e-06
-8.98794e-06
7.61572e-06
-9.07571e-06
7.11046e-06
-9.17497e-06
6.60057e-06
-9.2886e-06
6.08501e-06
-9.42051e-06
5.56225e-06
-9.57614e-06
5.03027e-06
-9.76307e-06
4.48486e-06
-9.9934e-06
3.92421e-06
-1.02808e-05
3.3288e-06
-1.06695e-05
2.71326e-06
-1.11432e-05
1.97858e-06
-1.20101e-05
1.19752e-06
-1.27567e-05
-1.57561e-05
1.57971e-05
-7.77626e-06
1.53341e-05
-7.80232e-06
1.48668e-05
-7.83157e-06
1.43974e-05
-7.86173e-06
1.39266e-05
-7.89285e-06
1.34535e-05
-7.92611e-06
1.29783e-05
-7.96166e-06
1.25014e-05
-7.99932e-06
1.20227e-05
-8.03927e-06
1.15424e-05
-8.08185e-06
1.10602e-05
-8.12735e-06
1.0576e-05
-8.1761e-06
1.00896e-05
-8.2286e-06
9.60094e-06
-8.28548e-06
9.1098e-06
-8.3475e-06
8.61597e-06
-8.41564e-06
8.11913e-06
-8.4911e-06
7.61887e-06
-8.57545e-06
7.11461e-06
-8.6707e-06
6.60555e-06
-8.77954e-06
6.0906e-06
-8.90555e-06
5.56819e-06
-9.05372e-06
5.03609e-06
-9.23097e-06
4.4906e-06
-9.44791e-06
3.92788e-06
-9.7181e-06
3.33343e-06
-1.0075e-05
2.71053e-06
-1.05203e-05
1.98059e-06
-1.12801e-05
1.19301e-06
-1.19691e-05
-1.4563e-05
1.57788e-05
-7.31326e-06
1.53139e-05
-7.33736e-06
1.48461e-05
-7.36384e-06
1.43767e-05
-7.39227e-06
1.39061e-05
-7.42231e-06
1.34342e-05
-7.45421e-06
1.29607e-05
-7.48814e-06
1.24855e-05
-7.5241e-06
1.20085e-05
-7.56226e-06
1.15295e-05
-7.60291e-06
1.10486e-05
-7.64638e-06
1.05655e-05
-7.69305e-06
1.00803e-05
-7.74338e-06
9.59277e-06
-7.79796e-06
9.10277e-06
-7.8575e-06
8.61004e-06
-7.92291e-06
8.11424e-06
-7.9953e-06
7.61491e-06
-8.07612e-06
7.11145e-06
-8.16724e-06
6.60302e-06
-8.27112e-06
6.08849e-06
-8.39102e-06
5.56624e-06
-8.53147e-06
5.03395e-06
-8.69868e-06
4.48805e-06
-8.90201e-06
3.92376e-06
-9.15382e-06
3.32931e-06
-9.48059e-06
2.70095e-06
-9.89191e-06
1.97469e-06
-1.05539e-05
1.18191e-06
-1.11763e-05
-1.33811e-05
1.57561e-05
-6.84938e-06
1.52909e-05
-6.8721e-06
1.48238e-05
-6.89681e-06
1.43554e-05
-6.92379e-06
1.38856e-05
-6.95257e-06
1.34144e-05
-6.98298e-06
1.29415e-05
-7.01519e-06
1.24668e-05
-7.0494e-06
1.19903e-05
-7.08579e-06
1.1512e-05
-7.12463e-06
1.10318e-05
-7.16621e-06
1.05497e-05
-7.2109e-06
1.00654e-05
-7.25911e-06
9.57887e-06
-7.31141e-06
9.08982e-06
-7.36845e-06
8.59798e-06
-7.43107e-06
8.10299e-06
-7.50031e-06
7.60437e-06
-7.5775e-06
7.10148e-06
-7.66435e-06
6.59346e-06
-7.76309e-06
6.07913e-06
-7.87669e-06
5.55682e-06
-8.00917e-06
5.02418e-06
-8.16604e-06
4.47761e-06
-8.35544e-06
3.91199e-06
-8.5882e-06
3.31691e-06
-8.88552e-06
2.68451e-06
-9.25951e-06
1.96127e-06
-9.83065e-06
1.16563e-06
-1.03807e-05
-1.22155e-05
1.57289e-05
-6.38526e-06
1.52636e-05
-6.4068e-06
1.47969e-05
-6.43009e-06
1.43288e-05
-6.45569e-06
1.38593e-05
-6.48313e-06
1.33884e-05
-6.5121e-06
1.2916e-05
-6.54276e-06
1.2442e-05
-6.57535e-06
1.19662e-05
-6.61008e-06
1.14888e-05
-6.64717e-06
1.10095e-05
-6.68689e-06
1.05281e-05
-6.72958e-06
1.00447e-05
-6.77567e-06
9.55893e-06
-6.82564e-06
9.07062e-06
-6.88014e-06
8.57946e-06
-6.93991e-06
8.08508e-06
-7.00593e-06
7.58697e-06
-7.07939e-06
7.08445e-06
-7.16184e-06
6.57665e-06
-7.25529e-06
6.06234e-06
-7.36238e-06
5.53983e-06
-7.48666e-06
5.00671e-06
-7.63292e-06
4.45938e-06
-7.80811e-06
3.89259e-06
-8.02141e-06
3.29667e-06
-8.2896e-06
2.66149e-06
-8.62432e-06
1.94156e-06
-9.11072e-06
1.14467e-06
-9.58379e-06
-1.10708e-05
1.56973e-05
-5.92102e-06
1.5232e-05
-5.94152e-06
1.47655e-05
-5.96358e-06
1.42977e-05
-5.9879e-06
1.38286e-05
-6.01403e-06
1.33581e-05
-6.04162e-06
1.28861e-05
-6.07079e-06
1.24126e-05
-6.10182e-06
1.19374e-05
-6.13491e-06
1.14605e-05
-6.17026e-06
1.09818e-05
-6.20814e-06
1.05011e-05
-6.24886e-06
1.00182e-05
-6.29282e-06
9.53305e-06
-6.34047e-06
9.04529e-06
-6.39238e-06
8.55464e-06
-6.44926e-06
8.06069e-06
-6.51197e-06
7.5629e-06
-6.5816e-06
7.06059e-06
-6.65953e-06
6.55285e-06
-6.74755e-06
6.03842e-06
-6.84795e-06
5.51558e-06
-6.96382e-06
4.98191e-06
-7.09925e-06
4.4338e-06
-7.26001e-06
3.866e-06
-7.4536e-06
3.26929e-06
-7.69289e-06
2.63243e-06
-7.98747e-06
1.91618e-06
-8.39447e-06
1.11991e-06
-8.78753e-06
-9.95092e-06
1.56614e-05
-5.45671e-06
1.51962e-05
-5.47626e-06
1.47298e-05
-5.4972e-06
1.42622e-05
-5.5203e-06
1.37933e-05
-5.54515e-06
1.33231e-05
-5.57139e-06
1.28514e-05
-5.59913e-06
1.23783e-05
-5.62865e-06
1.19035e-05
-5.66014e-06
1.1427e-05
-5.6938e-06
1.09487e-05
-5.72986e-06
1.04685e-05
-5.76861e-06
9.98611e-06
-5.81043e-06
9.50137e-06
-5.85573e-06
9.01401e-06
-5.90503e-06
8.5237e-06
-5.95895e-06
8.03002e-06
-6.01829e-06
7.53241e-06
-6.08399e-06
7.03016e-06
-6.15729e-06
6.52235e-06
-6.23973e-06
6.00769e-06
-6.3333e-06
5.48447e-06
-6.44059e-06
4.95023e-06
-6.56501e-06
4.40141e-06
-6.71118e-06
3.83278e-06
-6.88498e-06
3.23553e-06
-7.09564e-06
2.59803e-06
-7.34997e-06
1.88595e-06
-7.68239e-06
1.09241e-06
-7.99398e-06
-8.85851e-06
1.56217e-05
-4.99227e-06
1.51563e-05
-5.01095e-06
1.469e-05
-5.03087e-06
1.42225e-05
-5.0528e-06
1.37538e-05
-5.0764e-06
1.32837e-05
-5.10134e-06
1.28123e-05
-5.12769e-06
1.23393e-05
-5.15573e-06
1.18649e-05
-5.18565e-06
1.13887e-05
-5.21763e-06
1.09107e-05
-5.25189e-06
1.04308e-05
-5.28868e-06
9.94871e-06
-5.32835e-06
9.46426e-06
-5.37127e-06
8.97715e-06
-5.41792e-06
8.48704e-06
-5.46884e-06
7.99349e-06
-5.52473e-06
7.49593e-06
-5.58644e-06
6.99365e-06
-5.655e-06
6.48568e-06
-5.73176e-06
5.97075e-06
-5.81837e-06
5.44712e-06
-5.91696e-06
4.91236e-06
-6.03025e-06
4.36294e-06
-6.16177e-06
3.79376e-06