/*--------------------------------*- C++ -*----------------------------------*\
  =========                 |
  \\      /  F ield         | OpenFOAM: The Open Source CFD Toolbox
   \\    /   O peration     | Website:  https://openfoam.org
    \\  /    A nd           | Version:  11
     \\/     M anipulation  |
\*---------------------------------------------------------------------------*/
FoamFile
{
    format      ascii;
    class       volScalarField;
    location    "4.7";
    object      p;
}
// * * * * * * * * * * * * * * * * * * * * * * * * * * * * * * * * * * * * * //

dimensions      [0 2 -2 0 0 0 0];

internalField   nonuniform List<scalar> 
12600
(
0.202614
0.202517
0.202449
0.202404
0.202354
0.202289
0.202211
0.202119
0.202013
0.201888
0.201743
0.201574
0.201376
0.201146
0.200878
0.200565
0.200196
0.199764
0.199254
0.198651
0.19794
0.197105
0.196119
0.194951
0.193565
0.191924
0.189983
0.187688
0.185
0.181798
0.20255
0.202503
0.202451
0.202407
0.202357
0.202294
0.202218
0.202127
0.202022
0.201899
0.201756
0.20159
0.201397
0.201171
0.200907
0.200598
0.200236
0.199813
0.199314
0.198719
0.198016
0.197196
0.196228
0.19508
0.193717
0.1921
0.190183
0.187911
0.18524
0.182094
0.20253
0.202509
0.202467
0.20242
0.20237
0.202309
0.202235
0.202147
0.202045
0.201927
0.201788
0.201625
0.201436
0.201216
0.200959
0.20066
0.200309
0.199897
0.199412
0.198839
0.198164
0.197372
0.196434
0.195321
0.193998
0.192426
0.190555
0.188333
0.185689
0.182577
0.202526
0.202511
0.202476
0.202433
0.202384
0.202326
0.202256
0.202172
0.202074
0.20196
0.201827
0.201672
0.201491
0.201281
0.201035
0.200749
0.200415
0.200022
0.199562
0.199019
0.198379
0.197625
0.196733
0.195674
0.194413
0.19291
0.191112
0.188966
0.186383
0.183322
0.202532
0.20252
0.202493
0.202454
0.202408
0.202354
0.202287
0.202209
0.202116
0.202007
0.201882
0.201735
0.201565
0.201366
0.201136
0.200867
0.200553
0.200187
0.199757
0.199251
0.198656
0.197954
0.197123
0.196136
0.194957
0.193547
0.19185
0.189811
0.187327
0.184359
0.202546
0.202537
0.202514
0.202479
0.202437
0.202385
0.202324
0.20225
0.202164
0.202063
0.201946
0.20181
0.201652
0.201469
0.201256
0.201009
0.200721
0.200385
0.199992
0.199532
0.198991
0.198353
0.197597
0.196699
0.195624
0.194332
0.192768
0.190872
0.18853
0.185701
0.202568
0.20256
0.20254
0.202509
0.202471
0.202424
0.202367
0.2023
0.202221
0.202129
0.202022
0.201898
0.201754
0.201588
0.201396
0.201174
0.200916
0.200616
0.200266
0.199858
0.199379
0.198816
0.198149
0.197356
0.196406
0.195259
0.19386
0.192147
0.189997
0.187363
0.202595
0.202588
0.202571
0.202544
0.20251
0.202467
0.202416
0.202356
0.202285
0.202202
0.202107
0.201996
0.201869
0.201722
0.201553
0.201358
0.201133
0.200873
0.200572
0.200222
0.199813
0.199334
0.198769
0.198097
0.197292
0.196315
0.195115
0.19363
0.191728
0.189359
0.202627
0.202621
0.202606
0.202583
0.202553
0.202516
0.202471
0.202418
0.202356
0.202283
0.2022
0.202104
0.201995
0.201869
0.201725
0.20156
0.201371
0.201154
0.200905
0.200617
0.200285
0.199898
0.199445
0.198909
0.198267
0.197487
0.19652
0.195308
0.193719
0.191697
0.202664
0.202659
0.202646
0.202626
0.202601
0.202569
0.20253
0.202485
0.202432
0.202371
0.2023
0.20222
0.202129
0.202025
0.201908
0.201774
0.201623
0.201452
0.201258
0.201037
0.200786
0.200498
0.200165
0.199776
0.199312
0.198751
0.19805
0.197158
0.195949
0.194366
0.202704
0.2027
0.202689
0.202673
0.202652
0.202625
0.202593
0.202556
0.202513
0.202463
0.202406
0.202342
0.20227
0.202189
0.202099
0.201998
0.201887
0.201763
0.201625
0.201474
0.201306
0.201121
0.200914
0.200679
0.200407
0.200083
0.199675
0.199145
0.198384
0.197337
0.202747
0.202744
0.202736
0.202723
0.202706
0.202685
0.202659
0.20263
0.202597
0.202559
0.202516
0.202469
0.202416
0.202359
0.202296
0.202229
0.202156
0.20208
0.202
0.201918
0.201836
0.201754
0.201674
0.201598
0.201525
0.201449
0.201355
0.201222
0.200968
0.200549
0.202793
0.202791
0.202784
0.202774
0.202762
0.202746
0.202728
0.202707
0.202683
0.202657
0.202629
0.202598
0.202565
0.202531
0.202496
0.202461
0.202428
0.202399
0.202376
0.202362
0.202363
0.202383
0.20243
0.202512
0.202636
0.202812
0.203043
0.203326
0.203623
0.203907
0.20284
0.202839
0.202835
0.202828
0.202819
0.202809
0.202798
0.202785
0.202772
0.202757
0.202742
0.202728
0.202715
0.202703
0.202695
0.202693
0.202698
0.202714
0.202745
0.202797
0.202877
0.202995
0.203163
0.203396
0.203712
0.204133
0.204682
0.205384
0.206248
0.207277
0.202889
0.202888
0.202886
0.202883
0.202878
0.202874
0.202869
0.202864
0.20286
0.202857
0.202856
0.202857
0.202863
0.202874
0.202892
0.20292
0.202961
0.203019
0.203101
0.203215
0.203369
0.203577
0.203856
0.204228
0.20472
0.205368
0.206215
0.207313
0.208725
0.210493
0.202938
0.202938
0.202938
0.202937
0.202937
0.202938
0.202939
0.202942
0.202948
0.202956
0.202968
0.202985
0.203008
0.20304
0.203082
0.203139
0.203213
0.203311
0.20344
0.203608
0.203828
0.204117
0.204493
0.204986
0.205632
0.206477
0.207584
0.20903
0.21093
0.213367
0.202988
0.202988
0.20299
0.202992
0.202996
0.203001
0.203009
0.203019
0.203034
0.203053
0.203077
0.203108
0.203149
0.2032
0.203265
0.203347
0.203452
0.203586
0.203755
0.203972
0.204248
0.204604
0.205062
0.205654
0.206423
0.207425
0.208737
0.210456
0.212742
0.215716
0.203037
0.203038
0.203041
0.203046
0.203053
0.203063
0.203077
0.203095
0.203117
0.203146
0.203182
0.203227
0.203283
0.203352
0.203437
0.203544
0.203675
0.203839
0.204044
0.2043
0.204623
0.205031
0.205551
0.206217
0.207074
0.208184
0.209633
0.211532
0.214066
0.217384
0.203085
0.203086
0.203091
0.203099
0.203109
0.203124
0.203143
0.203167
0.203197
0.203235
0.203282
0.203339
0.203409
0.203495
0.203598
0.203725
0.20388
0.204069
0.204302
0.20459
0.204947
0.205394
0.205955
0.206666
0.207573
0.208739
0.21025
0.21222
0.214841
0.218273
0.203131
0.203134
0.20314
0.20315
0.203163
0.203181
0.203205
0.203236
0.203273
0.20332
0.203376
0.203445
0.203527
0.203627
0.203746
0.20389
0.204064
0.204274
0.204529
0.20484
0.205221
0.20569
0.206272
0.207001
0.207919
0.209087
0.210582
0.212514
0.215058
0.218361
0.203177
0.203179
0.203186
0.203198
0.203214
0.203236
0.203264
0.2033
0.203344
0.203398
0.203464
0.203542
0.203636
0.203748
0.203881
0.204039
0.204228
0.204454
0.204725
0.20505
0.205443
0.20592
0.206504
0.207224
0.208117
0.209239
0.210643
0.212436
0.214751
0.217706
0.20322
0.203223
0.203231
0.203244
0.203262
0.203287
0.203319
0.20336
0.20341
0.203471
0.203544
0.203631
0.203734
0.203856
0.204001
0.204171
0.204371
0.204608
0.204889
0.205221
0.205617
0.20609
0.206658
0.207345
0.20818
0.209196
0.210467
0.212036
0.213998
0.216433
0.203261
0.203264
0.203272
0.203286
0.203306
0.203334
0.20337
0.203415
0.20347
0.203536
0.203616
0.20371
0.203822
0.203953
0.204106
0.204285
0.204494
0.204738
0.205023
0.205356
0.205747
0.206204
0.206743
0.207378
0.20813
0.209028
0.210102
0.211384
0.212909
0.214715
0.2033
0.203303
0.203311
0.203325
0.203346
0.203376
0.203415
0.203463
0.203523
0.203594
0.20368
0.203781
0.203899
0.204037
0.204197
0.204382
0.204597
0.204845
0.205131
0.20546
0.205838
0.206273
0.206772
0.207344
0.208
0.208751
0.209604
0.210567
0.211615
0.212749
0.203336
0.203339
0.203346
0.203359
0.203382
0.203413
0.203454
0.203506
0.203569
0.203645
0.203735
0.203841
0.203964
0.204107
0.204273
0.204463
0.204681
0.20493
0.205213
0.205534
0.205897
0.206304
0.206759
0.207262
0.207813
0.208409
0.209034
0.209671
0.210244
0.21072
0.203372
0.203373
0.203377
0.203389
0.203412
0.203445
0.203489
0.203543
0.203608
0.203688
0.203782
0.203892
0.204019
0.204167
0.204336
0.204529
0.204749
0.204997
0.205276
0.205587
0.205932
0.20631
0.206718
0.207153
0.207601
0.208045
0.208453
0.208783
0.208918
0.208798
0.203406
0.203405
0.203403
0.203413
0.203436
0.203471
0.203515
0.203571
0.203639
0.203721
0.203818
0.203931
0.204062
0.204213
0.204384
0.20458
0.204799
0.205045
0.205319
0.20562
0.205947
0.206297
0.206663
0.207033
0.207388
0.207697
0.207912
0.207975
0.207738
0.207116
0.203441
0.203435
0.203426
0.203434
0.203458
0.203493
0.203538
0.203595
0.203665
0.203749
0.203847
0.203963
0.204096
0.204249
0.204422
0.204618
0.204837
0.205081
0.205349
0.20564
0.205952
0.206279
0.206609
0.206926
0.207204
0.207399
0.207456
0.207308
0.206788
0.205783
0.203483
0.20345
0.203433
0.203443
0.203469
0.203505
0.20355
0.203608
0.20368
0.203765
0.203866
0.203983
0.204117
0.204271
0.204445
0.204641
0.204859
0.2051
0.205364
0.205647
0.205945
0.206253
0.20656
0.20684
0.207068
0.207183
0.207123
0.206827
0.206134
0.204884
0.203558
0.203474
0.203441
0.203452
0.203478
0.203513
0.203559
0.203617
0.203689
0.203775
0.203876
0.203994
0.204129
0.204283
0.204457
0.204653
0.204871
0.205111
0.205372
0.205651
0.205943
0.206239
0.206523
0.20678
0.206969
0.207036
0.206921
0.206541
0.205769
0.204414
0.179331
0.178154
0.177366
0.176795
0.176196
0.175534
0.174851
0.174171
0.173495
0.172815
0.172128
0.17143
0.170717
0.169981
0.16921
0.168391
0.167508
0.16654
0.16546
0.164234
0.162814
0.161135
0.159103
0.156589
0.153373
0.149228
0.14349
0.13563
0.125942
0.100791
0.179975
0.179128
0.178421
0.177835
0.17724
0.176612
0.175996
0.175407
0.174835
0.174272
0.173711
0.173149
0.172582
0.172003
0.171404
0.170776
0.170107
0.169384
0.168587
0.167692
0.166662
0.16545
0.163985
0.162169
0.159834
0.15681
0.152521
0.14689
0.138497
0.120673
0.180237
0.179635
0.179123
0.178623
0.17812
0.177623
0.177149
0.176698
0.176261
0.175833
0.175413
0.174999
0.17459
0.174184
0.173775
0.17336
0.172932
0.172482
0.171999
0.171467
0.170865
0.170159
0.169303
0.168227
0.166809
0.164929
0.162119
0.158473
0.151971
0.140377
0.180956
0.180582
0.180272
0.179884
0.179473
0.179088
0.178733
0.178401
0.178086
0.17779
0.177515
0.17726
0.177025
0.176809
0.176612
0.176433
0.176269
0.176119
0.175978
0.175841
0.175696
0.175527
0.175305
0.17499
0.174496
0.173746
0.172365
0.170532
0.166111
0.159665
0.182008
0.181801
0.181646
0.181364
0.181053
0.180789
0.180568
0.180376
0.180207
0.180067
0.179959
0.179885
0.179844
0.179841
0.179878
0.179958
0.180084
0.18026
0.180489
0.180773
0.181112
0.181503
0.181936
0.18239
0.182814
0.183161
0.183145
0.182977
0.18064
0.178344
0.183392
0.183341
0.183346
0.183188
0.182998
0.182869
0.182795
0.182753
0.182741
0.182768
0.18284
0.182959
0.18313
0.183357
0.183648
0.184009
0.184447
0.184971
0.185591
0.186316
0.187156
0.188118
0.189207
0.19042
0.191731
0.193115
0.194365
0.195682
0.195281
0.196199
0.185133
0.18524
0.185405
0.185381
0.18532
0.185333
0.185412
0.185532
0.18569
0.185899
0.186167
0.186498
0.186899
0.187376
0.18794
0.1886
0.189368
0.190257
0.191282
0.192459
0.193805
0.195336
0.197067
0.199008
0.201152
0.203488
0.20587
0.208458
0.20975
0.213014
0.187264
0.187529
0.187859
0.187976
0.188054
0.188219
0.188464
0.188757
0.189099
0.189504
0.189981
0.190538
0.191182
0.191922
0.192772
0.193743
0.194851
0.196113
0.197548
0.199175
0.201018
0.203098
0.205438
0.208055
0.210952
0.214127
0.217475
0.221096
0.223792
0.2286
0.189808
0.190233
0.190728
0.190993
0.19122
0.191546
0.191964
0.192442
0.192977
0.193587
0.194284
0.195076
0.195972
0.196984
0.198126
0.199413
0.200863
0.202495
0.20433
0.206392
0.208706
0.211298
0.214191
0.217408
0.220955
0.22483
0.228952
0.233358
0.237143
0.242798
0.192775
0.193358
0.194016
0.194435
0.194817
0.195311
0.195909
0.196575
0.19731
0.198131
0.199052
0.200083
0.201233
0.202516
0.203948
0.205545
0.207326
0.209312
0.211524
0.213989
0.216731
0.219776
0.223148
0.226867
0.230937
0.23535
0.240033
0.244965
0.249487
0.255374
0.196149
0.196883
0.197695
0.198269
0.198812
0.199476
0.200254
0.201111
0.202045
0.203075
0.204218
0.205483
0.20688
0.208425
0.210133
0.212021
0.21411
0.216418
0.21897
0.221788
0.224897
0.22832
0.232077
0.236181
0.240631
0.245404
0.250425
0.255617
0.260478
0.266057
0.199875
0.200748
0.201699
0.202425
0.203128
0.203958
0.204911
0.205951
0.207077
0.208308
0.209661
0.211145
0.212772
0.214557
0.216516
0.218664
0.221023
0.22361
0.226446
0.229554
0.232954
0.236665
0.240699
0.245062
0.24974
0.254697
0.259843
0.265051
0.269897
0.274814
0.203847
0.204841
0.205908
0.206775
0.207633
0.20862
0.209735
0.210942
0.212243
0.213656
0.215197
0.216877
0.218706
0.220698
0.222869
0.225235
0.227813
0.230622
0.233678
0.237
0.240605
0.244503
0.248702
0.253194
0.257957
0.262934
0.268025
0.273061
0.277682
0.281914
0.207904
0.208994
0.210148
0.21114
0.212138
0.213265
0.214518
0.21587
0.217321
0.218888
0.220586
0.222426
0.224418
0.226575
0.228911
0.231441
0.234181
0.237144
0.240346
0.243801
0.247518
0.251504
0.255756
0.260258
0.264973
0.269833
0.274722
0.279445
0.283695
0.287192
0.211829
0.212984
0.214194
0.215286
0.216402
0.217643
0.219007
0.220472
0.222038
0.223723
0.225539
0.227497
0.229605
0.231876
0.234323
0.236957
0.239793
0.242841
0.246112
0.249617
0.253359
0.257337
0.26154
0.265943
0.270498
0.275122
0.279688
0.283976
0.287692
0.290298
0.215365
0.216554
0.217787
0.21895
0.220155
0.221478
0.222916
0.224455
0.226099
0.227859
0.229748
0.231775
0.233949
0.23628
0.238779
0.241456
0.244321
0.247384
0.250651
0.254127
0.257811
0.261695
0.265761
0.269973
0.274271
0.27856
0.282696
0.286436
0.289487
0.291266
0.21825
0.219445
0.220671
0.221871
0.223129
0.224495
0.225969
0.227542
0.229218
0.231009
0.232923
0.23497
0.237156
0.239492
0.241985
0.244645
0.247478
0.25049
0.253685
0.257063
0.260617
0.264333
0.268185
0.272128
0.276095
0.279974
0.283616
0.286759
0.289135
0.29007
0.220259
0.221434
0.222629
0.223831
0.225101
0.226472
0.227942
0.229507
0.231171
0.232946
0.234838
0.236855
0.239003
0.24129
0.243724
0.246309
0.249052
0.251955
0.255018
0.258237
0.261602
0.265093
0.268678
0.272303
0.275892
0.279324
0.282442
0.28496
0.286672
0.286401
0.221245
0.222376
0.223523
0.224693
0.225934
0.227268
0.228694
0.23021
0.231821
0.233536
0.235361
0.237303
0.239366
0.241559
0.243884
0.246348
0.248952
0.251698
0.254582
0.257597
0.260727
0.263949
0.267224
0.270492
0.273669
0.276622
0.27919
0.281031
0.282104
0.280418
0.221179
0.222248
0.223333
0.224439
0.225612
0.226871
0.228217
0.229647
0.231167
0.232782
0.2345
0.236325
0.238263
0.240317
0.242493
0.244792
0.247215
0.24976
0.252423
0.255191
0.258047
0.260959
0.263886
0.266759
0.269489
0.271929
0.273928
0.275068
0.275559
0.272557
0.220142
0.221133
0.222144
0.223159
0.224227
0.225378
0.226611
0.227923
0.229316
0.230797
0.232371
0.234043
0.235816
0.237694
0.239679
0.241773
0.243975
0.24628
0.24868
0.251161
0.253702
0.256268
0.25881
0.261257
0.263509
0.265407
0.26681
0.267193
0.267044
0.262476
0.218313
0.219207
0.22013
0.221028
0.221961
0.222973
0.224065
0.225229
0.226465
0.227779
0.229177
0.230663
0.232238
0.233906
0.235668
0.237522
0.239467
0.241496
0.243599
0.245758
0.247948
0.250131
0.252252
0.25423
0.255962
0.257263
0.258004
0.257515
0.256616
0.250096
0.21594
0.216717
0.217533
0.218293
0.219068
0.219917
0.220845
0.221837
0.222891
0.224012
0.225208
0.226481
0.227831
0.22926
0.230768
0.232352
0.234008
0.235728
0.237499
0.2393
0.241102
0.24286
0.244515
0.245975
0.247126
0.247753
0.247739
0.246221
0.244391
0.235881
0.213294
0.213931
0.214619
0.215222
0.215822
0.216491
0.217235
0.218035
0.218886
0.219794
0.220766
0.221803
0.222904
0.22407
0.225298
0.226586
0.227926
0.229308
0.230715
0.232124
0.2335
0.234792
0.235933
0.236819
0.237323
0.237193
0.236329
0.233659
0.230758
0.220074
0.210625
0.211098
0.211635
0.212069
0.212484
0.212962
0.213508
0.214102
0.214736
0.215417
0.216149
0.216933
0.217767
0.21865
0.21958
0.220549
0.22155
0.222569
0.223585
0.224571
0.225486
0.226272
0.226852
0.227108
0.226899
0.225928
0.224116
0.220167
0.216056
0.202767
0.208145
0.208431
0.208791
0.209043
0.209267
0.209544
0.209879
0.210252
0.210655
0.211095
0.211574
0.212092
0.212647
0.213236
0.213852
0.214489
0.215135
0.215773
0.216379
0.216919
0.217346
0.217593
0.217573
0.217147
0.216161
0.214268
0.211402
0.206016
0.200538
0.184086
0.206013
0.206089
0.206252
0.206326
0.206369
0.206449
0.206571
0.20672
0.206889
0.207083
0.207302
0.207546
0.207813
0.208096
0.20839
0.208685
0.208964
0.209208
0.209388
0.209463
0.209379
0.209059
0.2084
0.207246
0.20542
0.202516
0.198483
0.191474
0.184478
0.164228
0.204353
0.204156
0.204058
0.203935
0.203791
0.203664
0.203546
0.203443
0.203368
0.203314
0.203273
0.203241
0.203218
0.203199
0.203172
0.203125
0.20304
0.202892
0.202647
0.202256
0.201658
0.200762
0.199449
0.19754
0.194834
0.190856
0.185566
0.176763
0.168176
0.143425
0.203406
0.202899
0.202528
0.202221
0.201966
0.201716
0.201356
0.200973
0.200636
0.200322
0.200008
0.199691
0.199371
0.19904
0.198686
0.198294
0.197839
0.197294
0.196616
0.195751
0.194624
0.193131
0.191136
0.188431
0.184787
0.179649
0.172992
0.162145
0.152059
0.121877
0.202438
0.201421
0.200724
0.200295
0.199862
0.199303
0.198706
0.198142
0.197595
0.197041
0.196473
0.195892
0.195294
0.194669
0.194005
0.193284
0.19248
0.191562
0.190481
0.189175
0.187557
0.185509
0.182872
0.179409
0.174858
0.168575
0.160594
0.147373
0.136586
0.0996494
0.0776687
0.0549757
0.0308975
0.00683831
-0.0163421
-0.0383504
-0.0586962
-0.0770067
-0.0924261
-0.104564
-0.112884
-0.116518
-0.114996
-0.108105
-0.0950551
-0.0748925
-0.0483004
-0.0170782
0.0124189
0.0351217
0.0479762
0.0512052
0.0498228
0.049537
0.0507636
0.0518011
0.0527745
0.0543194
0.0553774
0.052058
0.122082
0.102562
0.0812888
0.0604683
0.0402073
0.0206044
0.00203594
-0.0152182
-0.0307631
-0.0441898
-0.0548281
-0.0613559
-0.0628022
-0.0598651
-0.0523534
-0.0392859
-0.0204461
0.00260735
0.0256785
0.0431957
0.0516292
0.0517359
0.0507006
0.0538678
0.0546552
0.0518072
0.0495402
0.0501199
0.0525586
0.0511788
0.132864
0.114785
0.0947896
0.0745672
0.0547261
0.0356761
0.0172561
-0.000238853
-0.0163762
-0.030258
-0.0410513
-0.0479634
-0.0504101
-0.0485071
-0.0420535
-0.030608
-0.0144396
0.00430495
0.0235069
0.037205
0.0435102
0.0458117
0.0479466
0.0510948
0.0517979
0.0498647
0.0495665
0.0514969
0.0549576
0.0607006
0.149554
0.133582
0.115411
0.0972033
0.0793563
0.061528
0.0435241
0.0260185
0.0098136
-0.00432891
-0.0157142
-0.0236687
-0.0276222
-0.0273562
-0.0227717
-0.0138983
-0.0013864
0.0130293
0.0269116
0.036847
0.042586
0.0460698
0.0481327
0.0489448
0.0487654
0.0483669
0.0502823
0.0548284
0.0626015
0.0786997
0.158996
0.144644
0.128051
0.111448
0.0948738
0.0778725
0.0605841
0.0436723
0.0278388
0.0137055
0.00192321
-0.00681581
-0.0118909
-0.0129542
-0.00994684
-0.00308861
0.00687782
0.0184176
0.0294186
0.0378011
0.0432146
0.04653
0.0486085
0.0500089
0.0512592
0.052471
0.0554767
0.0619396
0.0717436
0.0883199
0.166699
0.153874
0.138765
0.123486
0.108025
0.0919222
0.0753441
0.0589035
0.0432596
0.0290315
0.016884
0.00751735
0.00155016
-0.000646165
0.000974442
0.00611269
0.0139918
0.0232342
0.032121
0.0391763
0.0439785
0.0470337
0.0490516
0.0507776
0.0526391
0.0550817
0.0593188
0.065599
0.0725136
0.0823721
0.172346
0.160846
0.147086
0.133057
0.118733
0.103624
0.0878469
0.071976
0.0566541
0.0424962
0.0301574
0.0203271
0.0136192
0.0104226
0.0107982
0.01443
0.0205524
0.0279317
0.0351263
0.040976
0.0451085
0.0478944
0.0499351
0.0518124
0.0538196
0.0564044
0.0599631
0.0641334
0.0671703
0.0686674
0.176715
0.166357
0.153802
0.140889
0.127567
0.113344
0.0983037
0.0829899
0.0680208
0.0539906
0.0415349
0.0313314
0.0239934
0.0199261
0.0192107
0.021541
0.0261884
0.0320464
0.0378827
0.0427463
0.0463156
0.0488536
0.0508336
0.0526662
0.054581
0.0567322
0.0589441
0.0606008
0.0604954
0.0574917
0.180106
0.17073
0.15924
0.147331
0.134923
0.121524
0.107194
0.0924342
0.0778321
0.0639592
0.0514362
0.040933
0.0330642
0.0282475
0.0265839
0.0277905
0.0311868
0.0357764
0.0404878
0.0445159
0.0475729
0.0498335
0.0516404
0.0532673
0.0548276
0.0562492
0.0571694
0.0569183
0.0545978
0.0494945
0.182791
0.174262
0.163705
0.152691
0.141112
0.128476
0.114817
0.100597
0.0863688
0.0726797
0.0601354
0.0493971
0.0410796
0.0356115
0.0331157
0.0333405
0.0356597
0.0391726
0.0429331
0.0462393
0.0488203
0.0507751
0.0523335
0.0536543
0.0547364
0.0553806
0.0551782
0.0535405
0.0498792
0.043769
0.184958
0.177158
0.167415
0.157195
0.146366
0.134429
0.121395
0.107688
0.0938276
0.0803362
0.067802
0.0568766
0.0481743
0.0421347
0.0389039
0.0382655
0.0396485
0.0422356
0.0451799
0.0478537
0.0499918
0.0516288
0.0529003
0.0538701
0.0544533
0.0543953
0.0533201
0.0507835
0.0465112
0.040408
0.186742
0.179571
0.170537
0.16102
0.150867
0.139569
0.127112
0.113889
0.100384
0.0870956
0.0745924
0.0635161
0.0544807
0.047937
0.0440546
0.0426539
0.0432171
0.0449999
0.0472346
0.049348
0.0510739
0.0523925
0.0533623
0.0539739
0.0540927
0.0534603
0.0517821
0.048778
0.0444568
0.0389028
0.188245
0.181616
0.173198
0.164304
0.154758
0.144042
0.132117
0.119346
0.106181
0.0930945
0.0806358
0.0694363
0.0601096
0.0531178
0.0486541
0.0465755
0.0464148
0.0474917
0.049103
0.0507158
0.0520595
0.053069
0.0537417
0.0540166
0.0537389
0.0526799
0.0506466
0.0475102
0.0434938
0.0387089
0.18954
0.183381
0.175499
0.167155
0.158155
0.147968
0.136531
0.124179
0.111334
0.0984433
0.0860363
0.0747338
0.0651489
0.057755
0.0527688
0.0500833
0.0492788
0.0497314
0.0507908
0.0519546
0.0529465
0.0536646
0.0540597
0.0540388
0.0534488
0.0521088
0.0499274
0.0468951
0.0433806
0.0394429
0.190682
0.184933
0.177518
0.169659
0.16115
0.151442
0.140452
0.128485
0.115939
0.103234
0.090881
0.0794894
0.0696721
0.0619138
0.0564546
0.0532223
0.051842
0.0517391
0.0523075
0.0530682
0.0537393
0.0541899
0.0543376
0.0540725
0.0532578
0.0517666
0.0495966
0.046822
0.0439028
0.0408072
0.191714
0.186323
0.179315
0.171886
0.163816
0.154543
0.143959
0.132346
0.120077
0.107545
0.0952433
0.0837713
0.0737413
0.0656491
0.0597583
0.0560307
0.0541326
0.0535334
0.0536635
0.0540626
0.0544444
0.0546563
0.054593
0.0541395
0.053183
0.0516486
0.0496049
0.0471767
0.0448735
0.0425544
0.192667
0.187591
0.180939
0.17389
0.166214
0.157334
0.14712
0.135831
0.123814
0.11144
0.0991851
0.087637
0.0774086
0.0690071
0.0627196
0.0585406
0.0561748
0.0551307
0.0548692
0.054945
0.0550692
0.0550741
0.0548395
0.0542529
0.0532282
0.0517355
0.0498945
0.0478501
0.0461307
0.0444805
0.193564
0.188767
0.182428
0.175717
0.168394
0.159868
0.149991
0.138996
0.127208
0.114976
0.102759
0.0911356
0.0807186
0.072027
0.0653717
0.0607791
0.0579897
0.0565462
0.0559348
0.055723
0.0556216
0.0554528
0.0550876
0.0544201
0.0533898
0.0520017
0.0504074
0.0487462
0.0475454
0.046434
0.194423
0.189877
0.183814
0.177402
0.170396
0.162191
0.152619
0.141891
0.130307
0.1182
0.106011
0.0943089
0.0837089
0.0747419
0.0677431
0.0627696
0.0595955
0.0577935
0.05687
0.0564041
0.0561086
0.0558
0.0553424
0.0546404
0.0536552
0.0524148
0.0510842
0.0497747
0.0490085
0.0482704
0.195258
0.190939
0.18512
0.178975
0.172253
0.164337
0.155042
0.144555
0.133155
0.121153
0.108978
0.0971927
0.0864121
0.07718
0.0698577
0.0645321
0.0610084
0.0588856
0.0576847
0.0569962
0.056538
0.0561252
0.0556145
0.0549205
0.05402
0.0529522
0.0518783
0.0508636
0.0504296
0.0499178
0.196074
0.191965
0.186366
0.180461
0.173994
0.166339
0.157295
0.147025
0.135785
0.12387
0.111695
0.099818
0.0888559
0.0793655
0.0717357
0.0660828
0.0622407
0.0598309
0.0583848
0.0575046
0.0569107
0.0564207
0.0558849
0.055233
0.054449
0.05357
0.0527338
0.0519444
0.0517327
0.051297
0.196875
0.192966
0.187571
0.181882
0.17564
0.16822
0.159405
0.149331
0.138229
0.126381
0.11419
0.102211
0.0910642
0.0813195
0.0733969
0.0674402
0.0633114
0.0606473
0.0589831
0.0579439
0.0572569
0.0567372
0.0562127
0.055629
0.0549701
0.0542676
0.053626
0.0529699
0.0528504
0.0523392
0.19766
0.193945
0.188746
0.183255
0.177213
0.170003
0.161397
0.151499
0.140516
0.128714
0.116489
0.104395
0.0930536
0.0830514
0.0748447
0.0686009
0.0642106
0.0613245
0.0594663
0.0582757
0.057491
0.0569517
0.0564674
0.0560006
0.0554995
0.054982
0.0544971
0.0538762
0.05371
0.052978
0.198427
0.194903
0.189902
0.184594
0.178728
0.171707
0.163293
0.153552
0.142666
0.130892
0.118619
0.106401
0.0948635
0.0846041
0.076127
0.0696216
0.0650004
0.0619258
0.0599238
0.0586629
0.057851
0.0573206
0.0568855
0.056493
0.0561293
0.0557573
0.0553457
0.0546221
0.0542474
0.0531627
0.199177
0.195844
0.191045
0.18591
0.180198
0.173348
0.165112
0.155511
0.1447
0.132922
0.120562
0.108188
0.0964378
0.0859088
0.07715
0.0703878
0.0655515
0.0622825
0.0600852
0.0587106
0.0578872
0.0574021
0.05712
0.056887
0.0567068
0.0564965
0.056102
0.0551357
0.0543717
0.0528339
0.199896
0.196772
0.192187
0.187215
0.18163
0.174935
0.16687
0.157411
0.146686
0.134922
0.122483
0.109944
0.0979596
0.0872054
0.0781884
0.0712096
0.0662328
0.0628845
0.0606035
0.0591639
0.058383
0.0578395
0.057589
0.057467
0.0574105
0.0572812
0.0567622
0.0553686
0.0539806
0.0518701
0.200561
0.197673
0.193332
0.188524
0.183032
0.176455
0.168502
0.159111
0.148385
0.136561
0.12401
0.111263
0.098999
0.0879681
0.0786429
0.0714055
0.0662173
0.0627203
0.0603618
0.0588885
0.0582088
0.0578932
0.0578046
0.0578838
0.058036
0.0580254
0.0572426
0.0552222
0.0529148
0.0500796
0.201174
0.198522
0.194494
0.18988
0.184565
0.178188
0.170427
0.161179
0.150506
0.138651
0.126001
0.113079
0.100595
0.0893091
0.0797246
0.0723288
0.067057
0.0633556
0.0608789
0.0593526
0.0585926
0.0583127
0.0583266
0.0585442
0.0588436
0.0589431
0.0577392
0.0547048
0.0509464
0.0472878
0.201723
0.199294
0.195434
0.190862
0.185577
0.179214
0.17149
0.162246
0.151509
0.139508
0.12665
0.113494
0.100755
0.0892299
0.0794142
0.0719366
0.0667373
0.0629973
0.0605312
0.0591433
0.0584989
0.0583416
0.0585113
0.0589398
0.0594009
0.0594355
0.0577404
0.0534381
0.0479768
0.0432705
0.202354
0.200422
0.197132
0.192901
0.187835
0.181723
0.174255
0.165209
0.15455
0.142446
0.129337
0.115813
0.102619
0.0905963
0.0803819
0.0724723
0.0669443
0.0630787
0.0605924
0.0592673
0.0587413
0.058768
0.059183
0.0599508
0.0606755
0.0603024
0.057302
0.0512635
0.0450479
0.0413427
0.00439077
0.00824329
0.0140039
0.0167284
0.0251272
0.0440568
0.0629932
0.0800725
0.09459
0.106749
0.116765
0.12495
0.131677
0.137245
0.141868
0.145709
0.148897
0.151535
0.153699
0.155451
0.156846
0.157928
0.158758
0.159363
0.159852
0.160196
0.160665
0.160909
0.161642
0.160158
0.00241404
0.00538274
0.00931868
0.00930647
0.0141029
0.0314946
0.054009
0.0730812
0.0891201
0.102639
0.11374
0.122768
0.130165
0.136274
0.141339
0.145551
0.149064
0.151996
0.154434
0.156438
0.15806
0.159335
0.160306
0.160985
0.161441
0.161633
0.161732
0.161542
0.161542
0.16092
-0.00201009
-0.00130913
-0.000794168
-0.000453699
0.00230324
0.0157721
0.0393657
0.06231
0.0810664
0.0966324
0.109245
0.119425
0.127735
0.134599
0.140294
0.145028
0.148979
0.152295
0.15508
0.157408
0.159336
0.160898
0.162128
0.163041
0.163672
0.164013
0.164141
0.164021
0.163884
0.16361
-0.00875669
-0.0128824
-0.0158992
-0.0156104
-0.0125084
-0.000957032
0.0225584
0.0493323
0.0725617
0.0912571
0.105852
0.117322
0.126508
0.134048
0.140315
0.145523
0.149862
0.153499
0.15656
0.159139
0.161305
0.163106
0.164575
0.165735
0.16661
0.167207
0.167551
0.167634
0.167511
0.1672
-0.0163006
-0.026019
-0.032691
-0.0350873
-0.0313897
-0.0198573
0.00238962
0.0321278
0.0609148
0.0838434
0.101682
0.115249
0.125639
0.133915
0.140719
0.146353
0.151053
0.155002
0.158333
0.161152
0.163542
0.165562
0.167252
0.16864
0.169745
0.170576
0.171142
0.171443
0.171492
0.171325
-0.0207165
-0.0359618
-0.0480323
-0.0544687
-0.0523394
-0.0410436
-0.0202995
0.00992294
0.0436316
0.0727229
0.0948257
0.1117
0.124263
0.133795
0.14134
0.14743
0.152464
0.156699
0.160281
0.163332
0.165946
0.168188
0.170105
0.171729
0.173081
0.174171
0.175006
0.175585
0.175915
0.176018
-0.017631
-0.0381417
-0.0559835
-0.0676192
-0.0701078
-0.0613075
-0.0425947
-0.0137692
0.02179
0.0566666
0.0854181
0.106688
0.122162
0.133678
0.14239
0.149179
0.154618
0.159099
0.162846
0.166042
0.168805
0.171208
0.173307
0.175138
0.176727
0.178085
0.179216
0.180115
0.180786
0.181237
-0.0062421
-0.0304972
-0.0538563
-0.0713455
-0.0794656
-0.0754446
-0.0605787
-0.0347634
-1.77886e-05
0.0377166
0.0720095
0.0993182
0.119356
0.133604
0.143903
0.15177
0.157781
0.16252
0.166369
0.169606
0.172394
0.174837
0.177005
0.178944
0.180685
0.182245
0.183632
0.184839
0.18587
0.186732
0.0128242
-0.0131288
-0.0410472
-0.0647777
-0.0783312
-0.0799381
-0.069818
-0.0484406
-0.0169766
0.020316
0.0573942
0.0894292
0.114618
0.133273
0.146677
0.156055
0.162711
0.167625
0.171467
0.174576
0.177182
0.179448
0.18148
0.18334
0.18507
0.186692
0.188214
0.189632
0.190941
0.192151
0.034191
0.00993889
-0.0197222
-0.047157
-0.0661201
-0.0738934
-0.06945
-0.0527607
-0.0254282
0.00898392
0.0456935
0.0801937
0.109434
0.132373
0.149302
0.161214
0.169395
0.174997
0.178893
0.18174
0.183955
0.185778
0.187364
0.188824
0.190242
0.191671
0.193129
0.194614
0.196117
0.197624
0.0522564
0.0312456
0.00321775
-0.0244003
-0.0461986
-0.0584745
-0.0595168
-0.0486455
-0.0267851
0.00339225
0.0377748
0.072301
0.103641
0.130012
0.150717
0.166019
0.176748
0.183912
0.188477
0.191306
0.193123
0.194394
0.195333
0.196049
0.196691
0.1974
0.198261
0.199308
0.200546
0.202027
0.0583175
0.0440126
0.0202354
-0.00513207
-0.0270445
-0.0413576
-0.0464001
-0.0405594
-0.0242993
0.000371112
0.0307334
0.0632652
0.0947119
0.122866
0.146688
0.165793
0.180209
0.190491
0.197336
0.201491
0.203745
0.204814
0.205312
0.205567
0.205724
0.205832
0.205873
0.205871
0.205895
0.205966
0.0477777
0.0424132
0.0246195
0.00358783
-0.0166294
-0.0321871
-0.039625
-0.0375232
-0.0274909
-0.00872285
0.0173394
0.0470852
0.0776481
0.106695
0.132555
0.154368
0.171951
0.185635
0.195875
0.203212
0.208019
0.210839
0.212255
0.212756
0.212724
0.212508
0.212341
0.212306
0.212391
0.212665
0.0213949
0.0261991
0.0137117
-0.00275935
-0.0208528
-0.0366036
-0.0464392
-0.0478729
-0.0411671
-0.0281375
-0.00864601
0.0167872
0.0451498
0.0742136
0.101961
0.126941
0.14833
0.165834
0.179571
0.190036
0.197845
0.203462
0.207448
0.210027
0.211611
0.212561
0.213148
0.21359
0.213962
0.214603
-0.0156192
-0.00162933
-0.00966531
-0.0220096
-0.0378494
-0.0530013
-0.0648925
-0.071284
-0.071118
-0.0637081
-0.0493338
-0.029692
-0.00527743
0.0224964
0.0512218
0.0788655
0.104164
0.12626
0.14479
0.159825
0.171722
0.180964
0.187957
0.193435
0.197494
0.200477
0.202698
0.204389
0.205685
0.206796
-0.0558844
-0.034375
-0.0395867
-0.0488524
-0.0633306
-0.0786466
-0.0926612
-0.103312
-0.109154
-0.109074
-0.102943
-0.0905305
-0.0716473
-0.0479414
-0.0211533
0.00760047
0.0363948
0.0634877
0.0877839
0.108733
0.126265
0.140619
0.15219
0.161431
0.168893
0.174763
0.17939
0.183073
0.186069
0.188556
-0.0895302
-0.063816
-0.0689035