/*--------------------------------*- C++ -*----------------------------------*\
  =========                 |
  \\      /  F ield         | OpenFOAM: The Open Source CFD Toolbox
   \\    /   O peration     | Website:  https://openfoam.org
    \\  /    A nd           | Version:  11
     \\/     M anipulation  |
\*---------------------------------------------------------------------------*/
FoamFile
{
    format      ascii;
    class       volVectorField;
    location    "4.7";
    object      U;
}
// * * * * * * * * * * * * * * * * * * * * * * * * * * * * * * * * * * * * * //

dimensions      [0 1 -1 0 0 0 0];

internalField   nonuniform List<vector> 
12600
(
(0.399656 0.000104966 0)
(0.399398 0.000178488 0)
(0.399006 0.000185263 0)
(0.398564 0.000184938 0)
(0.398137 0.000186131 0)
(0.397732 0.000185297 0)
(0.397346 0.000181978 0)
(0.396981 0.000176706 0)
(0.396645 0.000169815 0)
(0.396347 0.000160359 0)
(0.396096 0.000147645 0)
(0.395903 0.000131487 0)
(0.395782 0.000113538 0)
(0.395748 8.97884e-05 0)
(0.395819 5.969e-05 0)
(0.39602 1.65056e-05 0)
(0.396383 -3.73047e-05 0)
(0.396944 -9.90024e-05 0)
(0.397748 -0.000172235 0)
(0.39885 -0.000261492 0)
(0.400329 -0.000380833 0)
(0.402271 -0.000530184 0)
(0.404765 -0.000701673 0)
(0.407936 -0.000905625 0)
(0.411971 -0.00115965 0)
(0.41709 -0.00147889 0)
(0.423557 -0.00188768 0)
(0.431618 -0.00233193 0)
(0.441664 -0.00313621 0)
(0.455791 -0.00284617 0)
(0.400034 0.000149894 0)
(0.400181 0.000265877 0)
(0.400346 0.000243321 0)
(0.400428 0.000229132 0)
(0.40051 0.000221705 0)
(0.40061 0.00021129 0)
(0.400729 0.000195574 0)
(0.400867 0.000174144 0)
(0.40103 0.000146066 0)
(0.401227 0.000114108 0)
(0.401466 7.52957e-05 0)
(0.401757 2.7076e-05 0)
(0.40211 -3.21502e-05 0)
(0.402539 -0.000105133 0)
(0.40306 -0.000193495 0)
(0.40369 -0.000299411 0)
(0.404452 -0.000427293 0)
(0.405377 -0.000583823 0)
(0.406462 -0.000778292 0)
(0.407818 -0.00102156 0)
(0.409449 -0.00132 0)
(0.411332 -0.00168605 0)
(0.413791 -0.00214703 0)
(0.416878 -0.00272971 0)
(0.420723 -0.00345568 0)
(0.425505 -0.00435015 0)
(0.431429 -0.00545351 0)
(0.438781 -0.00675241 0)
(0.447874 -0.00859772 0)
(0.459137 -0.00945089 0)
(0.400022 7.6577e-05 0)
(0.400105 0.000131799 0)
(0.400214 0.000121833 0)
(0.400306 0.000113208 0)
(0.40039 0.000107871 0)
(0.400485 9.46269e-05 0)
(0.400594 7.31651e-05 0)
(0.400721 4.37416e-05 0)
(0.40087 3.90034e-06 0)
(0.40105 -4.74226e-05 0)
(0.401268 -0.000111189 0)
(0.401536 -0.00018813 0)
(0.401863 -0.000280986 0)
(0.402264 -0.000393131 0)
(0.402755 -0.000528601 0)
(0.403354 -0.000693491 0)
(0.404085 -0.000895765 0)
(0.404977 -0.00113977 0)
(0.406068 -0.00144069 0)
(0.4074 -0.00181598 0)
(0.409034 -0.00226199 0)
(0.411053 -0.00281692 0)
(0.413531 -0.00354502 0)
(0.416558 -0.00447084 0)
(0.420275 -0.00561253 0)
(0.424883 -0.00701176 0)
(0.430571 -0.00874231 0)
(0.437738 -0.0108278 0)
(0.446351 -0.0136271 0)
(0.458192 -0.015839 0)
(0.400014 4.52334e-05 0)
(0.400073 0.000102938 0)
(0.400164 0.000116921 0)
(0.400251 0.000109436 0)
(0.400333 9.88213e-05 0)
(0.400422 8.17065e-05 0)
(0.400527 5.41723e-05 0)
(0.40065 1.39862e-05 0)
(0.400795 -3.81685e-05 0)
(0.400969 -0.000104791 0)
(0.401181 -0.000187859 0)
(0.40144 -0.000290511 0)
(0.401757 -0.000416308 0)
(0.402144 -0.000569871 0)
(0.402618 -0.000757017 0)
(0.403197 -0.000984839 0)
(0.403902 -0.0012619 0)
(0.404763 -0.00159815 0)
(0.405816 -0.00201092 0)
(0.4071 -0.00252058 0)
(0.408671 -0.003147 0)
(0.410602 -0.00393262 0)
(0.412976 -0.00492604 0)
(0.415886 -0.00616158 0)
(0.419461 -0.00768856 0)
(0.423889 -0.00957971 0)
(0.429348 -0.0119414 0)
(0.436255 -0.0148142 0)
(0.444523 -0.0186097 0)
(0.456092 -0.0221263 0)
(0.40001 2.65763e-05 0)
(0.400052 6.54963e-05 0)
(0.400126 7.13637e-05 0)
(0.400205 5.81377e-05 0)
(0.400283 3.91112e-05 0)
(0.400368 1.31746e-05 0)
(0.400469 -2.56059e-05 0)
(0.400587 -7.78651e-05 0)
(0.400727 -0.000145378 0)
(0.400895 -0.000230097 0)
(0.401099 -0.000335524 0)
(0.401347 -0.000465786 0)
(0.40165 -0.000625018 0)
(0.402021 -0.000818524 0)
(0.402474 -0.00105323 0)
(0.403026 -0.00133791 0)
(0.4037 -0.00168397 0)
(0.40452 -0.0021056 0)
(0.405521 -0.00262281 0)
(0.406741 -0.00326146 0)
(0.408233 -0.00404959 0)
(0.410063 -0.00502777 0)
(0.412309 -0.00625149 0)
(0.415063 -0.00778032 0)
(0.418443 -0.00968455 0)
(0.422632 -0.0120521 0)
(0.427792 -0.01501 0)
(0.434346 -0.0186385 0)
(0.442152 -0.0233557 0)
(0.453284 -0.0282148 0)
(0.400007 1.33665e-05 0)
(0.400039 3.48412e-05 0)
(0.4001 3.71449e-05 0)
(0.400173 2.34597e-05 0)
(0.400248 1.97667e-06 0)
(0.40033 -2.69279e-05 0)
(0.400425 -6.92139e-05 0)
(0.400538 -0.000128564 0)
(0.400671 -0.000206924 0)
(0.40083 -0.000306377 0)
(0.401023 -0.000430658 0)
(0.401259 -0.000584356 0)
(0.401546 -0.000772664 0)
(0.401896 -0.00100213 0)
(0.402323 -0.00128108 0)
(0.402843 -0.00162003 0)
(0.403476 -0.00203242 0)
(0.404246 -0.00253538 0)
(0.405184 -0.00315182 0)
(0.406328 -0.00391136 0)
(0.407722 -0.00484908 0)
(0.40943 -0.00601264 0)
(0.411521 -0.00746555 0)
(0.414083 -0.00927915 0)
(0.417228 -0.0115379 0)
(0.421124 -0.0143493 0)
(0.425914 -0.0178665 0)
(0.432021 -0.0222139 0)
(0.439256 -0.0278105 0)
(0.449785 -0.0339709 0)
(0.400006 3.39326e-06 0)
(0.400031 1.03912e-05 0)
(0.400082 6.64281e-06 0)
(0.400148 -1.0249e-05 0)
(0.400218 -3.67169e-05 0)
(0.400295 -7.35507e-05 0)
(0.400384 -0.000124573 0)
(0.40049 -0.00019444 0)
(0.400616 -0.000285831 0)
(0.400766 -0.000401455 0)
(0.400947 -0.000545441 0)
(0.401167 -0.000723072 0)
(0.401434 -0.000940531 0)
(0.40176 -0.0012053 0)
(0.402157 -0.00152675 0)
(0.40264 -0.00191681 0)
(0.403226 -0.00239086 0)
(0.403938 -0.00296869 0)
(0.404804 -0.00367628 0)
(0.405857 -0.00454714 0)
(0.407139 -0.00562255 0)
(0.408704 -0.00695588 0)
(0.410617 -0.00861593 0)
(0.412958 -0.0106848 0)
(0.415827 -0.0132638 0)
(0.419377 -0.0164806 0)
(0.423733 -0.0205109 0)
(0.429303 -0.0255224 0)
(0.43586 -0.0319303 0)
(0.44562 -0.03933 0)
(0.400005 -4.22502e-06 0)
(0.400026 -9.86111e-06 0)
(0.400069 -2.08322e-05 0)
(0.400127 -4.18122e-05 0)
(0.400192 -7.27662e-05 0)
(0.400265 -0.000115111 0)
(0.400348 -0.000172697 0)
(0.400447 -0.000250312 0)
(0.400563 -0.000351626 0)
(0.400703 -0.000480152 0)
(0.40087 -0.000640454 0)
(0.401073 -0.000838384 0)
(0.401319 -0.00108092 0)
(0.401617 -0.00137644 0)
(0.40198 -0.00173536 0)
(0.40242 -0.00217093 0)
(0.402953 -0.00270026 0)
(0.4036 -0.00334544 0)
(0.404384 -0.00413521 0)
(0.405335 -0.00510643 0)
(0.40649 -0.00630521 0)
(0.407896 -0.00779008 0)
(0.409609 -0.00963595 0)
(0.411701 -0.0119351 0)
(0.414257 -0.0148025 0)
(0.417414 -0.0183833 0)
(0.421274 -0.0228739 0)
(0.426222 -0.0284846 0)
(0.432001 -0.0356276 0)
(0.440815 -0.0441882 0)
(0.400004 -1.02284e-05 0)
(0.400022 -2.67895e-05 0)
(0.400059 -4.51152e-05 0)
(0.400111 -7.0669e-05 0)
(0.40017 -0.000105933 0)
(0.400237 -0.000153444 0)
(0.400314 -0.000217437 0)
(0.400405 -0.000302921 0)
(0.400512 -0.000414238 0)
(0.400639 -0.000555492 0)
(0.400791 -0.000731638 0)
(0.400974 -0.000948962 0)
(0.401196 -0.00121507 0)
(0.401465 -0.00153911 0)
(0.40179 -0.00193242 0)
(0.402183 -0.0024094 0)
(0.402658 -0.00298862 0)
(0.403232 -0.00369409 0)
(0.403926 -0.00455691 0)
(0.404766 -0.00561683 0)
(0.405781 -0.00692387 0)
(0.407013 -0.00854118 0)
(0.408507 -0.0105491 0)
(0.410325 -0.0130477 0)
(0.412537 -0.0161636 0)
(0.415259 -0.020057 0)
(0.418569 -0.0249435 0)
(0.422817 -0.0310732 0)
(0.427724 -0.0388557 0)
(0.435413 -0.0484681 0)
(0.400003 -1.54759e-05 0)
(0.400019 -4.12641e-05 0)
(0.400051 -6.6469e-05 0)
(0.400097 -9.68088e-05 0)
(0.400151 -0.000136282 0)
(0.400212 -0.000188573 0)
(0.400282 -0.000258393 0)
(0.400364 -0.00035094 0)
(0.40046 -0.00047096 0)
(0.400574 -0.000623044 0)
(0.40071 -0.000812572 0)
(0.400873 -0.00104627 0)
(0.401069 -0.00133234 0)
(0.401305 -0.00168062 0)
(0.401589 -0.00210323 0)
(0.401931 -0.00261554 0)
(0.402344 -0.0032373 0)
(0.40284 -0.00399413 0)
(0.403437 -0.00491904 0)
(0.404156 -0.00605415 0)
(0.405022 -0.00745256 0)
(0.406066 -0.0091811 0)
(0.407326 -0.0113244 0)
(0.40885 -0.0139889 0)
(0.410691 -0.0173102 0)
(0.412943 -0.0214612 0)
(0.415657 -0.0266729 0)
(0.419136 -0.0332312 0)
(0.423086 -0.0415425 0)
(0.429474 -0.0520657 0)
(0.400003 -1.99428e-05 0)
(0.400016 -5.3786e-05 0)
(0.400044 -8.53405e-05 0)
(0.400084 -0.000120298 0)
(0.400133 -0.000163721 0)
(0.400188 -0.000220328 0)
(0.400251 -0.000295274 0)
(0.400324 -0.000393939 0)
(0.400409 -0.000521427 0)
(0.400509 -0.000682794 0)
(0.400628 -0.000883827 0)
(0.400768 -0.00113162 0)
(0.400937 -0.00143481 0)
(0.401138 -0.00180377 0)
(0.401379 -0.00225126 0)
(0.401667 -0.00279337 0)
(0.402013 -0.00345084 0)
(0.402426 -0.00425047 0)
(0.402921 -0.00522673 0)
(0.403512 -0.00642354 0)
(0.40422 -0.00789616 0)
(0.405067 -0.00971407 0)
(0.406081 -0.011965 0)
(0.407295 -0.0147597 0)
(0.408745 -0.0182401 0)
(0.410499 -0.0225881 0)
(0.412581 -0.0280465 0)
(0.415233 -0.03493 0)
(0.418158 -0.0436403 0)
(0.42308 -0.0548965 0)
(0.400003 -2.3762e-05 0)
(0.400014 -6.45519e-05 0)
(0.400038 -0.000101799 0)
(0.400073 -0.000141146 0)
(0.400116 -0.000188278 0)
(0.400165 -0.000248669 0)
(0.40022 -0.000327952 0)
(0.400284 -0.000431765 0)
(0.400358 -0.000565475 0)
(0.400444 -0.000734459 0)
(0.400544 -0.000944815 0)
(0.400662 -0.00120395 0)
(0.400801 -0.00152083 0)
(0.400966 -0.00190626 0)
(0.401161 -0.00237348 0)
(0.401393 -0.00293913 0)
(0.401669 -0.00362462 0)
(0.401996 -0.00445757 0)
(0.402383 -0.00547347 0)
(0.402843 -0.00671736 0)
(0.403386 -0.00824586 0)
(0.404029 -0.01013 0)
(0.404787 -0.0124592 0)
(0.40568 -0.0153465 0)
(0.406726 -0.0189371 0)
(0.407963 -0.0234182 0)
(0.409388 -0.0290389 0)
(0.411172 -0.0361347 0)
(0.41302 -0.045099 0)
(0.416338 -0.0568745 0)
(0.400002 -2.70203e-05 0)
(0.400012 -7.38268e-05 0)
(0.400033 -0.000116142 0)
(0.400063 -0.000159471 0)
(0.400101 -0.000209894 0)
(0.400143 -0.000273505 0)
(0.400191 -0.000356349 0)
(0.400246 -0.00046426 0)
(0.400308 -0.000602793 0)
(0.400379 -0.00077758 0)
(0.40046 -0.000994987 0)
(0.400554 -0.00126265 0)
(0.400663 -0.0015898 0)
(0.40079 -0.0019875 0)
(0.400938 -0.0024693 0)
(0.401112 -0.0030522 0)
(0.401315 -0.00375799 0)
(0.401553 -0.00461479 0)
(0.401831 -0.00565856 0)
(0.402154 -0.00693487 0)
(0.40253 -0.00850084 0)
(0.402963 -0.0104279 0)
(0.403461 -0.0128056 0)
(0.404027 -0.0157472 0)
(0.404662 -0.0193982 0)
(0.405374 -0.0239462 0)
(0.40613 -0.0296411 0)
(0.407022 -0.036829 0)
(0.407766 -0.0458887 0)
(0.409378 -0.0579363 0)
(0.400002 -2.97929e-05 0)
(0.40001 -8.17771e-05 0)
(0.400028 -0.000128519 0)
(0.400054 -0.000175371 0)
(0.400086 -0.00022865 0)
(0.400123 -0.000294869 0)
(0.400164 -0.000380405 0)
(0.400209 -0.000491279 0)
(0.400259 -0.000633192 0)
(0.400314 -0.000811946 0)
(0.400376 -0.00103408 0)
(0.400445 -0.00130739 0)
(0.400523 -0.00164124 0)
(0.400612 -0.00204685 0)
(0.400712 -0.00253792 0)
(0.400826 -0.00313159 0)
(0.400956 -0.00384977 0)
(0.401103 -0.00472069 0)
(0.40127 -0.00578034 0)
(0.401455 -0.00707418 0)
(0.401661 -0.00865897 0)
(0.401884 -0.0106054 0)
(0.40212 -0.0130017 0)
(0.40236 -0.0159592 0)
(0.402583 -0.0196202 0)
(0.40277 -0.0241686 0)
(0.402861 -0.0298481 0)
(0.402859 -0.0370037 0)
(0.402496 -0.0459917 0)
(0.402352 -0.0580388 0)
(0.400002 -3.21354e-05 0)
(0.400008 -8.85495e-05 0)
(0.400024 -0.000139119 0)
(0.400046 -0.000188996 0)
(0.400073 -0.000244602 0)
(0.400104 -0.000312753 0)
(0.400137 -0.000400093 0)
(0.400172 -0.000512779 0)
(0.40021 -0.000656585 0)
(0.40025 -0.000837406 0)
(0.400293 -0.00106189 0)
(0.400337 -0.0013379 0)
(0.400384 -0.00167484 0)
(0.400433 -0.00208396 0)
(0.400485 -0.00257894 0)
(0.40054 -0.00317686 0)
(0.400595 -0.0038995 0)
(0.400652 -0.00477484 0)
(0.400706 -0.00583845 0)
(0.400754 -0.00713506 0)
(0.40079 -0.00872029 0)
(0.400805 -0.010663 0)
(0.400782 -0.0130487 0)
(0.400699 -0.0159844 0)
(0.400519 -0.0196065 0)
(0.400193 -0.0240901 0)
(0.399633 -0.029666 0)
(0.398759 -0.0366655 0)
(0.397319 -0.0454128 0)
(0.39543 -0.0571721 0)
(0.400001 -3.40994e-05 0)
(0.400007 -9.42833e-05 0)
(0.40002 -0.000148111 0)
(0.400039 -0.000200483 0)
(0.400061 -0.000257844 0)
(0.400086 -0.000327225 0)
(0.400112 -0.000415458 0)
(0.400138 -0.000528768 0)
(0.400164 -0.000672944 0)
(0.400188 -0.000853912 0)
(0.400211 -0.00107834 0)
(0.400231 -0.0013541 0)
(0.400246 -0.00169051 0)
(0.400257 -0.00209873 0)
(0.40026 -0.00259226 0)
(0.400255 -0.00318793 0)
(0.400237 -0.00390716 0)
(0.400202 -0.00477733 0)
(0.400146 -0.00583316 0)
(0.400058 -0.00711811 0)
(0.399928 -0.00868588 0)
(0.399738 -0.0106025 0)
(0.399463 -0.0129494 0)
(0.399067 -0.0158274 0)
(0.398498 -0.0193638 0)
(0.39768 -0.023721 0)
(0.396501 -0.0291095 0)
(0.394799 -0.0358346 0)
(0.392341 -0.0441776 0)
(0.388788 -0.0553628 0)
(0.400001 -3.57374e-05 0)
(0.400006 -9.91195e-05 0)
(0.400017 -0.000155677 0)
(0.400032 -0.000209998 0)
(0.400051 -0.000268505 0)
(0.40007 -0.000338381 0)
(0.400088 -0.000426575 0)
(0.400105 -0.000539311 0)
(0.400119 -0.000682328 0)
(0.400128 -0.000861517 0)
(0.400132 -0.0010835 0)
(0.400127 -0.00135605 0)
(0.400112 -0.00168834 0)
(0.400084 -0.00209128 0)
(0.400039 -0.00257808 0)
(0.399975 -0.00316513 0)
(0.399884 -0.00387323 0)
(0.399761 -0.00472887 0)
(0.399596 -0.00576554 0)
(0.399376 -0.00702489 0)
(0.399083 -0.00855806 0)
(0.398695 -0.0104274 0)
(0.398177 -0.0127089 0)
(0.397483 -0.0154957 0)
(0.396546 -0.0189035 0)
(0.395267 -0.0230776 0)
(0.393513 -0.0282026 0)
(0.391051 -0.0345458 0)
(0.387665 -0.0423353 0)
(0.382602 -0.0526788 0)
(0.400001 -3.71084e-05 0)
(0.400005 -0.000103216 0)
(0.400014 -0.000162021 0)
(0.400027 -0.000217734 0)
(0.400042 -0.000276738 0)
(0.400055 -0.000346352 0)
(0.400067 -0.000433573 0)
(0.400075 -0.000544537 0)
(0.400077 -0.000684867 0)
(0.400072 -0.000860368 0)
(0.400056 -0.00107755 0)
(0.400027 -0.001344 0)
(0.399982 -0.00166863 0)
(0.399916 -0.00206201 0)
(0.399825 -0.00253691 0)
(0.399703 -0.00310913 0)
(0.399542 -0.00379862 0)
(0.399332 -0.00463072 0)
(0.399062 -0.00563732 0)
(0.398714 -0.00685783 0)
(0.398266 -0.00834026 0)
(0.397689 -0.0101425 0)
(0.396941 -0.0123343 0)
(0.395966 -0.0149995 0)
(0.394687 -0.0182402 0)
(0.392985 -0.0221817 0)
(0.390712 -0.0269776 0)
(0.387578 -0.0328471 0)
(0.383382 -0.0399569 0)
(0.377031 -0.0492285 0)
(0.400001 -3.82835e-05 0)
(0.400004 -0.000106764 0)
(0.400012 -0.000167381 0)
(0.400023 -0.000223904 0)
(0.400034 -0.000282721 0)
(0.400043 -0.000351302 0)
(0.400048 -0.000436619 0)
(0.400047 -0.000544628 0)
(0.400039 -0.00068077 0)
(0.400019 -0.000850706 0)
(0.399985 -0.00106078 0)
(0.399932 -0.0013183 0)
(0.399858 -0.00163184 0)
(0.399755 -0.00201152 0)
(0.399619 -0.00246954 0)
(0.399441 -0.00302094 0)
(0.399212 -0.00368465 0)
(0.39892 -0.00448464 0)
(0.398549 -0.00545086 0)
(0.398079 -0.00662013 0)
(0.397484 -0.00803686 0)
(0.396729 -0.00975396 0)
(0.395766 -0.0118341 0)
(0.394533 -0.014351 0)
(0.392941 -0.0173917 0)
(0.390862 -0.0210594 0)
(0.388135 -0.0254735 0)
(0.384431 -0.0307977 0)
(0.379566 -0.037132 0)
(0.372203 -0.0451568 0)
(0.400001 -3.93543e-05 0)
(0.400004 -0.000110001 0)
(0.400011 -0.00017204 0)
(0.400021 -0.000228749 0)
(0.400029 -0.000286658 0)
(0.400033 -0.000353437 0)
(0.400032 -0.000435931 0)
(0.400023 -0.000539809 0)
(0.400004 -0.000670287 0)
(0.39997 -0.000832861 0)
(0.399919 -0.00103361 0)
(0.399844 -0.0012795 0)
(0.399742 -0.00157864 0)
(0.399604 -0.00194063 0)
(0.399425 -0.00237701 0)
(0.399194 -0.00290191 0)
(0.398901 -0.00353309 0)
(0.39853 -0.00429288 0)
(0.398063 -0.0052091 0)
(0.397479 -0.00631565 0)
(0.396746 -0.00765304 0)
(0.395825 -0.00926879 0)
(0.394665 -0.011218 0)
(0.393197 -0.0135639 0)
(0.391327 -0.0163778 0)
(0.388919 -0.0197399 0)
(0.385808 -0.0237339 0)
(0.381648 -0.0284648 0)
(0.376268 -0.0339641 0)
(0.368207 -0.0406363 0)
(0.400001 -4.04441e-05 0)
(0.400004 -0.000113239 0)
(0.400012 -0.000176336 0)
(0.40002 -0.000232533 0)
(0.400026 -0.000288766 0)
(0.400027 -0.000352983 0)
(0.40002 -0.000431783 0)
(0.400003 -0.000530408 0)
(0.399974 -0.000653775 0)
(0.399927 -0.000807196 0)
(0.399859 -0.000996478 0)
(0.399763 -0.00122816 0)
(0.399634 -0.00150983 0)
(0.399465 -0.00185042 0)
(0.399245 -0.0022607 0)
(0.398964 -0.00275381 0)
(0.39861 -0.00334615 0)
(0.398165 -0.00405832 0)
(0.39761 -0.00491575 0)
(0.396918 -0.00594924 0)
(0.396058 -0.00719511 0)
(0.394986 -0.00869533 0)
(0.393647 -0.0104974 0)
(0.391969 -0.0126537 0)
(0.389856 -0.0152202 0)
(0.38717 -0.0182543 0)
(0.383748 -0.0218053 0)
(0.379247 -0.0259195 0)
(0.373514 -0.0305638 0)
(0.365083 -0.0358553 0)
(0.400001 -4.17284e-05 0)
(0.400005 -0.000116902 0)
(0.400014 -0.000180679 0)
(0.400023 -0.000235526 0)
(0.400027 -0.00028925 0)
(0.400023 -0.000350205 0)
(0.400011 -0.000424459 0)
(0.399988 -0.000516702 0)
(0.399949 -0.000631652 0)
(0.399891 -0.000774341 0)
(0.399807 -0.000950155 0)
(0.399692 -0.00116514 0)
(0.399539 -0.00142627 0)
(0.399338 -0.00174182 0)
(0.39908 -0.00212168 0)
(0.398753 -0.00257789 0)
(0.398342 -0.00312542 0)
(0.39783 -0.00378295 0)
(0.397193 -0.00457347 0)
(0.396404 -0.00552447 0)
(0.395427 -0.00666804 0)
(0.394219 -0.00804055 0)
(0.39272 -0.00968197 0)
(0.390859 -0.0116345 0)
(0.388538 -0.0139394 0)
(0.385625 -0.0166329 0)
(0.381962 -0.0197329 0)
(0.377233 -0.0232318 0)
(0.371301 -0.0270405 0)
(0.362815 -0.0310026 0)
(0.400001 -4.34721e-05 0)
(0.400007 -0.000121568 0)
(0.400018 -0.000185546 0)
(0.400028 -0.00023804 0)
(0.400031 -0.000288426 0)
(0.400025 -0.000345369 0)
(0.400008 -0.000414143 0)
(0.399978 -0.000498915 0)
(0.399932 -0.000604269 0)
(0.399862 -0.000734888 0)
(0.399764 -0.000895642 0)
(0.399631 -0.00109198 0)
(0.399455 -0.00133017 0)
(0.399227 -0.00161775 0)
(0.398934 -0.00196371 0)
(0.398565 -0.00237889 0)
(0.398103 -0.00287667 0)
(0.397528 -0.0034737 0)
(0.396817 -0.00419037 0)
(0.39594 -0.00505084 0)
(0.39486 -0.00608291 0)
(0.39353 -0.00731748 0)
(0.391892 -0.00878737 0)
(0.389872 -0.0105253 0)
(0.387379 -0.0125596 0)
(0.384285 -0.014908 0)
(0.380448 -0.0175619 0)
(0.375591 -0.0204684 0)
(0.3696 -0.0234958 0)
(0.361335 -0.0262536 0)
(0.400002 -4.61073e-05 0)
(0.400011 -0.000128039 0)
(0.400026 -0.000191383 0)
(0.400039 -0.000240341 0)
(0.400041 -0.000286784 0)
(0.400031 -0.000339123 0)
(0.400011 -0.000401445 0)
(0.399976 -0.000477418 0)
(0.399921 -0.000571433 0)
(0.399842 -0.00068785 0)
(0.399731 -0.00083109 0)
(0.399582 -0.00100605 0)
(0.399386 -0.0012182 0)
(0.399132 -0.00147419 0)
(0.398809 -0.00178211 0)
(0.398401 -0.00215156 0)
(0.397893 -0.00259432 0)
(0.397263 -0.003125 0)
(0.396486 -0.00376128 0)
(0.395531 -0.004524 0)
(0.39436 -0.00543678 0)
(0.392924 -0.00652532 0)
(0.391166 -0.00781588 0)
(0.389013 -0.00933279 0)
(0.386379 -0.0110934 0)
(0.383148 -0.0131004 0)
(0.379195 -0.0153254 0)
(0.374293 -0.0176817 0)
(0.368356 -0.0200126 0)
(0.360528 -0.0217532 0)
(0.400003 -5.04011e-05 0)
(0.400017 -0.000137546 0)
(0.400039 -0.000198465 0)
(0.400055 -0.000242092 0)
(0.400057 -0.000284148 0)
(0.400045 -0.000332089 0)
(0.400021 -0.00038833 0)
(0.399982 -0.000455966 0)
(0.399921 -0.000539101 0)
(0.399833 -0.000641549 0)
(0.399711 -0.000767102 0)
(0.399548 -0.00092002 0)
(0.399334 -0.00110504 0)
(0.399058 -0.00132807 0)
(0.398707 -0.00159599 0)
(0.398267 -0.00191695 0)
(0.397718 -0.00230111 0)
(0.39704 -0.00276102 0)
(0.396206 -0.00331171 0)
(0.395183 -0.00397064 0)
(0.393933 -0.00475738 0)
(0.392407 -0.00569276 0)
(0.390548 -0.00679719 0)
(0.388286 -0.00808792 0)
(0.38554 -0.00957373 0)
(0.382209 -0.0112462 0)
(0.378185 -0.0130644 0)
(0.373301 -0.0149213 0)
(0.367497 -0.0166569 0)
(0.360242 -0.0176081 0)
(0.400006 -5.7694e-05 0)
(0.400028 -0.000152267 0)
(0.400061 -0.000208184 0)
(0.400081 -0.000243325 0)
(0.400081 -0.000277738 0)
(0.400067 -0.000317451 0)
(0.400041 -0.000363745 0)
(0.399998 -0.000419528 0)
(0.399931 -0.00048851 0)
(0.399836 -0.000573807 0)
(0.399705 -0.000678737 0)
(0.399529 -0.000806584 0)
(0.3993 -0.000960763 0)
(0.399005 -0.00114692 0)
(0.398632 -0.00137117 0)
(0.398163 -0.00164006 0)
(0.39758 -0.00196187 0)
(0.396861 -0.00234695 0)
(0.395979 -0.00280767 0)
(0.394899 -0.00335826 0)
(0.393583 -0.00401445 0)
(0.391983 -0.00479259 0)
(0.390042 -0.00570801 0)
(0.387693 -0.00677226 0)
(0.384863 -0.00798819 0)
(0.381464 -0.00934034 0)
(0.377408 -0.0107826 0)
(0.372585 -0.0121986 0)
(0.366961 -0.0134519 0)
(0.360343 -0.0138657 0)
(0.40001 -6.97546e-05 0)
(0.400048 -0.000173098 0)
(0.400096 -0.000225284 0)
(0.400121 -0.000258187 0)
(0.40012 -0.000291132 0)
(0.400105 -0.000326671 0)
(0.400077 -0.000365901 0)
(0.400031 -0.000412127 0)
(0.39996 -0.000468695 0)
(0.399859 -0.000537655 0)
(0.399719 -0.000622163 0)
(0.399535 -0.000725666 0)
(0.399294 -0.000849605 0)
(0.398983 -0.000998163 0)
(0.39859 -0.00117658 0)
(0.398099 -0.00139052 0)
(0.397489 -0.00164667 0)
(0.396737 -0.00195317 0)
(0.395817 -0.00231963 0)
(0.394693 -0.0027571 0)
(0.393326 -0.00327763 0)
(0.391669 -0.00389353 0)
(0.389668 -0.00461587 0)
(0.387258 -0.0054519 0)
(0.384374 -0.00640095 0)
(0.380944 -0.00744441 0)
(0.376901 -0.00853856 0)
(0.372185 -0.0095669 0)
(0.366793 -0.0104424 0)
(0.360831 -0.0105645 0)
(0.400017 -9.45071e-05 0)
(0.400079 -0.000182156 0)
(0.400144 -0.000206338 0)
(0.400172 -0.000225967 0)
(0.400171 -0.000251407 0)
(0.400155 -0.000278483 0)
(0.400127 -0.000307801 0)
(0.400079 -0.000342478 0)
(0.400005 -0.000384748 0)
(0.3999 -0.000436526 0)
(0.399754 -0.000499055 0)
(0.399562 -0.000574154 0)
(0.399312 -0.000665722 0)
(0.39899 -0.000776369 0)
(0.398583 -0.000908842 0)
(0.398074 -0.00106726 0)
(0.397443 -0.00125679 0)
(0.396667 -0.00148343 0)
(0.395718 -0.0017542 0)
(0.394562 -0.00207705 0)
(0.39316 -0.00246054 0)
(0.391466 -0.00291332 0)
(0.389429 -0.00344297 0)
(0.38699 -0.00405419 0)
(0.384092 -0.0047456 0)
(0.380678 -0.00550005 0)
(0.376711 -0.00628167 0)
(0.372154 -0.00697956 0)
(0.367071 -0.0075718 0)
(0.361537 -0.00748174 0)
(0.400027 -0.000161157 0)
(0.400174 -0.000306108 0)
(0.400261 -0.000295078 0)
(0.400265 -0.000298544 0)
(0.40025 -0.000313069 0)
(0.400224 -0.000329265 0)
(0.40018 -0.000346737 0)
(0.400111 -0.00036779 0)
(0.400012 -0.000394609 0)
(0.399876 -0.000424855 0)
(0.399698 -0.000465666 0)
(0.399468 -0.000517152 0)
(0.399175 -0.000570312 0)
(0.398806 -0.000638409 0)
(0.398348 -0.000720903 0)
(0.397782 -0.000820419 0)
(0.397089 -0.000940518 0)
(0.396243 -0.0010851 0)
(0.395217 -0.00125873 0)
(0.393976 -0.00146663 0)
(0.392481 -0.00171454 0)
(0.390688 -0.00200827 0)
(0.388545 -0.002353 0)
(0.385998 -0.00275198 0)
(0.382989 -0.0032043 0)
(0.379464 -0.00369764 0)
(0.375389 -0.00421057 0)
(0.370731 -0.00464381 0)
(0.365676 -0.00505725 0)
(0.359204 -0.00448389 0)
(0.399648 -0.000110999 0)
(0.399359 -0.000187432 0)
(0.398913 -0.000201399 0)
(0.398395 -0.000207939 0)
(0.397865 -0.000216212 0)
(0.397326 -0.000223988 0)
(0.396767 -0.000231754 0)
(0.396182 -0.000240529 0)
(0.395563 -0.000250697 0)
(0.394906 -0.000263291 0)
(0.394202 -0.000277362 0)
(0.393439 -0.000293154 0)
(0.392605 -0.000314249 0)
(0.391689 -0.000340901 0)
(0.390671 -0.000372521 0)
(0.38953 -0.000409796 0)
(0.388242 -0.000454234 0)
(0.386775 -0.000507644 0)
(0.385094 -0.000572078 0)
(0.383154 -0.000649833 0)
(0.380906 -0.000743402 0)
(0.378288 -0.000855373 0)
(0.375234 -0.00098817 0)
(0.371671 -0.00114334 0)
(0.367522 -0.00132074 0)
(0.362721 -0.00151584 0)
(0.357226 -0.00172394 0)
(0.351053 -0.00189279 0)
(0.34444 -0.00211035 0)
(0.33498 -0.001408 0)
(0.461744 -0.00661294 8.80931e-21)
(0.467608 -0.0101782 -1.91088e-17)
(0.472741 -0.014169 1.92448e-17)
(0.476809 -0.0185631 9.69724e-18)
(0.480291 -0.0233159 7.33945e-18)
(0.483452 -0.0284216 1.48344e-17)
(0.486371 -0.033918 7.47899e-18)
(0.489105 -0.0398604 2.01781e-17)
(0.491717 -0.0462941 1.02076e-17)
(0.494249 -0.05325 5.14926e-18)
(0.496708 -0.0607554 -5.21637e-18)
(0.499079 -0.0688434 1.05309e-17)
(0.501342 -0.0775573 5.36093e-18)
(0.503482 -0.0869522 5.41319e-18)
(0.505489 -0.0970975 1.09526e-17)
(0.50736 -0.108078 5.56491e-18)
(0.509093 -0.119998 1.68498e-17)
(0.510689 -0.132984 0)
(0.51215 -0.147191 0)
(0.51348 -0.162813 5.81765e-18)
(0.514682 -0.180092 -3.25769e-20)
(0.515767 -0.199332 5.99066e-18)
(0.516744 -0.220921 0)
(0.517625 -0.245371 1.21799e-17)
(0.518469 -0.273277 6.14343e-18)
(0.519028 -0.305817 -6.24967e-18)
(0.520643 -0.342387 6.22192e-18)
(0.517685 -0.393202 6.28396e-18)
(0.528563 -0.426589 1.87287e-17)
(0.498907 -0.54688 -6.09245e-18)
(0.467787 -0.0139007 -9.59483e-18)
(0.471276 -0.0174206 1.08833e-17)
(0.474089 -0.0216805 -1.09889e-17)
(0.476346 -0.0263232 0)
(0.478449 -0.031272 -9.98945e-18)
(0.480568 -0.0365697 -1.00836e-17)
(0.482697 -0.0422777 -2.54937e-18)
(0.484807 -0.048433 -1.80605e-17)
(0.486885 -0.0550519 -1.04296e-17)
(0.488903 -0.0621502 -1.05795e-17)
(0.490824 -0.0697555 5.34335e-18)
(0.492611 -0.0779087 -5.41874e-18)
(0.494241 -0.086661 -1.09503e-17)
(0.4957 -0.0960736 -1.10936e-17)
(0.496978 -0.106219 -1.12423e-17)
(0.498066 -0.117183 -1.13966e-17)
(0.498952 -0.129069 -2.31661e-17)
(0.49962 -0.142003 5.86813e-18)
(0.500051 -0.156138 -5.96828e-18)
(0.500224 -0.171663 -1.81755e-17)
(0.500111 -0.188815 2.04725e-20)
(0.49968 -0.207889 -4.81504e-20)
(0.498885 -0.229258 -3.01055e-20)
(0.497677 -0.253404 -1.92999e-17)
(0.495972 -0.280911 -1.30516e-17)
(0.49358 -0.312762 -6.53192e-18)
(0.490997 -0.348975 8.60532e-20)
(0.48432 -0.396296 -1.15511e-19)
(0.488062 -0.433252 -2.00965e-17)
(0.453507 -0.543126 0)
(0.465578 -0.0206724 0)
(0.467871 -0.0242106 0)
(0.469875 -0.0285247 0)
(0.471803 -0.0332502 -1.26016e-18)
(0.473759 -0.0382885 1.14713e-17)
(0.475723 -0.0436648 -2.5785e-18)
(0.477629 -0.0494163 2.61223e-18)
(0.479429 -0.0555639 1.05585e-17)
(0.4811 -0.0621291 -2.67362e-18)
(0.482622 -0.0691457 1.3536e-17)
(0.483978 -0.0766577 5.48714e-18)
(0.485156 -0.0847139 -5.56881e-18)
(0.486146 -0.0933669 5.63907e-18)
(0.486936 -0.102676 -5.7278e-18)
(0.487508 -0.112711 -1.16419e-17)
(0.487841 -0.123555 1.18201e-17)
(0.487907 -0.13531 1.19478e-17)
(0.487673 -0.148099 0)
(0.4871 -0.162073 0)
(0.486142 -0.177414 1.25304e-17)
(0.48474 -0.194352 0)
(0.482823 -0.213167 1.951e-17)
(0.480291 -0.234217 6.62088e-18)
(0.477032 -0.257947 1.33833e-17)
(0.472847 -0.284925 2.04113e-17)
(0.467535 -0.315965 7.00837e-18)
(0.460993 -0.351491 0)
(0.45077 -0.395829 2.8564e-17)
(0.446555 -0.435369 0)
(0.408975 -0.534114 1.44854e-17)
(0.463157 -0.0277241 0)
(0.464972 -0.0314286 0)
(0.46655 -0.0358121 0)
(0.468172 -0.0405543 -1.03108e-17)
(0.469781 -0.045583 0)
(0.471286 -0.0509308 0)
(0.472651 -0.0566402 0)
(0.473875 -0.0627406 1.08447e-17)
(0.474954 -0.0692597 0)
(0.475878 -0.0762314 0)
(0.47663 -0.0836937 0)
(0.477194 -0.0916877 -1.14733e-17)
(0.477546 -0.10026 -1.16481e-17)
(0.47766 -0.109469 -5.89941e-18)
(0.477507 -0.119382 -4.67334e-20)
(0.477051 -0.130082 -1.21562e-17)
(0.476253 -0.141669 7.91796e-21)
(0.475066 -0.154262 1.89628e-17)
(0.473435 -0.168005 6.41538e-18)
(0.471289 -0.183072 -6.54448e-18)
(0.468541 -0.199678 -6.65577e-18)
(0.465081 -0.218085 -6.73316e-18)
(0.460761 -0.238623 -6.91662e-18)
(0.455413 -0.261696 2.12873e-17)
(0.448745 -0.287835 0)
(0.440534 -0.317697 -2.21237e-17)
(0.430216 -0.351906 -7.54552e-18)
(0.416491 -0.393243 2.58394e-19)
(0.404649 -0.433216 -2.35955e-17)
(0.365235 -0.520852 5.17626e-19)
(0.459877 -0.0343873 0)
(0.461198 -0.0381251 1.0276e-17)
(0.462265 -0.0424757 -1.29904e-18)
(0.463442 -0.0471793 2.23763e-17)
(0.464609 -0.0521858 0)
(0.465637 -0.0575204 0)
(0.466506 -0.0632138 1.0971e-17)
(0.467232 -0.069287 -1.10943e-17)
(0.467805 -0.0757619 0)
(0.468202 -0.0826676 0)
(0.468396 -0.09004 0)
(0.468362 -0.0979209 1.17738e-17)
(0.468072 -0.106359 1.19635e-17)
(0.467495 -0.115412 -6.09171e-18)
(0.466595 -0.125148 1.85729e-17)
(0.465331 -0.135646 0)
(0.463652 -0.147001 1.28905e-17)
(0.461497 -0.159325 -1.96552e-17)
(0.458793 -0.17275 -6.68249e-18)
(0.455446 -0.187441 0)
(0.451343 -0.203592 0)
(0.44634 -0.221443 0)
(0.440249 -0.241293 0)
(0.432848 -0.263498 -7.38706e-18)
(0.423773 -0.288534 -7.64334e-18)
(0.412769 -0.316924 7.752e-18)
(0.398937 -0.349391 8.05871e-18)
(0.381858 -0.387566 -1.63831e-17)
(0.362963 -0.42665 1.68765e-17)
(0.322689 -0.50343 -1.70887e-17)
(0.455834 -0.0406663 -1.0359e-17)
(0.4567 -0.0444434 -9.81925e-18)
(0.457298 -0.0487934 -1.99217e-18)
(0.458058 -0.0534859 -8.06582e-18)
(0.458811 -0.0584744 -9.23326e-22)
(0.459393 -0.0637751 -4.1525e-18)
(0.459787 -0.0694125 3.52878e-20)
(0.460013 -0.0754074 -1.14229e-17)
(0.460061 -0.0817839 -8.70622e-18)
(0.459902 -0.0885731 1.17886e-17)
(0.459507 -0.0958116 0)
(0.458848 -0.10354 1.52276e-17)
(0.457896 -0.111806 -1.54971e-17)
(0.456612 -0.120662 -1.26287e-17)
(0.454955 -0.130171 1.92818e-17)
(0.452871 -0.140409 -1.96604e-17)
(0.450298 -0.15146 -6.6364e-18)
(0.447162 -0.163429 -6.89715e-18)
(0.443372 -0.176438 -6.9567e-18)
(0.438816 -0.190633 2.14021e-17)
(0.433356 -0.20619 0)
(0.42682 -0.223322 7.45943e-18)
(0.418984 -0.242288 -1.53117e-17)
(0.409583 -0.263395 1.58235e-17)
(0.398202 -0.287051 8.09884e-18)
(0.38454 -0.313664 1.67839e-17)
(0.367481 -0.343957 0)
(0.34724 -0.37873 1.79692e-17)
(0.322094 -0.415763 0)
(0.28174 -0.482017 -1.93022e-17)
(0.451046 -0.0464914 1.05571e-17)
(0.451471 -0.0502834 5.36409e-18)
(0.451609 -0.0546037 -5.44212e-18)
(0.451944 -0.0592463 4.14319e-18)
(0.452271 -0.064171 6.90842e-22)
(0.452396 -0.0693932 6.09324e-22)
(0.452303 -0.074936 -1.00747e-17)
(0.452023 -0.0808205 2.90032e-18)
(0.451543 -0.0870703 1.78489e-17)
(0.450829 -0.0937143 -1.51226e-17)
(0.44985 -0.100786 3.08176e-18)
(0.448573 -0.108323 -1.56638e-17)
(0.446962 -0.116368 1.27584e-17)
(0.444974 -0.124971 1.30042e-17)
(0.442557 -0.13419 -6.59652e-18)
(0.439651 -0.144093 1.35387e-17)
(0.436183 -0.154759 0)
(0.432066 -0.166279 7.04847e-18)
(0.427197 -0.178763 7.26085e-18)
(0.421445 -0.192339 -1.48274e-17)
(0.414654 -0.207159 0)
(0.406625 -0.223404 -7.84271e-18)
(0.397108 -0.241293 2.86258e-21)
(0.385803 -0.261079 -1.65528e-17)
(0.37226 -0.283097 1.71892e-17)
(0.356131 -0.307651 -2.65989e-17)
(0.336184 -0.335394 0)
(0.313045 -0.366546 -1.90221e-17)
(0.282575 -0.400604 6.25992e-20)
(0.242634 -0.456828 2.08599e-17)
(0.445534 -0.0517599 5.40643e-18)
(0.44553 -0.0555432 -4.78757e-18)
(0.445221 -0.0598084 4.8604e-18)
(0.445135 -0.0643742 -1.12976e-17)
(0.445039 -0.0692079 -5.7459e-18)
(0.444712 -0.0743236 -1.45701e-18)
(0.444143 -0.079742 5.93653e-18)