/*--------------------------------*- C++ -*----------------------------------*\
  =========                 |
  \\      /  F ield         | OpenFOAM: The Open Source CFD Toolbox
   \\    /   O peration     | Website:  https://openfoam.org
    \\  /    A nd           | Version:  11
     \\/     M anipulation  |
\*---------------------------------------------------------------------------*/
FoamFile
{
    format      ascii;
    class       surfaceScalarField;
    location    "5.2";
    object      phi;
}
// * * * * * * * * * * * * * * * * * * * * * * * * * * * * * * * * * * * * * //

dimensions      [0 3 -1 0 0 0 0];

internalField   nonuniform List<scalar> 
24840
(
1.92403e-05
7.81943e-09
1.92306e-05
9.73783e-09
1.92221e-05
8.50723e-09
1.92152e-05
6.91295e-09
1.92102e-05
4.9106e-09
1.92077e-05
2.56329e-09
1.9208e-05
-3.36563e-10
1.92118e-05
-3.77518e-09
1.92194e-05
-7.62394e-09
1.92312e-05
-1.17546e-08
1.92476e-05
-1.64022e-08
1.92692e-05
-2.16149e-08
1.92966e-05
-2.73844e-08
1.93304e-05
-3.38245e-08
1.93715e-05
-4.10832e-08
1.94208e-05
-4.93369e-08
1.94796e-05
-5.8801e-08
1.95494e-05
-6.9734e-08
1.96318e-05
-8.24385e-08
1.97291e-05
-9.72625e-08
1.98436e-05
-1.14595e-07
1.99785e-05
-1.3486e-07
2.0137e-05
-1.58472e-07
2.03228e-05
-1.85852e-07
2.05404e-05
-2.17545e-07
2.07941e-05
-2.53678e-07
2.10894e-05
-2.95339e-07
2.14264e-05
-3.3704e-07
2.18263e-05
-3.99829e-07
-3.78306e-07
2.22046e-05
1.92521e-05
3.82183e-09
1.92558e-05
6.11603e-09
1.92596e-05
4.67426e-09
1.92644e-05
2.13433e-09
1.92707e-05
-1.39485e-09
1.9279e-05
-5.81234e-09
1.92901e-05
-1.13931e-08
1.93044e-05
-1.8033e-08
1.93224e-05
-2.56561e-08
1.93448e-05
-3.41782e-08
1.9372e-05
-4.35391e-08
1.94042e-05
-5.38259e-08
1.9442e-05
-6.52474e-08
1.94862e-05
-7.79532e-08
1.95372e-05
-9.2113e-08
1.95958e-05
-1.07977e-07
1.96629e-05
-1.25911e-07
1.97396e-05
-1.46417e-07
1.98273e-05
-1.70125e-07
1.99278e-05
-1.97769e-07
2.00434e-05
-2.30158e-07
2.01767e-05
-2.68162e-07
2.03309e-05
-3.1269e-07
2.05097e-05
-3.64671e-07
2.07173e-05
-4.25083e-07
2.09581e-05
-4.94517e-07
2.12373e-05
-5.74564e-07
2.15597e-05
-6.59467e-07
2.19334e-05
-7.73525e-07
-7.99333e-07
2.23545e-05
1.92501e-05
1.87981e-09
1.9253e-05
3.24059e-09
1.92563e-05
1.31456e-09
1.92608e-05
-2.39238e-09
1.92671e-05
-7.66356e-09
1.92756e-05
-1.43185e-08
1.92867e-05
-2.25264e-08
1.9301e-05
-3.22478e-08
1.93187e-05
-4.33953e-08
1.93404e-05
-5.58964e-08
1.93666e-05
-6.97252e-08
1.93977e-05
-8.49666e-08
1.94343e-05
-1.01803e-07
1.94768e-05
-1.20449e-07
1.95259e-05
-1.41177e-07
1.95823e-05
-1.64373e-07
1.96469e-05
-1.90582e-07
1.9721e-05
-2.20524e-07
1.9806e-05
-2.55098e-07
1.99036e-05
-2.95357e-07
2.00159e-05
-3.42491e-07
2.01456e-05
-3.97811e-07
2.02956e-05
-4.62732e-07
2.04697e-05
-5.38734e-07
2.0672e-05
-6.27395e-07
2.09073e-05
-7.29823e-07
2.11812e-05
-8.48432e-07
2.14991e-05
-9.77389e-07
2.18682e-05
-1.14259e-06
-1.22848e-06
2.22973e-05
1.92492e-05
8.30161e-10
1.92515e-05
9.14772e-10
1.92545e-05
-1.68817e-09
1.92588e-05
-6.64171e-09
1.92647e-05
-1.35983e-08
1.92728e-05
-2.24343e-08
1.92835e-05
-3.32151e-08
1.92972e-05
-4.59296e-08
1.93143e-05
-6.0495e-08
1.93352e-05
-7.68457e-08
1.93605e-05
-9.49759e-08
1.93905e-05
-1.14966e-07
1.94257e-05
-1.36986e-07
1.94665e-05
-1.61293e-07
1.95136e-05
-1.8826e-07
1.95676e-05
-2.18425e-07
1.96296e-05
-2.52513e-07
1.97005e-05
-2.91465e-07
1.97818e-05
-3.36429e-07
1.98753e-05
-3.88766e-07
1.99828e-05
-4.50034e-07
2.0107e-05
-5.21988e-07
2.02508e-05
-6.06568e-07
2.04179e-05
-7.05857e-07
2.06126e-05
-8.22103e-07
2.084e-05
-9.57134e-07
2.11057e-05
-1.11415e-06
2.14166e-05
-1.2883e-06
2.17789e-05
-1.5049e-06
-1.65706e-06
2.22075e-05
1.92488e-05
1.68149e-10
1.92506e-05
-8.47753e-10
1.92532e-05
-4.35753e-09
1.92571e-05
-1.05252e-08
1.92626e-05
-1.91358e-08
1.92703e-05
-3.00797e-08
1.92804e-05
-4.33515e-08
1.92934e-05
-5.89322e-08
1.93097e-05
-7.67546e-08
1.93296e-05
-9.67609e-08
1.93536e-05
-1.1895e-07
1.9382e-05
-1.43405e-07
1.94153e-05
-1.70308e-07
1.9454e-05
-1.99961e-07
1.94986e-05
-2.32823e-07
1.95497e-05
-2.69552e-07
1.96082e-05
-3.11035e-07
1.96752e-05
-3.58413e-07
1.97518e-05
-4.1309e-07
1.98398e-05
-4.76732e-07
1.9941e-05
-5.51272e-07
2.0058e-05
-6.38916e-07
2.01935e-05
-7.42142e-07
2.03514e-05
-8.63671e-07
2.05357e-05
-1.00649e-06
2.07519e-05
-1.17333e-06
2.1006e-05
-1.36825e-06
2.13058e-05
-1.58805e-06
2.16577e-05
-1.85678e-06
-2.0783e-06
2.20789e-05
1.92486e-05
-3.28698e-10
1.925e-05
-2.2061e-09
1.92523e-05
-6.70769e-09
1.92559e-05
-1.40951e-08
1.92611e-05
-2.42981e-08
1.92682e-05
-3.7225e-08
1.92777e-05
-5.28375e-08
1.92899e-05
-7.11082e-08
1.93051e-05
-9.19823e-08
1.93238e-05
-1.15408e-07
1.93462e-05
-1.41382e-07
1.93728e-05
-1.69987e-07
1.94039e-05
-2.01416e-07
1.94399e-05
-2.36009e-07
1.94814e-05
-2.743e-07
1.95289e-05
-3.17058e-07
1.95832e-05
-3.65322e-07
1.96452e-05
-4.20424e-07
1.97161e-05
-4.84006e-07
1.97974e-05
-5.58025e-07
1.98909e-05
-6.44774e-07
1.99989e-05
-7.469e-07
2.01242e-05
-8.67426e-07
2.02703e-05
-1.00975e-06
2.04414e-05
-1.17767e-06
2.06431e-05
-1.37496e-06
2.08816e-05
-1.60674e-06
2.11654e-05
-1.87193e-06
2.1502e-05
-2.19331e-06
-2.4879e-06
2.19116e-05
1.92485e-05
-6.9657e-10
1.92496e-05
-3.31149e-09
1.92517e-05
-8.77964e-09
1.92549e-05
-1.73373e-08
1.92596e-05
-2.90219e-08
1.92662e-05
-4.3779e-08
1.92749e-05
-6.15585e-08
1.92861e-05
-8.23193e-08
1.93002e-05
-1.06007e-07
1.93173e-05
-1.3257e-07
1.93379e-05
-1.62002e-07
1.93623e-05
-1.94384e-07
1.93908e-05
-2.29922e-07
1.94238e-05
-2.68992e-07
1.94617e-05
-3.12189e-07
1.9505e-05
-3.60376e-07
1.95544e-05
-4.14722e-07
1.96107e-05
-4.76729e-07
1.9675e-05
-5.48255e-07
1.97485e-05
-6.3153e-07
1.98329e-05
-7.29187e-07
1.99303e-05
-8.44301e-07
2.00433e-05
-9.80434e-07
2.01752e-05
-1.14167e-06
2.03303e-05
-1.33269e-06
2.05137e-05
-1.55842e-06
2.07322e-05
-1.82527e-06
2.0995e-05
-2.13471e-06
2.13102e-05
-2.50852e-06
-2.87961e-06
2.17019e-05
1.92484e-05
-9.76077e-10
1.92493e-05
-4.24759e-09
1.92512e-05
-1.0584e-08
1.9254e-05
-2.02289e-08
1.92583e-05
-3.32747e-08
1.92642e-05
-4.96974e-08
1.92721e-05
-6.94434e-08
1.92822e-05
-9.24587e-08
1.92949e-05
-1.18684e-07
1.93104e-05
-1.48065e-07
1.9329e-05
-1.80592e-07
1.9351e-05
-2.16341e-07
1.93766e-05
-2.55527e-07
1.94061e-05
-2.98549e-07
1.944e-05
-3.46054e-07
1.94786e-05
-3.98981e-07
1.95225e-05
-4.58611e-07
1.95723e-05
-5.26591e-07
1.96291e-05
-6.04969e-07
1.96937e-05
-6.96216e-07
1.97678e-05
-8.03271e-07
1.98531e-05
-9.29602e-07
1.9952e-05
-1.07929e-06
2.00674e-05
-1.25708e-06
2.02033e-05
-1.46857e-06
2.03648e-05
-1.71994e-06
2.05586e-05
-2.01903e-06
2.07942e-05
-2.37036e-06
2.10807e-05
-2.79498e-06
-3.24473e-06
2.14458e-05
1.92484e-05
-1.20229e-09
1.92491e-05
-5.03575e-09
1.92507e-05
-1.21394e-08
1.92532e-05
-2.2765e-08
1.9257e-05
-3.70306e-08
1.92622e-05
-5.4933e-08
1.92692e-05
-7.6419e-08
1.92782e-05
-1.01425e-07
1.92894e-05
-1.29882e-07
1.9303e-05
-1.61731e-07
1.93194e-05
-1.96953e-07
1.93387e-05
-2.35618e-07
1.93611e-05
-2.77942e-07
1.93869e-05
-3.24344e-07
1.94163e-05
-3.75505e-07
1.94498e-05
-4.32425e-07
1.94876e-05
-4.96468e-07
1.95304e-05
-5.694e-07
1.95789e-05
-6.53421e-07
1.96339e-05
-7.51201e-07
1.96966e-05
-8.65941e-07
1.97684e-05
-1.00145e-06
1.98514e-05
-1.16226e-06
1.99481e-05
-1.35377e-06
2.00619e-05
-1.58243e-06
2.01977e-05
-1.85571e-06
2.03617e-05
-2.18302e-06
2.05636e-05
-2.57222e-06
2.08126e-05
-3.044e-06
-3.57188e-06
2.11397e-05
1.92483e-05
-1.38871e-09
1.9249e-05
-5.69476e-09
1.92503e-05
-1.3461e-08
1.92525e-05
-2.49416e-08
1.92557e-05
-4.02675e-08
1.92602e-05
-5.94472e-08
1.92662e-05
-8.2428e-08
1.92739e-05
-1.09137e-07
1.92836e-05
-1.39496e-07
1.92953e-05
-1.73434e-07
1.93092e-05
-2.10921e-07
1.93256e-05
-2.52021e-07
1.93446e-05
-2.96943e-07
1.93664e-05
-3.46114e-07
1.93911e-05
-4.00237e-07
1.94191e-05
-4.60348e-07
1.94505e-05
-5.27872e-07
1.94857e-05
-6.04656e-07
1.95253e-05
-6.93013e-07
1.95699e-05
-7.95763e-07
1.96202e-05
-9.16302e-07
1.96775e-05
-1.05871e-06
1.97431e-05
-1.22789e-06
1.98191e-05
-1.42978e-06
1.99083e-05
-1.67162e-06
2.00147e-05
-1.96208e-06
2.01438e-05
-2.31215e-06
2.03047e-05
-2.73317e-06
2.05065e-05
-3.24573e-06
-3.8471e-06
2.07817e-05
1.92483e-05
-1.54171e-09
1.92488e-05
-6.23839e-09
1.92499e-05
-1.45591e-08
1.92517e-05
-2.67578e-08
1.92544e-05
-4.29707e-08
1.92582e-05
-6.32113e-08
1.92632e-05
-8.74253e-08
1.92696e-05
-1.15532e-07
1.92775e-05
-1.4744e-07
1.92872e-05
-1.83067e-07
1.92986e-05
-2.2237e-07
1.9312e-05
-2.65397e-07
1.93274e-05
-3.1235e-07
1.93449e-05
-3.63651e-07
1.93647e-05
-4.20007e-07
1.93868e-05
-4.82475e-07
1.94115e-05
-5.52505e-07
1.94388e-05
-6.31993e-07
1.94691e-05
-7.23312e-07
1.95027e-05
-8.29372e-07
1.95401e-05
-9.53687e-07
1.95819e-05
-1.10051e-06
1.9629e-05
-1.275e-06
1.96828e-05
-1.4835e-06
1.9745e-05
-1.73387e-06
1.98187e-05
-2.03577e-06
1.99082e-05
-2.40164e-06
2.00211e-05
-2.84609e-06
2.01652e-05
-3.38982e-06
-4.05431e-06
2.03724e-05
1.92483e-05
-1.66516e-09
1.92487e-05
-6.6764e-09
1.92496e-05
-1.54425e-08
1.9251e-05
-2.82154e-08
1.92532e-05
-4.51317e-08
1.92562e-05
-6.62054e-08
1.92601e-05
-9.13788e-08
1.92652e-05
-1.20562e-07
1.92714e-05
-1.53652e-07
1.92789e-05
-1.90552e-07
1.92877e-05
-2.31203e-07
1.92979e-05
-2.75635e-07
1.93096e-05
-3.24035e-07
1.93228e-05
-3.7681e-07
1.93374e-05
-4.34658e-07
1.93536e-05
-4.98629e-07
1.93713e-05
-5.70172e-07
1.93905e-05
-6.51187e-07
1.94112e-05
-7.44059e-07
1.94335e-05
-8.51714e-07
1.94576e-05
-9.77702e-07
1.94834e-05
-1.12633e-06
1.95112e-05
-1.30287e-06
1.95416e-05
-1.51386e-06
1.95753e-05
-1.76753e-06
1.96137e-05
-2.07424e-06
1.96595e-05
-2.44745e-06
1.9718e-05
-2.90455e-06
1.97945e-05
-3.46629e-06
-4.17664e-06
1.99168e-05
1.92482e-05
-1.76197e-09
1.92486e-05
-7.01651e-09
1.92492e-05
-1.61194e-08
1.92504e-05
-2.93186e-08
1.9252e-05
-4.67482e-08
1.92542e-05
-6.84194e-08
1.92571e-05
-9.42692e-08
1.92607e-05
-1.24199e-07
1.92652e-05
-1.58094e-07
1.92704e-05
-1.95842e-07
1.92766e-05
-2.37364e-07
1.92836e-05
-2.82671e-07
1.92915e-05
-3.31928e-07
1.93002e-05
-3.85516e-07
1.93097e-05
-4.4411e-07
1.93198e-05
-5.08729e-07
1.93304e-05
-5.80793e-07
1.93414e-05
-6.62162e-07
1.93525e-05
-7.55177e-07
1.93635e-05
-8.62711e-07
1.9374e-05
-9.88244e-07
1.93837e-05
-1.13601e-06
1.93921e-05
-1.31123e-06
1.93986e-05
-1.52038e-06
1.94028e-05
-1.77175e-06
1.94045e-05
-2.07592e-06
1.94039e-05
-2.44684e-06
1.9403e-05
-2.90365e-06
1.94035e-05
-3.46678e-06
-4.19837e-06
1.94252e-05
1.92482e-05
-1.83472e-09
1.92485e-05
-7.26572e-09
1.92489e-05
-1.65985e-08
1.92497e-05
-3.00749e-08
1.92508e-05
-4.7824e-08
1.92522e-05
-6.98522e-08
1.9254e-05
-9.60908e-08
1.92563e-05
-1.26432e-07
1.92589e-05
-1.6075e-07
1.9262e-05
-1.98914e-07
1.92654e-05
-2.40829e-07
1.92693e-05
-2.86482e-07
1.92733e-05
-3.36008e-07
1.92776e-05
-3.89757e-07
1.92818e-05
-4.48362e-07
1.92859e-05
-5.12794e-07
1.92895e-05
-5.84411e-07
1.92923e-05
-6.64994e-07
1.9294e-05
-7.56786e-07
1.92938e-05
-8.62526e-07
1.92911e-05
-9.85532e-07
1.92849e-05
-1.12983e-06
1.9274e-05
-1.30036e-06
1.9257e-05
-1.50333e-06
1.92319e-05
-1.74666e-06
1.91966e-05
-2.04063e-06
1.91486e-05
-2.39886e-06
1.90859e-05
-2.84091e-06
1.90052e-05
-3.38612e-06
-4.10779e-06
1.89146e-05
1.92482e-05
-1.88597e-09
1.92483e-05
-7.43097e-09
1.92486e-05
-1.68894e-08
1.92491e-05
-3.04947e-08
1.92496e-05
-4.8369e-08
1.92503e-05
-7.05125e-08
1.9251e-05
-9.68505e-08
1.92519e-05
-1.27268e-07
1.92527e-05
-1.61625e-07
1.92536e-05
-1.99779e-07
1.92544e-05
-2.41613e-07
1.9255e-05
-2.87088e-07
1.92553e-05
-3.36309e-07
1.92551e-05
-3.89584e-07
1.92542e-05
-4.47492e-07
1.92524e-05
-5.10937e-07
1.92492e-05
-5.81186e-07
1.92441e-05
-6.59908e-07
1.92365e-05
-7.49188e-07
1.92255e-05
-8.51568e-07
1.92101e-05
-9.70098e-07
1.91887e-05
-1.10846e-06
1.91595e-05
-1.27114e-06
1.91199e-05
-1.46377e-06
1.90668e-05
-1.69353e-06
1.89959e-05
-1.96975e-06
1.89019e-05
-2.30484e-06
1.87782e-05
-2.71716e-06
1.86159e-05
-3.22386e-06
-3.90024e-06
1.84084e-05
1.92482e-05
-1.91763e-09
1.92483e-05
-7.52039e-09
1.92484e-05
-1.70048e-08
1.92485e-05
-3.05932e-08
1.92485e-05
-4.83994e-08
1.92484e-05
-7.04175e-08
1.92481e-05
-9.65676e-08
1.92476e-05
-1.26727e-07
1.92467e-05
-1.60748e-07
1.92454e-05
-1.9847e-07
1.92435e-05
-2.39759e-07
1.9241e-05
-2.84551e-07
1.92376e-05
-3.32913e-07
1.92331e-05
-3.85108e-07
1.92273e-05
-4.41651e-07
1.92197e-05
-5.0336e-07
1.92099e-05
-5.71392e-07
1.91973e-05
-6.47263e-07
1.91809e-05
-7.32864e-07
1.91598e-05
-8.30468e-07
1.91325e-05
-9.42776e-07
1.90971e-05
-1.073e-06
1.90509e-05
-1.22501e-06
1.89907e-05
-1.40358e-06
1.8912e-05
-1.61476e-06
1.88086e-05
-1.86635e-06
1.86724e-05
-2.16865e-06
1.84924e-05
-2.53713e-06
1.82539e-05
-2.9854e-06
-3.58082e-06
1.79345e-05
1.92482e-05
-1.93494e-09
1.92482e-05
-7.54133e-09
1.92481e-05
-1.6955e-08
1.92479e-05
-3.03872e-08
1.92475e-05
-4.79376e-08
1.92466e-05
-6.95943e-08
1.92453e-05
-9.52745e-08
1.92435e-05
-1.24851e-07
1.92409e-05
-1.58166e-07
1.92375e-05
-1.95048e-07
1.9233e-05
-2.35345e-07
1.92275e-05
-2.78968e-07
1.92205e-05
-3.25947e-07
1.92119e-05
-3.76494e-07
1.92013e-05
-4.31052e-07
1.91883e-05
-4.90344e-07
1.91723e-05
-5.55394e-07
1.91526e-05
-6.27543e-07
1.91281e-05
-7.08446e-07
1.90977e-05
-8.00062e-07
1.90596e-05
-9.04671e-07
1.90115e-05
-1.02492e-06
1.89504e-05
-1.1639e-06
1.88722e-05
-1.32535e-06
1.87713e-05
-1.51385e-06
1.86401e-05
-1.73516e-06
1.84681e-05
-1.99666e-06
1.82405e-05
-2.30947e-06
1.79375e-05
-2.68246e-06
-3.16567e-06
1.75224e-05
1.92481e-05
-1.93814e-09
1.92481e-05
-7.50396e-09
1.92479e-05
-1.67607e-08
1.92474e-05
-2.99006e-08
1.92465e-05
-4.70106e-08
1.9245e-05
-6.80762e-08
1.92427e-05
-9.3013e-08
1.92396e-05
-1.2169e-07
1.92353e-05
-1.53945e-07
1.92299e-05
-1.89596e-07
1.9223e-05
-2.28476e-07
1.92145e-05
-2.70472e-07
1.92041e-05
-3.15579e-07
1.91916e-05
-3.63956e-07
1.91765e-05
-4.1597e-07
1.91584e-05
-4.72238e-07
1.91367e-05
-5.33642e-07
1.91105e-05
-6.0133e-07
1.90787e-05
-6.76695e-07
1.904e-05
-7.61349e-07
1.89924e-05
-8.57102e-07
1.89335e-05
-9.65967e-07
1.88598e-05
-1.09019e-06
1.87667e-05
-1.23229e-06
1.8648e-05
-1.39517e-06
1.84951e-05
-1.58222e-06
1.82958e-05
-1.79738e-06
1.80326e-05
-2.04631e-06
1.76825e-05
-2.33235e-06
-2.68133e-06
1.71982e-05
1.92481e-05
-1.93116e-09
1.9248e-05
-7.42139e-09
1.92477e-05
-1.64402e-08
1.9247e-05
-2.9158e-08
1.92456e-05
-4.56522e-08
1.92435e-05
-6.59058e-08
1.92403e-05
-8.98363e-08
1.92359e-05
-1.17313e-07
1.92301e-05
-1.48169e-07
1.92227e-05
-1.82218e-07
1.92135e-05
-2.19281e-07
1.92023e-05
-2.59225e-07
1.91887e-05
-3.02011e-07
1.91725e-05
-3.47746e-07
1.91533e-05
-3.9672e-07
1.91305e-05
-4.49444e-07
1.91035e-05
-5.06649e-07
1.90714e-05
-5.69282e-07
1.90332e-05
-6.38462e-07
1.89873e-05
-7.15439e-07
1.89317e-05
-8.01536e-07
1.88639e-05
-8.98109e-07
1.87802e-05
-1.0065e-06
1.86759e-05
-1.12799e-06
1.85444e-05
-1.26371e-06
1.83767e-05
-1.41452e-06
1.81601e-05
-1.58074e-06
1.78759e-05
-1.76213e-06
1.74999e-05
-1.95632e-06
-2.16167e-06
1.69802e-05
1.92481e-05
-1.91961e-09
1.9248e-05
-7.30591e-09
1.92476e-05
-1.60151e-08
1.92466e-05
-2.81912e-08
1.92449e-05
-4.39016e-08
1.92421e-05
-6.31323e-08
1.92381e-05
-8.58064e-08
1.92325e-05
-1.11796e-07
1.92253e-05
-1.40935e-07
1.92161e-05
-1.73035e-07
1.92048e-05
-2.0791e-07
1.91909e-05
-2.45412e-07
1.91744e-05
-2.85472e-07
1.91548e-05
-3.28148e-07
1.91317e-05
-3.73657e-07
1.91047e-05
-4.22402e-07
1.9073e-05
-4.74969e-07
1.90358e-05
-5.321e-07
1.8992e-05
-5.94649e-07
1.89401e-05
-6.63504e-07
1.88781e-05
-7.39512e-07
1.88033e-05
-8.23385e-07
1.87124e-05
-9.15591e-07
1.86006e-05
-1.0162e-06
1.84616e-05
-1.12464e-06
1.82864e-05
-1.23935e-06
1.80629e-05
-1.35721e-06
1.7773e-05
-1.47228e-06
1.73938e-05
-1.57706e-06
-1.64329e-06
1.68754e-05
1.92481e-05
-1.90841e-09
1.9248e-05
-7.17528e-09
1.92475e-05
-1.55136e-08
1.92463e-05
-2.70356e-08
1.92442e-05
-4.18028e-08
1.92409e-05
-5.98107e-08
1.92361e-05
-8.09936e-08
1.92295e-05
-1.05229e-07
1.9221e-05
-1.32353e-07
1.92101e-05
-1.62182e-07
1.91967e-05
-1.9453e-07
1.91805e-05
-2.29238e-07
1.91613e-05
-2.66213e-07
1.91386e-05
-3.05469e-07
1.91121e-05
-3.47156e-07
1.90813e-05
-3.91577e-07
1.90455e-05
-4.39175e-07
1.90039e-05
-4.90506e-07
1.89554e-05
-5.46168e-07
1.88986e-05
-6.06716e-07
1.88317e-05
-6.72556e-07
1.87521e-05
-7.43811e-07
1.86567e-05
-8.20158e-07
1.8541e-05
-9.00586e-07
1.83994e-05
-9.83021e-07
1.82238e-05
-1.06377e-06
1.80034e-05
-1.13679e-06
1.77225e-05
-1.19133e-06
1.73613e-05
-1.21592e-06
-1.16055e-06
1.68786e-05
1.92481e-05
-1.904e-09
1.9248e-05
-7.05304e-09
1.92475e-05
-1.49707e-08
1.92462e-05
-2.57318e-08
1.92438e-05
-3.9404e-08
1.924e-05
-5.60018e-08
1.92344e-05
-7.54752e-08
1.92269e-05
-9.77079e-08
1.92171e-05
-1.22544e-07
1.92047e-05
-1.4981e-07
1.91895e-05
-1.79323e-07
1.91712e-05
-2.10924e-07
1.91495e-05
-2.445e-07
1.91241e-05
-2.80031e-07
1.90945e-05
-3.17606e-07
1.90604e-05
-3.57437e-07
1.9021e-05
-3.99843e-07
1.89757e-05
-4.45207e-07
1.89235e-05
-4.93903e-07
1.8863e-05
-5.46195e-07
1.87925e-05
-6.02106e-07
1.871e-05
-6.61261e-07
1.86125e-05
-7.22676e-07
1.84963e-05
-7.84458e-07
1.83567e-05
-8.43342e-07
1.81869e-05
-8.93984e-07
1.79783e-05
-9.28174e-07
1.77186e-05
-9.31639e-07
1.73931e-05
-8.90488e-07
-7.40238e-07
1.69728e-05
1.92481e-05
-1.91433e-09
1.92481e-05
-6.97096e-09
1.92475e-05
-1.44333e-08
1.92461e-05
-2.43271e-08
1.92435e-05
-3.67563e-08
1.92392e-05
-5.17702e-08
1.92331e-05
-6.93337e-08
1.92247e-05
-8.93364e-08
1.92138e-05
-1.11636e-07
1.92001e-05
-1.36073e-07
1.91832e-05
-1.62481e-07
1.9163e-05
-1.907e-07
1.91391e-05
-2.2061e-07
1.91113e-05
-2.52162e-07
1.9079e-05
-2.85397e-07
1.90421e-05
-3.20449e-07
1.89997e-05
-3.5753e-07
1.89514e-05
-3.96877e-07
1.88962e-05
-4.38678e-07
1.8833e-05
-4.82961e-07
1.87603e-05
-5.29446e-07
1.86764e-05
-5.7737e-07
1.8579e-05
-6.25259e-07
1.84651e-05
-6.70591e-07
1.83311e-05
-7.0929e-07
1.8172e-05
-7.34942e-07
1.79819e-05
-7.38048e-07
1.77526e-05
-7.02374e-07
1.74753e-05
-6.13123e-07
-3.99631e-07
1.71347e-05
1.92482e-05
-1.95709e-09
1.92482e-05
-6.97033e-09
1.92477e-05
-1.39565e-08
1.92463e-05
-2.28807e-08
1.92434e-05
-3.39153e-08
1.92388e-05
-4.71862e-08
1.92322e-05
-6.26571e-08
1.9223e-05
-8.02223e-08
1.92112e-05
-9.97597e-08
1.91962e-05
-1.21135e-07
1.91779e-05
-1.44198e-07
1.9156e-05
-1.68799e-07
1.91302e-05
-1.94817e-07
1.91003e-05
-2.22186e-07
1.90658e-05
-2.5091e-07
1.90264e-05
-2.8106e-07
1.89816e-05
-3.12759e-07
1.89309e-05
-3.46131e-07
1.88734e-05
-3.81224e-07
1.88084e-05
-4.17896e-07
1.87346e-05
-4.55652e-07
1.86507e-05
-4.93468e-07
1.8555e-05
-5.29567e-07
1.84455e-05
-5.61078e-07
1.83197e-05
-5.83531e-07
1.81748e-05
-5.9005e-07
1.80075e-05
-5.70746e-07
1.78141e-05
-5.0897e-07
1.75913e-05
-3.90364e-07
-1.46144e-07
1.73379e-05
1.92482e-05
-2.06339e-09
1.92484e-05
-7.14117e-09
1.9248e-05
-1.35931e-08
1.92466e-05
-2.14295e-08
1.92436e-05
-3.09493e-08
1.92388e-05
-4.23313e-08
1.92317e-05
-5.55425e-08
1.92219e-05
-7.04839e-08
1.92092e-05
-8.70616e-08
1.91933e-05
-1.0517e-07
1.91737e-05
-1.24681e-07
1.91504e-05
-1.45463e-07
1.9123e-05
-1.67404e-07
1.90912e-05
-1.90429e-07
1.90548e-05
-2.14516e-07
1.90135e-05
-2.3969e-07
1.89667e-05
-2.66006e-07
1.89141e-05
-2.93508e-07
1.8855e-05
-3.22156e-07
1.87888e-05
-3.5171e-07
1.87147e-05
-3.8155e-07
1.86318e-05
-4.1052e-07
1.8539e-05
-4.3673e-07
1.84351e-05
-4.57246e-07
1.83192e-05
-4.67606e-07
1.81902e-05
-4.6106e-07
1.80476e-05
-4.28146e-07
1.78918e-05
-3.53145e-07
1.77246e-05
-2.232e-07
2.17938e-08
1.75567e-05
1.92484e-05
-2.29557e-09
1.92488e-05
-7.62475e-09
1.92487e-05
-1.34243e-08
1.92473e-05
-2.00163e-08
1.92442e-05
-2.79076e-08
1.92392e-05
-3.72723e-08
1.92317e-05
-4.80667e-08
1.92214e-05
-6.02184e-08
1.9208e-05
-7.36671e-08
1.91912e-05
-8.83357e-08
1.91706e-05
-1.04124e-07
1.91461e-05
-1.20924e-07
1.91173e-05
-1.3864e-07
1.90841e-05
-1.57201e-07
1.90462e-05
-1.76568e-07
1.90032e-05
-1.96734e-07
1.89549e-05
-2.17705e-07
1.89009e-05
-2.39474e-07
1.88407e-05
-2.61975e-07
1.87739e-05
-2.84944e-07
1.87001e-05
-3.07725e-07
1.86187e-05
-3.29137e-07
1.85293e-05
-3.47361e-07
1.84318e-05
-3.59666e-07
1.83261e-05
-3.61972e-07
1.82132e-05
-3.48159e-07
1.8095e-05
-3.09882e-07
1.79752e-05
-2.33356e-07
1.78599e-05
-1.07872e-07
1.12958e-07
1.77687e-05
1.92486e-05
-2.79775e-09
1.92496e-05
-8.62999e-09
1.92498e-05
-1.35651e-08
1.92485e-05
-1.87397e-08
1.92455e-05
-2.48852e-08
1.92403e-05
-3.21065e-08
1.92326e-05
-4.03429e-08
1.92219e-05
-4.95603e-08
1.9208e-05
-5.97334e-08
1.91905e-05
-7.08136e-08
1.91691e-05
-8.27328e-08
1.91436e-05
-9.5417e-08
1.91137e-05
-1.08796e-07
1.90793e-05
-1.22808e-07
1.90402e-05
-1.37409e-07
1.8996e-05
-1.52569e-07
1.89466e-05
-1.68257e-07
1.88915e-05
-1.84443e-07
1.88307e-05
-2.01089e-07
1.87637e-05
-2.18003e-07
1.86906e-05
-2.34577e-07
1.86111e-05
-2.49684e-07
1.85255e-05
-2.61714e-07
1.84342e-05
-2.68378e-07
1.83385e-05
-2.66294e-07
1.82407e-05
-2.50342e-07
1.81446e-05
-2.13818e-07
1.80568e-05
-1.45546e-07
1.79874e-05
-3.84413e-08
1.42865e-07
1.79575e-05
1.92493e-05
-4.00937e-09
1.92509e-05
-1.01944e-08
1.92513e-05
-1.40015e-08
1.92503e-05
-1.76683e-08
1.92473e-05
-2.19552e-08
1.92421e-05
-2.68947e-08
1.92342e-05
-3.24539e-08
1.92233e-05
-3.86404e-08
1.9209e-05
-4.54476e-08
1.91911e-05
-5.28512e-08
1.91692e-05
-6.08209e-08
1.91431e-05
-6.93224e-08
1.91126e-05
-7.83153e-08
1.90775e-05
-8.77535e-08
1.90377e-05
-9.75902e-08
1.89929e-05
-1.07783e-07
1.8943e-05
-1.18292e-07
1.88876e-05
-1.29101e-07
1.88268e-05
-1.40251e-07
1.87604e-05
-1.51655e-07
1.86886e-05
-1.62783e-07
1.86116e-05
-1.7263e-07
1.85298e-05
-1.79941e-07
1.84445e-05
-1.83067e-07
1.83578e-05
-1.79547e-07
1.8273e-05
-1.6555e-07
1.81954e-05
-1.36215e-07
1.81326e-05
-8.28156e-08
1.8098e-05
-3.84355e-09
1.27623e-07
1.81133e-05
1.92522e-05
-8.09378e-09
1.92544e-05
-1.23625e-08
1.92541e-05
-1.37385e-08
1.92522e-05
-1.57362e-08
1.92485e-05
-1.82245e-08
1.92425e-05
-2.0937e-08
1.9234e-05
-2.39019e-08
1.92225e-05
-2.71547e-08
1.92077e-05
-3.06834e-08
1.91893e-05
-3.44638e-08
1.9167e-05
-3.84789e-08
1.91404e-05
-4.27189e-08
1.91092e-05
-4.71809e-08
1.90734e-05
-5.18723e-08
1.90326e-05
-5.68097e-08
1.89868e-05
-6.20107e-08
1.8936e-05
-6.74797e-08
1.88801e-05
-7.31766e-08
1.88188e-05
-7.89691e-08
1.87518e-05
-8.46457e-08
1.8679e-05
-8.9973e-08
1.86009e-05
-9.46164e-08
1.85189e-05
-9.79196e-08
1.84347e-05
-9.87976e-08
1.83508e-05
-9.57312e-08
1.82718e-05
-8.65241e-08
1.8204e-05
-6.84351e-08
1.81572e-05
-3.60296e-08
1.81437e-05
9.67814e-09
9.85064e-08
1.81728e-05
1.924e-05
1.92277e-05
1.92139e-05
1.91982e-05
1.918e-05
1.9159e-05
1.91351e-05
1.9108e-05
1.90773e-05
1.90428e-05
1.90044e-05
1.89616e-05
1.89145e-05
1.88626e-05
1.88058e-05
1.87438e-05
1.86763e-05
1.86031e-05
1.85241e-05
1.84395e-05
1.83495e-05
1.82549e-05
1.8157e-05
1.80582e-05
1.79625e-05
1.78759e-05
1.78075e-05
1.77715e-05
1.77811e-05
1.78797e-05
2.17441e-05
-1.02917e-05
1.07522e-05
2.12878e-05
-1.04065e-05
1.08628e-05
2.08086e-05
-1.05175e-05
1.09967e-05
2.03028e-05
-1.06198e-05
1.11255e-05
1.97749e-05
-1.072e-05
1.12479e-05
1.92296e-05
-1.08215e-05
1.13669e-05
1.867e-05
-1.09249e-05
1.14845e-05
1.80988e-05
-1.10311e-05
1.16023e-05
1.75176e-05
-1.11412e-05
1.17224e-05
1.69273e-05
-1.1256e-05
1.18463e-05
1.63279e-05
-1.1376e-05
1.19754e-05
1.57189e-05
-1.15014e-05
1.21104e-05
1.50998e-05
-1.1633e-05
1.22521e-05
1.44699e-05
-1.17714e-05
1.24014e-05
1.38283e-05
-1.19179e-05
1.25595e-05
1.31743e-05
-1.20738e-05
1.27279e-05
1.25065e-05
-1.22408e-05
1.29085e-05
1.18235e-05
-1.24207e-05
1.31037e-05
1.11232e-05
-1.2616e-05
1.33163e-05
1.04028e-05
-1.28294e-05
1.35498e-05
9.65875e-06
-1.30644e-05
1.38085e-05
8.88619e-06
-1.33252e-05
1.40978e-05
8.07867e-06
-1.36172e-05
1.44247e-05
7.2273e-06
-1.39472e-05
1.47986e-05
6.31941e-06
-1.43224e-05
1.52303e-05
5.33679e-06
-1.47541e-05
1.57367e-05
4.26162e-06
-1.5249e-05
1.63242e-05
3.01879e-06
-1.58344e-05
1.70772e-05
1.68789e-06
-1.64242e-05
1.77551e-05
-1.74306e-05
1.91185e-05
2.18799e-05
-9.8171e-06
2.13758e-05
-9.90246e-06
2.08486e-05
-9.99032e-06
2.03066e-05
-1.00777e-05
1.97537e-05
-1.01671e-05
1.91921e-05
-1.02599e-05
1.86231e-05
-1.0356e-05
1.80473e-05
-1.04553e-05
1.74644e-05
-1.05583e-05
1.68735e-05
-1.06652e-05
1.62739e-05
-1.07763e-05
1.56646e-05
-1.08922e-05
1.50451e-05
-1.10134e-05
1.44147e-05
-1.1141e-05
1.37726e-05
-1.12759e-05
1.3118e-05
-1.14192e-05
1.24495e-05
-1.15723e-05
1.17654e-05
-1.17366e-05
1.10634e-05
-1.1914e-05
1.03407e-05
-1.21067e-05
9.5937e-06
-1.23173e-05
8.81741e-06
-1.25489e-05
8.00543e-06
-1.28052e-05
7.14904e-06
-1.30908e-05
6.23634e-06
-1.34097e-05
5.2515e-06
-1.37693e-05
4.17174e-06
-1.41692e-05
2.9619e-06
-1.46245e-05
1.6241e-06
-1.50864e-05
-1.58065e-05
2.17857e-05
-9.30552e-06
2.12615e-05
-9.37828e-06
2.07262e-05
-9.45494e-06
2.01837e-05
-9.53524e-06
1.96351e-05
-9.61858e-06
1.90799e-05
-9.70463e-06
1.85172e-05
-9.79325e-06
1.79464e-05
-9.88453e-06
1.73669e-05
-9.97881e-06
1.67783e-05
-1.00765e-05
1.61801e-05
-1.01781e-05
1.5572e-05
-1.02841e-05
1.49538e-05
-1.03952e-05
1.43248e-05
-1.0512e-05
1.36841e-05
-1.06352e-05
1.30307e-05
-1.07658e-05
1.23632e-05
-1.09047e-05
1.16795e-05
-1.1053e-05
1.09776e-05
-1.12121e-05
1.02544e-05
-1.13836e-05
9.50622e-06
-1.15692e-05
8.72829e-06
-1.1771e-05
7.91427e-06
-1.19912e-05
7.05578e-06
-1.22323e-05
6.14176e-06
-1.24957e-05
5.15749e-06
-1.2785e-05
4.08243e-06
-1.30942e-05
2.89249e-06
-1.34346e-05
1.56101e-06
-1.37549e-05
-1.42455e-05
2.16883e-05
-8.78636e-06
2.11612e-05
-8.85113e-06
2.06257e-05
-8.91948e-06
2.00831e-05
-8.99262e-06
1.95334e-05
-9.06888e-06
1.8976e-05
-9.14718e-06
1.84103e-05
-9.2276e-06
1.78363e-05
-9.31058e-06
1.72541e-05
-9.39651e-06
1.66633e-05
-9.48572e-06
1.60637e-05
-9.57853e-06
1.54549e-05
-9.67531e-06
1.48362e-05
-9.77651e-06
1.42068e-05
-9.88259e-06
1.35657e-05
-9.99411e-06
1.29116e-05
-1.01117e-05
1.2243e-05
-1.02361e-05
1.1558e-05
-1.0368e-05
1.08544e-05
-1.05085e-05
1.01292e-05
-1.06584e-05
9.37883e-06
-1.08188e-05
8.59854e-06
-1.09907e-05
7.7823e-06
-1.1175e-05
6.92232e-06
-1.13723e-05
6.00856e-06
-1.15819e-05
5.02779e-06
-1.18042e-05
3.96295e-06
-1.20293e-05
2.79415e-06
-1.22658e-05
1.48926e-06
-1.24501e-05
-1.27563e-05
2.15536e-05
-8.26108e-06
2.10215e-05
-8.31897e-06
2.04819e-05
-8.37994e-06
1.99355e-05
-8.44622e-06
1.93824e-05
-8.5157e-06
1.88221e-05
-8.5869e-06
1.82544e-05
-8.65995e-06
1.76793e-05
-8.73541e-06
1.70963e-05
-8.81359e-06
1.65053e-05
-8.89463e-06
1.59055e-05
-8.97875e-06
1.52964e-05
-9.06621e-06
1.46772e-05
-9.15735e-06
1.40471e-05
-9.25251e-06
1.34051e-05
-9.35209e-06
1.27499e-05
-9.45651e-06
1.20801e-05
-9.56621e-06
1.13937e-05
-9.68166e-06
1.06886e-05
-9.80332e-06
9.96182e-06
-9.93161e-06
9.20986e-06
-1.00668e-05
8.4283e-06
-1.02092e-05
7.61154e-06
-1.03582e-05
6.75249e-06
-1.05133e-05
5.84231e-06
-1.06718e-05
4.86948e-06
-1.08314e-05
3.82017e-06
-1.098e-05
2.67684e-06
-1.11225e-05
1.41243e-06
-1.11856e-05
-1.13438e-05
2.13815e-05
-7.73098e-06
2.08453e-05
-7.78277e-06
2.03025e-05
-7.83711e-06
1.97532e-05
-7.89702e-06
1.91976e-05
-7.9601e-06
1.86353e-05
-8.02457e-06
1.80659e-05
-8.09053e-06
1.74891e-05
-8.15859e-06
1.69045e-05
-8.22902e-06
1.63117e-05
-8.30187e-06
1.57103e-05
-8.37727e-06
1.50995e-05
-8.45541e-06
1.44786e-05
-8.53652e-06
1.38469e-05
-8.6208e-06
1.32033e-05
-8.70847e-06
1.25465e-05
-8.79972e-06
1.1875e-05
-8.89476e-06
1.11871e-05
-8.99372e-06
1.04804e-05
-9.09667e-06
9.75239e-06
-9.20355e-06
8.99962e-06
-9.31407e-06
8.21805e-06
-9.42758e-06
7.40265e-06
-9.54284e-06
6.5472e-06
-9.65783e-06
5.64411e-06
-9.76867e-06
4.68373e-06
-9.87103e-06
3.65511e-06
-9.95142e-06
2.54332e-06
-1.00107e-05
1.32893e-06
-9.97126e-06
-1.00149e-05
2.11673e-05
-7.19639e-06
2.06272e-05
-7.24261e-06
2.00809e-05
-7.29082e-06
1.95285e-05
-7.34465e-06
1.897e-05
-7.40156e-06
1.84049e-05
-7.45951e-06
1.7833e-05
-7.51859e-06
1.72538e-05
-7.57944e-06
1.66671e-05
-7.64227e-06
1.60723e-05
-7.70708e-06
1.54689e-05
-7.77391e-06
1.48564e-05
-7.84285e-06
1.42339e-05
-7.91401e-06
1.36005e-05
-7.98747e-06
1.29554e-05
-8.06329e-06
1.22971e-05
-8.14147e-06
1.16243e-05
-8.22197e-06
1.09353e-05
-8.30468e-06
1.02279e-05
-8.3893e-06
9.49972e-06
-8.47537e-06
8.74771e-06
-8.56206e-06
7.96825e-06
-8.64812e-06
7.15696e-06
-8.73154e-06
6.30854e-06
-8.80941e-06
5.41675e-06
-8.87688e-06
4.47385e-06
-8.92812e-06
3.47157e-06
-8.94913e-06
2.39808e-06
-8.93718e-06
1.24221e-06
-8.81539e-06
-8.7727e-06
2.09069e-05
-6.65747e-06
2.03628e-05
-6.69856e-06
1.98131e-05
-6.74107e-06
1.92575e-05
-6.78909e-06
1.8696e-05
-6.84001e-06
1.81281e-05
-6.89166e-06
1.75536e-05
-6.94408e-06
1.69721e-05
-6.99789e-06
1.63831e-05
-7.0533e-06
1.57862e-05
-7.11021e-06
1.51809e-05
-7.16859e-06
1.45665e-05
-7.22845e-06
1.39423e-05
-7.2898e-06
1.33074e-05
-7.35261e-06
1.26609e-05
-7.41679e-06
1.20016e-05
-7.48218e-06
1.13282e-05
-7.54855e-06
1.06391e-05
-7.61552e-06
9.93228e-06
-7.68253e-06
9.20566e-06
-7.74875e-06
8.45656e-06
-7.81297e-06
7.68188e-06
-7.87343e-06
6.87794e-06
-7.92761e-06
6.04047e-06
-7.97194e-06
5.16455e-06
-8.00097e-06
4.24433e-06
-8.0079e-06
3.27409e-06
-7.97889e-06
2.24526e-06
-7.90836e-06
1.15411e-06
-7.72424e-06
-7.61859e-06
2.05966e-05
-6.11438e-06
2.00488e-05
-6.15074e-06
1.94957e-05
-6.18796e-06
1.8937e-05
-6.23041e-06
1.83725e-05
-6.27552e-06
1.78019e-05
-6.32106e-06
1.72248e-05
-6.36702e-06
1.6641e-05
-6.414e-06
1.60498e-05
-6.46217e-06
1.5451e-05
-6.51139e-06
1.4844e-05
-6.56154e-06
1.42281e-05
-6.61256e-06
1.36027e-05
-6.6644e-06
1.2967e-05
-6.7169e-06
1.232e-05
-6.76985e-06
1.16608e-05
-6.82296e-06
1.09881e-05
-6.87582e-06
1.03004e-05
-6.92786e-06
9.59619e-06
-6.9783e-06
8.87347e-06
-7.02603e-06
8.13005e-06
-7.06955e-06
7.36338e-06
-7.10677e-06
6.57058e-06
-7.13481e-06
5.74834e-06
-7.1497e-06
4.89309e-06
-7.14572e-06
4.00076e-06
-7.11558e-06
3.06794e-06
-7.04606e-06
2.08919e-06
-6.92961e-06
1.06661e-06
-6.70166e-06
-6.55198e-06
2.02347e-05
-5.56742e-06
1.96834e-05
-5.59943e-06
1.91272e-05
-5.63177e-06
1.85657e-05
-5.6689e-06
1.79986e-05
-5.70838e-06
1.74256e-05
-5.74804e-06
1.68464e-05
-5.78779e-06
1.62606e-05
-5.82821e-06
1.56678e-05
-5.86943e-06
1.50677e-05
-5.91125e-06
1.44596e-05
-5.9535e-06
1.38432e-05
-5.99608e-06
1.32176e-05
-6.03882e-06
1.25822e-05
-6.08152e-06
1.19362e-05
-6.12384e-06
1.12786e-05
-6.1654e-06
1.06085e-05
-6.20564e-06
9.92443e-06
-6.24385e-06
9.2252e-06
-6.27907e-06
8.50919e-06
-6.31002e-06