/*--------------------------------*- C++ -*----------------------------------*\
  =========                 |
  \\      /  F ield         | OpenFOAM: The Open Source CFD Toolbox
   \\    /   O peration     | Website:  https://openfoam.org
    \\  /    A nd           | Version:  11
     \\/     M anipulation  |
\*---------------------------------------------------------------------------*/
FoamFile
{
    format      ascii;
    class       surfaceScalarField;
    location    "5.2";
    object      phi;
}
// * * * * * * * * * * * * * * * * * * * * * * * * * * * * * * * * * * * * * //

dimensions      [0 3 -1 0 0 0 0];

internalField   nonuniform List<scalar> 
24840
(
1.532e-05
1.33129e-08
1.53024e-05
1.76104e-08
1.52865e-05
1.59512e-08
1.52715e-05
1.49951e-08
1.52572e-05
1.42913e-08
1.52439e-05
1.33155e-08
1.52319e-05
1.19664e-08
1.52215e-05
1.04047e-08
1.5213e-05
8.45331e-09
1.52069e-05
6.10807e-09
1.52036e-05
3.33912e-09
1.52036e-05
-2.73636e-13
1.52077e-05
-4.10043e-09
1.52168e-05
-9.16236e-09
1.52322e-05
-1.53452e-08
1.52552e-05
-2.29635e-08
1.52874e-05
-3.22286e-08
1.53315e-05
-4.41373e-08
1.53897e-05
-5.81337e-08
1.54642e-05
-7.44994e-08
1.55598e-05
-9.56006e-08
1.56816e-05
-1.21889e-07
1.58357e-05
-1.54026e-07
1.6029e-05
-1.93337e-07
1.62702e-05
-2.41193e-07
1.65692e-05
-2.99018e-07
1.69392e-05
-3.69969e-07
1.73891e-05
-4.49864e-07
1.79596e-05
-5.70508e-07
-5.73371e-07
1.85329e-05
1.53393e-05
7.30955e-09
1.53436e-05
1.33515e-08
1.53477e-05
1.18193e-08
1.53521e-05
1.0576e-08
1.53572e-05
9.25445e-09
1.53632e-05
7.31916e-09
1.53704e-05
4.73487e-09
1.53791e-05
1.72837e-09
1.53895e-05
-2.00721e-09
1.54021e-05
-6.42598e-09
1.54171e-05
-1.16763e-08
1.54351e-05
-1.79739e-08
1.54566e-05
-2.55918e-08
1.54822e-05
-3.48107e-08
1.55129e-05
-4.60087e-08
1.55495e-05
-5.9553e-08
1.55935e-05
-7.62993e-08
1.56456e-05
-9.62455e-08
1.57093e-05
-1.21768e-07
1.57898e-05
-1.55054e-07
1.58896e-05
-1.9534e-07
1.60117e-05
-2.44006e-07
1.61612e-05
-3.03536e-07
1.63444e-05
-3.76589e-07
1.65693e-05
-4.65997e-07
1.68452e-05
-5.74931e-07
1.71836e-05
-7.08388e-07
1.75981e-05
-8.64335e-07
1.81058e-05
-1.07829e-06
-1.19573e-06
1.87282e-05
1.53362e-05
4.4081e-09
1.53401e-05
9.45793e-09
1.53433e-05
8.64917e-09
1.53471e-05
6.72939e-09
1.53517e-05
4.66285e-09
1.53573e-05
1.77475e-09
1.53639e-05
-1.88806e-09
1.5372e-05
-6.39997e-09
1.53819e-05
-1.18263e-08
1.53937e-05
-1.82824e-08
1.5408e-05
-2.59701e-08
1.54252e-05
-3.51787e-08
1.54459e-05
-4.6276e-08
1.54708e-05
-5.96975e-08
1.55008e-05
-7.59985e-08
1.55371e-05
-9.58467e-08
1.5581e-05
-1.20234e-07
1.56348e-05
-1.50039e-07
1.57002e-05
-1.87205e-07
1.57792e-05
-2.34069e-07
1.58756e-05
-2.91715e-07
1.59936e-05
-3.62039e-07
1.61384e-05
-4.48264e-07
1.6316e-05
-5.54197e-07
1.65342e-05
-6.84181e-07
1.68023e-05
-8.43048e-07
1.71321e-05
-1.03821e-06
1.75369e-05
-1.26916e-06
1.80348e-05
-1.57613e-06
-1.81546e-06
1.86545e-05
1.53351e-05
2.67123e-09
1.53384e-05
6.10618e-09
1.53415e-05
5.53378e-09
1.53451e-05
3.18582e-09
1.53494e-05
3.49469e-10
1.53547e-05
-3.54205e-09
1.53611e-05
-8.31499e-09
1.5369e-05
-1.42366e-08
1.53785e-05
-2.13258e-08
1.539e-05
-2.976e-08
1.54038e-05
-3.98007e-08
1.54204e-05
-5.1816e-08
1.54404e-05
-6.62785e-08
1.54645e-05
-8.37666e-08
1.54935e-05
-1.0501e-07
1.55286e-05
-1.30922e-07
1.55711e-05
-1.62709e-07
1.56228e-05
-2.01764e-07
1.56857e-05
-2.50141e-07
1.57621e-05
-3.10413e-07
1.58551e-05
-3.8477e-07
1.5969e-05
-4.75932e-07
1.61086e-05
-5.87899e-07
1.628e-05
-7.25577e-07
1.64906e-05
-8.94772e-07
1.67496e-05
-1.10206e-06
1.70685e-05
-1.35705e-06
1.74614e-05
-1.66212e-06
1.79439e-05
-2.05855e-06
-2.42228e-06
1.85507e-05
1.53345e-05
1.54585e-09
1.53371e-05
3.48761e-09
1.53399e-05
2.691e-09
1.53432e-05
-1.08328e-10
1.53474e-05
-3.82327e-09
1.53524e-05
-8.60302e-09
1.53586e-05
-1.45123e-08
1.53662e-05
-2.1756e-08
1.53753e-05
-3.04357e-08
1.53863e-05
-4.07593e-08
1.53995e-05
-5.30451e-08
1.54154e-05
-6.77386e-08
1.54346e-05
-8.54122e-08
1.54576e-05
-1.06777e-07
1.54853e-05
-1.32729e-07
1.55188e-05
-1.64399e-07
1.55593e-05
-2.03236e-07
1.56086e-05
-2.51008e-07
1.56684e-05
-3.10032e-07
1.57412e-05
-3.83174e-07
1.58299e-05
-4.73432e-07
1.59383e-05
-5.8439e-07
1.60713e-05
-7.20845e-07
1.62345e-05
-8.88761e-07
1.6435e-05
-1.09535e-06
1.66819e-05
-1.34896e-06
1.69861e-05
-1.66125e-06
1.73622e-05
-2.03817e-06
1.78241e-05
-2.52052e-06
-3.00665e-06
1.84085e-05
1.53341e-05
7.54095e-10
1.53362e-05
1.40175e-09
1.53389e-05
4.58981e-11
1.5342e-05
-3.22769e-09
1.53459e-05
-7.73347e-09
1.53507e-05
-1.3403e-08
1.53566e-05
-2.03878e-08
1.53637e-05
-2.88857e-08
1.53723e-05
-3.90658e-08
1.53827e-05
-5.117e-08
1.53953e-05
-6.55693e-08
1.54103e-05
-8.27816e-08
1.54284e-05
-1.03474e-07
1.54501e-05
-1.28481e-07
1.54762e-05
-1.58856e-07
1.55077e-05
-1.95927e-07
1.55459e-05
-2.41374e-07
1.55921e-05
-2.97279e-07
1.56484e-05
-3.66257e-07
1.57167e-05
-4.51514e-07
1.58e-05
-5.56701e-07
1.59018e-05
-6.86196e-07
1.60265e-05
-8.45592e-07
1.61796e-05
-1.04186e-06
1.63678e-05
-1.28355e-06
1.65996e-05
-1.58076e-06
1.68855e-05
-1.94715e-06
1.72398e-05
-2.39248e-06
1.76759e-05
-2.95663e-06
-3.56221e-06
1.82315e-05
1.53339e-05
1.41822e-10
1.53357e-05
-3.0612e-10
1.5338e-05
-2.334e-09
1.53409e-05
-6.13709e-09
1.53446e-05
-1.13521e-08
1.5349e-05
-1.78834e-08
1.53545e-05
-2.58836e-08
1.53612e-05
-3.55642e-08
1.53693e-05
-4.71404e-08
1.5379e-05
-6.08962e-08
1.53907e-05
-7.72535e-08
1.54047e-05
-9.67973e-08
1.54215e-05
-1.20283e-07
1.54417e-05
-1.48659e-07
1.5466e-05
-1.8312e-07
1.54952e-05
-2.25175e-07
1.55306e-05
-2.76718e-07
1.55734e-05
-3.40102e-07
1.56254e-05
-4.18241e-07
1.56885e-05
-5.14691e-07
1.57655e-05
-6.33657e-07
1.58595e-05
-7.80213e-07
1.59746e-05
-9.60719e-07
1.61159e-05
-1.1831e-06
1.62895e-05
-1.45715e-06
1.65034e-05
-1.79464e-06
1.67674e-05
-2.2112e-06
1.70953e-05
-2.72042e-06
1.75e-05
-3.3613e-06
-4.08204e-06
1.80198e-05
1.53338e-05
-3.71207e-10
1.53353e-05
-1.71269e-09
1.53374e-05
-4.44483e-09
1.534e-05
-8.81284e-09
1.53434e-05
-1.46901e-08
1.53475e-05
-2.20271e-08
1.53526e-05
-3.0969e-08
1.53588e-05
-4.17397e-08
1.53662e-05
-5.45916e-08
1.53752e-05
-6.98516e-08
1.53859e-05
-8.79899e-08
1.53988e-05
-1.09652e-07
1.54142e-05
-1.35674e-07
1.54326e-05
-1.67106e-07
1.54548e-05
-2.05273e-07
1.54814e-05
-2.5184e-07
1.55136e-05
-3.08898e-07
1.55526e-05
-3.79036e-07
1.55998e-05
-4.65447e-07
1.56571e-05
-5.72022e-07
1.57269e-05
-7.03439e-07
1.5812e-05
-8.65379e-07
1.59162e-05
-1.06491e-06
1.60439e-05
-1.31081e-06
1.62008e-05
-1.61404e-06
1.63941e-05
-1.98793e-06
1.66329e-05
-2.44994e-06
1.693e-05
-3.01751e-06
1.72975e-05
-3.72883e-06
-4.55852e-06
1.7774e-05
1.53338e-05
-7.96732e-10
1.53349e-05
-2.89804e-09
1.53368e-05
-6.30612e-09
1.53392e-05
-1.12463e-08
1.53423e-05
-1.77414e-08
1.53461e-05
-2.58106e-08
1.53507e-05
-3.5604e-08
1.53563e-05
-4.73556e-08
1.53631e-05
-6.13483e-08
1.53712e-05
-7.79493e-08
1.53809e-05
-9.7673e-08
1.53924e-05
-1.21219e-07
1.54062e-05
-1.49494e-07
1.54228e-05
-1.83638e-07
1.54426e-05
-2.25089e-07
1.54664e-05
-2.7565e-07
1.54951e-05
-3.37581e-07
1.55297e-05
-4.1368e-07
1.55717e-05
-5.07386e-07
1.56225e-05
-6.22893e-07
1.56844e-05
-7.65281e-07
1.57598e-05
-9.40747e-07
1.58518e-05
-1.15697e-06
1.59645e-05
-1.42351e-06
1.61028e-05
-1.75234e-06
1.62731e-05
-2.15816e-06
1.64833e-05
-2.66019e-06
1.67452e-05
-3.27944e-06
1.70699e-05
-4.05351e-06
-4.98353e-06
1.74949e-05
1.53337e-05
-1.14571e-09
1.53347e-05
-3.9188e-09
1.53363e-05
-7.94434e-09
1.53385e-05
-1.34317e-08
1.53413e-05
-2.04913e-08
1.53447e-05
-2.92102e-08
1.53488e-05
-3.97543e-08
1.53538e-05
-5.23671e-08
1.53598e-05
-6.73547e-08
1.5367e-05
-8.51194e-08
1.53756e-05
-1.06215e-07
1.53857e-05
-1.3139e-07
1.53978e-05
-1.61609e-07
1.54123e-05
-1.98092e-07
1.54296e-05
-2.42369e-07
1.54503e-05
-2.96363e-07
1.54752e-05
-3.62476e-07
1.55052e-05
-4.43681e-07
1.55414e-05
-5.43629e-07
1.55853e-05
-6.66771e-07
1.56385e-05
-8.18518e-07
1.57033e-05
-1.00549e-06
1.57822e-05
-1.23589e-06
1.58786e-05
-1.5199e-06
1.59966e-05
-1.87035e-06
1.61416e-05
-2.30315e-06
1.63204e-05
-2.839e-06
1.65432e-05
-3.50221e-06
1.68195e-05
-4.32982e-06
-5.3487e-06
1.71846e-05
1.53336e-05
-1.43911e-09
1.53345e-05
-4.80083e-09
1.53359e-05
-9.37663e-09
1.53379e-05
-1.53658e-08
1.53403e-05
-2.29292e-08
1.53433e-05
-3.22093e-08
1.5347e-05
-4.3394e-08
1.53513e-05
-5.67364e-08
1.53565e-05
-7.25611e-08
1.53627e-05
-9.12993e-08
1.537e-05
-1.1354e-07
1.53787e-05
-1.4007e-07
1.5389e-05
-1.71905e-07
1.54012e-05
-2.10327e-07
1.54158e-05
-2.56944e-07
1.54332e-05
-3.13774e-07
1.54541e-05
-3.83334e-07
1.54791e-05
-4.6874e-07
1.55093e-05
-5.73811e-07
1.55458e-05
-7.03204e-07
1.55898e-05
-8.62592e-07
1.56433e-05
-1.05892e-06
1.57082e-05
-1.30078e-06
1.57871e-05
-1.59887e-06
1.58834e-05
-1.96667e-06
1.60013e-05
-2.42102e-06
1.61462e-05
-2.98385e-06
1.63262e-05
-3.68223e-06
1.6549e-05
-4.55267e-06
-5.64583e-06
1.68462e-05
1.53336e-05
-1.68961e-09
1.53343e-05
-5.56075e-09
1.53356e-05
-1.06188e-08
1.53373e-05
-1.70515e-08
1.53394e-05
-2.50485e-08
1.5342e-05
-3.47948e-08
1.53451e-05
-4.65017e-08
1.53488e-05
-6.04329e-08
1.53531e-05
-7.69271e-08
1.53583e-05
-9.64382e-08
1.53643e-05
-1.19583e-07
1.53714e-05
-1.47181e-07
1.53798e-05
-1.80286e-07
1.53897e-05
-2.20228e-07
1.54015e-05
-2.68674e-07
1.54154e-05
-3.27715e-07
1.5432e-05
-3.99955e-07
1.54519e-05
-4.88615e-07
1.54757e-05
-5.97638e-07
1.55043e-05
-7.31833e-07
1.55388e-05
-8.97056e-07
1.55804e-05
-1.10048e-06
1.56306e-05
-1.35097e-06
1.56912e-05
-1.65956e-06
1.57648e-05
-2.04018e-06
1.5854e-05
-2.51029e-06
1.59629e-05
-3.09269e-06
1.60972e-05
-3.81655e-06
1.62622e-05
-4.71765e-06
-5.86744e-06
1.64838e-05
1.53335e-05
-1.90442e-09
1.53342e-05
-6.21263e-09
1.53353e-05
-1.16846e-08
1.53367e-05
-1.84937e-08
1.53385e-05
-2.68458e-08
1.53407e-05
-3.69574e-08
1.53432e-05
-4.90621e-08
1.53462e-05
-6.3434e-08
1.53497e-05
-8.04222e-08
1.53538e-05
-1.00497e-07
1.53585e-05
-1.24297e-07
1.5364e-05
-1.52664e-07
1.53704e-05
-1.8668e-07
1.53779e-05
-2.27707e-07
1.53866e-05
-2.77454e-07
1.5397e-05
-3.38059e-07
1.54092e-05
-4.12185e-07
1.54237e-05
-5.0312e-07
1.5441e-05
-6.14887e-07
1.54615e-05
-7.52386e-07
1.5486e-05
-9.21582e-07
1.55153e-05
-1.12977e-06
1.55503e-05
-1.38597e-06
1.55921e-05
-1.70136e-06
1.5642e-05
-2.09009e-06
1.57017e-05
-2.56993e-06
1.5773e-05
-3.16404e-06
1.58594e-05
-3.90296e-06
1.59632e-05
-4.82137e-06
-6.0073e-06
1.6103e-05
1.53335e-05
-2.08838e-09
1.53341e-05
-6.76835e-09
1.5335e-05
-1.25865e-08
1.53362e-05
-1.96995e-08
1.53377e-05
-2.83215e-08
1.53394e-05
-3.86927e-08
1.53414e-05
-5.1066e-08
1.53437e-05
-6.57248e-08
1.53463e-05
-8.30253e-08
1.53492e-05
-1.03448e-07
1.53526e-05
-1.27646e-07
1.53564e-05
-1.56475e-07
1.53608e-05
-1.91034e-07
1.53658e-05
-2.32701e-07
1.53715e-05
-2.83208e-07
1.53782e-05
-3.44718e-07
1.53859e-05
-4.1992e-07
1.53949e-05
-5.12134e-07
1.54054e-05
-6.25414e-07
1.54177e-05
-7.64692e-07
1.54321e-05
-9.35966e-07
1.54489e-05
-1.14656e-06
1.54684e-05
-1.40548e-06
1.5491e-05
-1.72392e-06
1.55169e-05
-2.11598e-06
1.55463e-05
-2.59936e-06
1.55794e-05
-3.19712e-06
1.56167e-05
-3.94024e-06
1.5657e-05
-4.86172e-06
-6.06114e-06
1.57108e-05
1.53335e-05
-2.24539e-09
1.5334e-05
-7.23852e-09
1.53347e-05
-1.33366e-08
1.53357e-05
-2.06779e-08
1.53368e-05
-2.94798e-08
1.53382e-05
-4.00005e-08
1.53396e-05
-5.25098e-08
1.53412e-05
-6.72983e-08
1.53429e-05
-8.47251e-08
1.53447e-05
-1.05277e-07
1.53467e-05
-1.29611e-07
1.53488e-05
-1.58592e-07
1.53511e-05
-1.93319e-07
1.53535e-05
-2.35177e-07
1.53562e-05
-2.85897e-07
1.53592e-05
-3.47644e-07
1.53623e-05
-4.23106e-07
1.53658e-05
-5.15594e-07
1.53695e-05
-6.29148e-07
1.53735e-05
-7.68675e-07
1.53777e-05
-9.40125e-07
1.53819e-05
-1.15075e-06
1.53858e-05
-1.40944e-06
1.53891e-05
-1.72718e-06
1.53909e-05
-2.11778e-06
1.53901e-05
-2.59856e-06
1.53848e-05
-3.19185e-06
1.53728e-05
-3.92818e-06
1.53492e-05
-4.83817e-06
-6.02714e-06
1.53152e-05
1.53335e-05
-2.37907e-09
1.53339e-05
-7.63353e-09
1.53345e-05
-1.39481e-08
1.53352e-05
-2.14404e-08
1.53361e-05
-3.03281e-08
1.5337e-05
-4.08855e-08
1.53379e-05
-5.33962e-08
1.53387e-05
-6.8155e-08
1.53395e-05
-8.55204e-08
1.53402e-05
-1.05979e-07
1.53408e-05
-1.30188e-07
1.53412e-05
-1.59007e-07
1.53414e-05
-1.9353e-07
1.53414e-05
-2.35127e-07
1.5341e-05
-2.85514e-07
1.53402e-05
-3.46832e-07
1.53388e-05
-4.21739e-07
1.53367e-05
-5.13501e-07
1.53337e-05
-6.261e-07
1.53293e-05
-7.64355e-07
1.53233e-05
-9.34101e-07
1.5315e-05
-1.14242e-06
1.53035e-05
-1.39795e-06
1.52877e-05
-1.71134e-06
1.52657e-05
-2.09584e-06
1.52351e-05
-2.56799e-06
1.51922e-05
-3.14894e-06
1.51318e-05
-3.86775e-06
1.50455e-05
-4.75191e-06
-5.90642e-06
1.49248e-05
1.53334e-05
-2.49327e-09
1.53338e-05
-7.96459e-09
1.53343e-05
-1.44357e-08
1.53348e-05
-2.20007e-08
1.53354e-05
-3.08776e-08
1.53358e-05
-4.13567e-08
1.53362e-05
-5.37339e-08
1.53363e-05
-6.83035e-08
1.53362e-05
-8.54193e-08
1.53358e-05
-1.05563e-07
1.5335e-05
-1.29386e-07
1.53337e-05
-1.57734e-07
1.53319e-05
-1.91681e-07
1.53293e-05
-2.3257e-07
1.53259e-05
-2.82084e-07
1.53214e-05
-3.42317e-07
1.53155e-05
-4.15866e-07
1.53079e-05
-5.05919e-07
1.52982e-05
-6.16352e-07
1.52857e-05
-7.51847e-07
1.52696e-05
-9.18053e-07
1.5249e-05
-1.12179e-06
1.52224e-05
-1.37136e-06
1.51879e-05
-1.67686e-06
1.51429e-05
-2.05081e-06
1.50836e-05
-2.50866e-06
1.50045e-05
-3.06984e-06
1.48978e-05
-3.76105e-06
1.47518e-05
-4.60594e-06
-5.70325e-06
1.45486e-05
1.53334e-05
-2.59238e-09
1.53337e-05
-8.24472e-09
1.53341e-05
-1.48166e-08
1.53345e-05
-2.23755e-08
1.53347e-05
-3.11425e-08
1.53348e-05
-4.14279e-08
1.53346e-05
-5.35374e-08
1.53341e-05
-6.77597e-08
1.53331e-05
-8.44399e-08
1.53316e-05
-1.04051e-07
1.53294e-05
-1.27231e-07
1.53265e-05
-1.54803e-07
1.53226e-05
-1.8781e-07
1.53176e-05
-2.27555e-07
1.53112e-05
-2.75666e-07
1.5303e-05
-3.34172e-07
1.52928e-05
-4.0558e-07
1.52798e-05
-4.92967e-07
1.52635e-05
-6.00061e-07
1.5243e-05
-7.31358e-07
1.52172e-05
-8.92255e-07
1.51847e-05
-1.08924e-06
1.51435e-05
-1.33016e-06
1.50911e-05
-1.62446e-06
1.5024e-05
-1.98372e-06
1.49374e-05
-2.42203e-06
1.48242e-05
-2.95668e-06
1.46744e-05
-3.61127e-06
1.44735e-05
-4.40498e-06
-5.42501e-06
1.41952e-05
1.53334e-05
-2.68183e-09
1.53337e-05
-8.49008e-09
1.5334e-05
-1.51115e-08
1.53342e-05
-2.25839e-08
1.53342e-05
-3.11402e-08
1.53339e-05
-4.11173e-08
1.53331e-05
-5.28274e-08
1.53319e-05
-6.6547e-08
1.53301e-05
-8.26091e-08
1.53275e-05
-1.01475e-07
1.53241e-05
-1.23762e-07
1.53195e-05
-1.50263e-07
1.53137e-05
-1.81976e-07
1.53063e-05
-2.20153e-07
1.5297e-05
-2.66352e-07
1.52853e-05
-3.2251e-07
1.52708e-05
-3.91024e-07
1.52526e-05
-4.74824e-07
1.523e-05
-5.77455e-07
1.52018e-05
-7.03178e-07
1.51667e-05
-8.57087e-07
1.51227e-05
-1.04527e-06
1.50676e-05
-1.27503e-06
1.49982e-05
-1.55507e-06
1.49103e-05
-1.89587e-06
1.47982e-05
-2.30996e-06
1.46538e-05
-2.81222e-06
1.4465e-05
-3.42251e-06
1.42153e-05
-4.15524e-06
-5.08179e-06
1.38721e-05
1.53334e-05
-2.76867e-09
1.53337e-05
-8.72156e-09
1.53339e-05
-1.53459e-08
1.5334e-05
-2.26482e-08
1.53337e-05
-3.08906e-08
1.5333e-05
-4.04472e-08
1.53318e-05
-5.16298e-08
1.533e-05
-6.46953e-08
1.53273e-05
-7.99629e-08
1.53237e-05
-9.78787e-08
1.5319e-05
-1.19033e-07
1.53129e-05
-1.44177e-07
1.53052e-05
-1.7426e-07
1.52955e-05
-2.10464e-07
1.52834e-05
-2.54261e-07
1.52684e-05
-3.07482e-07
1.52498e-05
-3.72383e-07
1.52267e-05
-4.51722e-07
1.5198e-05
-5.48826e-07
1.51625e-05
-6.67679e-07
1.51185e-05
-8.13025e-07
1.50637e-05
-9.90501e-07
1.49955e-05
-1.20679e-06
1.49102e-05
-1.4698e-06
1.48031e-05
-1.7888e-06
1.46678e-05
-2.17466e-06
1.44952e-05
-2.63965e-06
1.42723e-05
-3.19957e-06
1.39811e-05
-3.86402e-06
-4.68571e-06
1.3585e-05
1.53334e-05
-2.86278e-09
1.53337e-05
-8.9679e-09
1.53339e-05
-1.55489e-08
1.53338e-05
-2.25871e-08
1.53333e-05
-3.04142e-08
1.53323e-05
-3.94486e-08
1.53307e-05
-4.99814e-08
1.53282e-05
-6.22443e-08
1.53248e-05
-7.65458e-08
1.53203e-05
-9.33149e-08
1.53143e-05
-1.13107e-07
1.53068e-05
-1.36628e-07
1.52973e-05
-1.6476e-07
1.52854e-05
-1.98608e-07
1.52707e-05
-2.39543e-07
1.52525e-05
-2.8927e-07
1.523e-05
-3.49885e-07
1.52022e-05
-4.23944e-07
1.51679e-05
-5.14525e-07
1.51255e-05
-6.25303e-07
1.50732e-05
-7.6063e-07
1.50083e-05
-9.25649e-07
1.49279e-05
-1.1264e-06
1.4828e-05
-1.36991e-06
1.47035e-05
-1.66425e-06
1.45473e-05
-2.01854e-06
1.43502e-05
-2.44246e-06
1.40982e-05
-2.94767e-06
1.37735e-05
-3.53927e-06
-4.25005e-06
1.33378e-05
1.53334e-05
-2.97894e-09
1.53337e-05
-9.26821e-09
1.5334e-05
-1.57559e-08
1.53338e-05
-2.24277e-08
1.53331e-05
-2.97412e-08
1.53318e-05
-3.81527e-08
1.53298e-05
-4.79129e-08
1.53267e-05
-5.92314e-08
1.53226e-05
-7.24086e-08
1.53171e-05
-8.78492e-08
1.53101e-05
-1.06067e-07
1.53012e-05
-1.27711e-07
1.529e-05
-1.53595e-07
1.52761e-05
-1.8473e-07
1.5259e-05
-2.22376e-07
1.52378e-05
-2.68093e-07
1.52117e-05
-3.23796e-07
1.51796e-05
-3.91819e-07
1.514e-05
-4.74962e-07
1.50913e-05
-5.76559e-07
1.50312e-05
-7.00542e-07
1.49571e-05
-8.51529e-07
1.48656e-05
-1.03488e-06
1.47524e-05
-1.25677e-06
1.46122e-05
-1.52406e-06
1.44378e-05
-1.84415e-06
1.42196e-05
-2.22426e-06
1.39441e-05
-2.6721e-06
1.35938e-05
-3.18899e-06
-3.78818e-06
1.31319e-05
1.53335e-05
-3.142e-09
1.53339e-05
-9.67579e-09
1.53342e-05
-1.60123e-08
1.53339e-05
-2.22002e-08
1.53331e-05
-2.88941e-08
1.53315e-05
-3.65862e-08
1.53291e-05
-4.54635e-08
1.53255e-05
-5.57071e-08
1.53207e-05
-6.76129e-08
1.53145e-05
-8.15562e-08
1.53064e-05
-9.80017e-08
1.52962e-05
-1.17539e-07
1.52835e-05
-1.409e-07
1.52678e-05
-1.68996e-07
1.52484e-05
-2.02961e-07
1.52245e-05
-2.44196e-07
1.51951e-05
-2.94419e-07
1.5159e-05
-3.55717e-07
1.51146e-05
-4.30592e-07
1.50601e-05
-5.22011e-07
1.4993e-05
-6.33462e-07
1.49105e-05
-7.69016e-07
1.4809e-05
-9.33359e-07
1.4684e-05
-1.13181e-06
1.45301e-05
-1.37012e-06
1.434e-05
-1.65405e-06
1.41043e-05
-1.98861e-06
1.38102e-05
-2.37796e-06
1.34419e-05
-2.82071e-06
-3.31246e-06
1.29662e-05
1.53336e-05
-3.3948e-09
1.53342e-05
-1.02697e-08
1.53345e-05
-1.63583e-08
1.53342e-05
-2.19227e-08
1.53333e-05
-2.79089e-08
1.53315e-05
-3.47913e-08
1.53287e-05
-4.26728e-08
1.53247e-05
-5.17198e-08
1.53193e-05
-6.22229e-08
1.53123e-05
-7.45156e-08
1.53033e-05
-8.90097e-08
1.5292e-05
-1.06231e-07
1.52779e-05
-1.26824e-07
1.52605e-05
-1.51588e-07
1.5239e-05
-1.81521e-07
1.52127e-05
-2.17853e-07
1.51804e-05
-2.62087e-07
1.51407e-05
-3.16048e-07
1.5092e-05
-3.81918e-07
1.50323e-05
-4.62276e-07
1.4959e-05
-5.60147e-07
1.4869e-05
-6.79047e-07
1.47586e-05
-8.22987e-07
1.46233e-05
-9.96493e-07
1.44575e-05
-1.20433e-06
1.42542e-05
-1.45073e-06
1.40044e-05
-1.73881e-06
1.36962e-05
-2.06978e-06
1.33164e-05
-2.4409e-06
-2.83341e-06
1.28374e-05
1.53338e-05
-3.81304e-09
1.53346e-05
-1.11607e-08
1.53351e-05
-1.68222e-08
1.53348e-05
-2.16132e-08
1.53337e-05
-2.68284e-08
1.53317e-05
-3.28158e-08
1.53287e-05
-3.95916e-08
1.53243e-05
-4.73314e-08
1.53184e-05
-5.63166e-08
1.53107e-05
-6.68207e-08
1.53009e-05
-7.9204e-08
1.52886e-05
-9.39265e-08
1.52733e-05
-1.11533e-07
1.52544e-05
-1.32707e-07
1.52312e-05
-1.583e-07
1.52027e-05
-1.89359e-07
1.51677e-05
-2.27161e-07
1.51249e-05
-2.73251e-07
1.50725e-05
-3.29472e-07
1.50082e-05
-3.98003e-07
1.49295e-05
-4.81389e-07
1.4833e-05
-5.82587e-07
1.4715e-05
-7.04937e-07
1.45707e-05
-8.52266e-07
1.43949e-05
-1.02853e-06
1.41807e-05
-1.23651e-06
1.39198e-05
-1.47785e-06
1.36014e-05
-1.75146e-06
1.32156e-05
-2.05505e-06
-2.35928e-06
1.27415e-05
1.53341e-05
-4.53781e-09
1.53354e-05
-1.25174e-08
1.5336e-05
-1.73949e-08
1.53357e-05
-2.12814e-08
1.53345e-05
-2.56868e-08
1.53324e-05
-3.06876e-08
1.53291e-05
-3.62566e-08
1.53243e-05
-4.25968e-08
1.5318e-05
-4.99677e-08
1.53097e-05
-5.85593e-08
1.52992e-05
-6.86993e-08
1.5286e-05
-8.07682e-08
1.52697e-05
-9.52035e-08
1.52496e-05
-1.12569e-07
1.52248e-05
-1.33562e-07
1.51945e-05
-1.59037e-07
1.51574e-05
-1.90033e-07
1.51119e-05
-2.27802e-07
1.50563e-05
-2.73837e-07
1.49882e-05
-3.29897e-07
1.49048e-05
-3.98041e-07
1.48029e-05
-4.80662e-07
1.46784e-05
-5.80425e-07
1.45267e-05
-7.006e-07
1.43428e-05
-8.44587e-07
1.41201e-05
-1.01384e-06
1.38512e-05
-1.20892e-06
1.35267e-05
-1.42695e-06
1.31405e-05
-1.66884e-06
-1.89608e-06
1.26773e-05
1.53346e-05
-5.82167e-09
1.53367e-05
-1.45712e-08
1.53374e-05
-1.80784e-08
1.53371e-05
-2.10101e-08
1.53359e-05
-2.45458e-08
1.53337e-05
-2.84389e-08
1.53301e-05
-3.27125e-08
1.53251e-05
-3.75864e-08
1.53184e-05
-4.32738e-08
1.53097e-05
-4.98305e-08
1.52986e-05
-5.76218e-08
1.52848e-05
-6.69126e-08
1.52676e-05
-7.80278e-08
1.52464e-05
-9.1409e-08
1.52205e-05
-1.07595e-07
1.51887e-05
-1.27241e-07
1.51498e-05
-1.51138e-07
1.51022e-05
-1.80241e-07
1.50441e-05
-2.15681e-07
1.4973e-05
-2.58789e-07
1.48861e-05
-3.11132e-07
1.47799e-05
-3.74545e-07
1.46505e-05
-4.51024e-07
1.44935e-05
-5.43568e-07
1.43043e-05
-6.55347e-07
1.40768e-05
-7.86403e-07
1.38045e-05
-9.3658e-07
1.34787e-05
-1.1012e-06
1.30981e-05
-1.28817e-06
-1.44453e-06
1.26465e-05
1.53357e-05
-8.14213e-09
1.53383e-05
-1.72524e-08
1.53391e-05
-1.88021e-08
1.5339e-05
-2.09391e-08
1.53379e-05
-2.34582e-08
1.53356e-05
-2.61097e-08
1.53319e-05
-2.90162e-08
1.53266e-05
-3.23587e-08
1.53197e-05
-3.63418e-08
1.53106e-05
-4.07616e-08
1.52992e-05
-4.6127e-08
1.52848e-05
-5.25443e-08
1.5267e-05
-6.02319e-08
1.52451e-05
-6.95082e-08
1.52182e-05
-8.0747e-08
1.51854e-05
-9.44018e-08
1.51453e-05
-1.1102e-07
1.50963e-05
-1.31256e-07
1.50365e-05
-1.5589e-07
1.49636e-05
-1.85848e-07
1.48747e-05
-2.22234e-07
1.47665e-05
-2.66336e-07
1.4635e-05
-3.19582e-07
1.44764e-05
-3.84943e-07
1.4286e-05
-4.64932e-07
1.40574e-05
-5.57846e-07
1.3784e-05
-6.63172e-07
1.3458e-05
-7.7523e-07
1.3079e-05
-9.09104e-07
-9.85209e-07
1.26196e-05
1.53393e-05
-1.41409e-08
1.5342e-05
-1.99009e-08
1.53423e-05
-1.91469e-08
1.53416e-05
-2.0178e-08
1.53397e-05
-2.16069e-08
1.53366e-05
-2.29897e-08
1.53321e-05
-2.44788e-08
1.53259e-05
-2.62066e-08
1.53179e-05
-2.83118e-08
1.53077e-05
-3.05628e-08
1.52949e-05
-3.33742e-08
1.52791e-05
-3.67574e-08
1.52597e-05
-4.08274e-08
1.5236e-05
-4.577e-08
1.5207e-05
-5.17972e-08
1.51718e-05
-5.91685e-08
1.5129e-05
-6.81993e-08
1.5077e-05
-7.92697e-08
1.50139e-05
-9.28348e-08
1.49375e-05
-1.0944e-07
1.4845e-05
-1.29727e-07
1.47331e-05
-1.54429e-07
1.45979e-05
-1.84359e-07
1.44324e-05
-2.19418e-07
1.42274e-05
-2.5996e-07
1.3978e-05
-3.08445e-07
1.36799e-05
-3.65024e-07
1.33305e-05
-4.25904e-07
1.29174e-05
-4.96012e-07
-4.60222e-07
1.23925e-05
1.53192e-05
1.52993e-05
1.52801e-05
1.526e-05
1.52384e-05
1.52154e-05
1.51909e-05
1.51647e-05
1.51364e-05
1.51058e-05
1.50724e-05
1.50357e-05
1.49949e-05
1.49491e-05
1.48973e-05
1.48381e-05
1.47699e-05
1.46906e-05
1.45978e-05
1.44884e-05
1.43586e-05
1.42042e-05
1.40199e-05
1.38004e-05
1.35405e-05
1.3232e-05
1.2867e-05
1.24411e-05
1.19451e-05
1.14849e-05
1.82777e-05
-8.5391e-06
8.79433e-06
1.80518e-05
-8.71269e-06
8.93861e-06
1.77891e-05
-8.88767e-06
9.15031e-06
1.74912e-05
-9.05449e-06
9.35244e-06
1.71636e-05
-9.22168e-06
9.54926e-06
1.68126e-05
-9.39406e-06
9.74508e-06
1.64419e-05
-9.57339e-06
9.94403e-06
1.6054e-05
-9.7607e-06
1.01487e-05
1.56499e-05
-9.95693e-06
1.0361e-05
1.52298e-05
-1.01626e-05
1.05827e-05
1.47932e-05
-1.03781e-05
1.08147e-05
1.43389e-05
-1.06036e-05
1.10579e-05
1.38659e-05
-1.08398e-05
1.13128e-05
1.3373e-05
-1.10877e-05
1.15805e-05
1.28593e-05
-1.13486e-05
1.18623e-05
1.23234e-05
-1.16243e-05
1.21601e-05
1.17641e-05
-1.19169e-05
1.24762e-05
1.11796e-05
-1.22291e-05
1.28136e-05
1.05676e-05
-1.25639e-05
1.31759e-05
9.9254e-06
-1.29252e-05
1.35674e-05
9.24925e-06
-1.33177e-05
1.39938e-05
8.53451e-06
-1.37475e-05
1.44622e-05
7.77499e-06
-1.42219e-05
1.49814e-05
6.96268e-06
-1.47505e-05
1.55628e-05
6.08565e-06
-1.53451e-05
1.62221e-05
5.13143e-06
-1.60206e-05
1.69748e-05
4.08223e-06
-1.67973e-05
1.78465e-05
2.85951e-06
-1.77165e-05
1.89392e-05
1.60786e-06
-1.86596e-05
1.99112e-05
-2.02559e-05
2.18638e-05
1.8464e-05
-8.27489e-06
1.81627e-05
-8.41142e-06
1.78318e-05
-8.55674e-06
1.7482e-05
-8.70472e-06
1.71184e-05
-8.85808e-06
1.67433e-05
-9.01889e-06
1.63572e-05
-9.1873e-06
1.59596e-05
-9.36317e-06
1.55493e-05
-9.54664e-06
1.51247e-05
-9.73799e-06
1.46842e-05
-9.93757e-06
1.42265e-05
-1.0146e-05
1.37508e-05
-1.03641e-05
1.32561e-05
-1.0593e-05
1.27415e-05
-1.0834e-05
1.22058e-05
-1.10886e-05
1.16476e-05
-1.13587e-05
1.10649e-05
-1.16464e-05
1.04554e-05
-1.19544e-05
9.81622e-06
-1.2286e-05
9.14369e-06
-1.26452e-05
8.43304e-06
-1.30368e-05
7.67813e-06
-1.3467e-05
6.87092e-06
-1.39433e-05
6.00072e-06
-1.44749e-05
5.05389e-06
-1.50738e-05
4.01048e-06
-1.57539e-05
2.83384e-06
-1.65398e-05
1.55992e-06
-1.73856e-05
-1.8696e-05
1.83434e-05
-7.96374e-06
1.80162e-05
-8.08421e-06
1.76745e-05
-8.21513e-06
1.73231e-05
-8.35332e-06
1.69628e-05
-8.4977e-06
1.6592e-05
-8.64812e-06
1.62093e-05
-8.80457e-06
1.58133e-05
-8.96717e-06
1.54029e-05
-9.13627e-06
1.49773e-05
-9.31239e-06
1.45358e-05
-9.4961e-06
1.40779e-05
-9.68808e-06
1.36029e-05
-9.8891e-06
1.311e-05
-1.01001e-05
1.25981e-05
-1.03221e-05
1.20659e-05
-1.05564e-05
1.15117e-05
-1.08045e-05
1.09336e-05
-1.10683e-05
1.03292e-05
-1.135e-05
9.69544e-06
-1.16523e-05
9.02862e-06
-1.19784e-05
8.32398e-06
-1.23322e-05
7.57538e-06
-1.27184e-05
6.77493e-06
-1.31428e-05
5.91236e-06
-1.36123e-05
4.97415e-06
-1.41356e-05
3.94232e-06
-1.47221e-05
2.78991e-06
-1.53874e-05
1.51592e-06
-1.61117e-05
-1.718e-05
1.82276e-05
-7.6407e-06
1.78943e-05
-7.75092e-06
1.75496e-05
-7.87041e-06
1.71945e-05
-7.9982e-06
1.68288e-05
-8.13203e-06
1.64515e-05
-8.27083e-06
1.60618e-05
-8.41481e-06
1.56591e-05
-8.5645e-06
1.52431e-05
-8.72032e-06
1.48134e-05
-8.88266e-06
1.43693e-05
-9.05199e-06
1.391e-05
-9.22881e-06
1.34347e-05
-9.41377e-06
1.29423e-05
-9.60763e-06
1.24315e-05
-9.8113e-06
1.1901e-05
-1.00259e-05
1.13491e-05
-1.02526e-05
1.07739e-05
-1.04931e-05
1.01729e-05
-1.0749e-05
9.54318e-06
-1.10225e-05
8.88091e-06
-1.13161e-05
8.18142e-06
-1.16327e-05
7.43877e-06
-1.19757e-05
6.64537e-06
-1.23494e-05
5.79147e-06
-1.27584e-05
4.86449e-06
-1.32086e-05
3.84801e-06
-1.37056e-05
2.72036e-06
-1.42598e-05
1.46521e-06
-1.48565e-05
-1.57148e-05
1.80755e-05
-7.30769e-06
1.77335e-05
-7.40886e-06
1.73811e-05
-7.51809e-06
1.70189e-05
-7.63593e-06
1.66465e-05
-7.75971e-06
1.62636e-05
-7.88785e-06
1.58693e-05
-8.02057e-06
1.54633e-05
-8.15851e-06
1.5045e-05
-8.30202e-06
1.46137e-05
-8.45137e-06
1.41687e-05
-8.60691e-06
1.3709e-05
-8.76911e-06
1.32337e-05
-8.93855e-06
1.2742e-05
-9.11587e-06
1.22325e-05
-9.30184e-06
1.1704e-05
-9.49732e-06
1.11547e-05
-9.70333e-06
1.05827e-05
-9.92105e-06
9.98549e-06
-1.01518e-05
9.36017e-06
-1.03972e-05
8.70303e-06
-1.06589e-05
8.00952e-06
-1.09392e-05
7.27394e-06
-1.12402e-05
6.48912e-06
-1.15646e-05
5.64594e-06
-1.19152e-05
4.73292e-06
-1.22956e-05
3.73516e-06
-1.27079e-05
2.63366e-06
-1.31583e-05
1.40779e-06
-1.36306e-05
-1.4307e-05
1.78903e-05
-6.96654e-06
1.7541e-05
-7.05955e-06
1.71825e-05
-7.15956e-06
1.68147e-05
-7.26817e-06
1.64375e-05
-7.38247e-06
1.60502e-05
-7.50052e-06
1.56521e-05
-7.62253e-06
1.52428e-05
-7.74921e-06
1.48217e-05
-7.8809e-06
1.43881e-05
-8.01778e-06
1.39414e-05
-8.16016e-06
1.34807e-05
-8.30843e-06
1.30052e-05
-8.46305e-06
1.25139e-05
-8.62455e-06
1.20055e-05
-8.79349e-06
1.14788e-05
-8.97056e-06
1.09319e-05
-9.15648e-06
1.0363e-05
-9.35212e-06
9.76958e-06
-9.55841e-06
9.14881e-06
-9.77641e-06
8.49713e-06
-1.00073e-05
7.8102e-06
-1.02522e-05
7.08264e-06
-1.05126e-05
6.3078e-06
-1.07898e-05
5.47732e-06
-1.10847e-05
4.58085e-06
-1.13991e-05
3.60498e-06
-1.1732e-05
2.53331e-06
-1.20866e-05
1.34491e-06
-1.24422e-05
-1.29621e-05
1.76715e-05
-6.61815e-06
1.73156e-05
-6.70365e-06
1.69512e-05
-6.79519e-06
1.65781e-05
-6.8951e-06
1.6196e-05
-7.00036e-06
1.58043e-05
-7.10884e-06
1.54025e-05
-7.22073e-06
1.49901e-05
-7.33677e-06
1.45665e-05
-7.45727e-06
1.4131e-05
-7.58237e-06
1.36831e-05
-7.71225e-06
1.32219e-05
-7.84723e-06
1.27466e-05
-7.98768e-06
1.2256e-05
-8.13398e-06
1.1749e-05
-8.28653e-06
1.12243e-05
-8.44581e-06
1.06801e-05
-8.61233e-06
1.01147e-05
-8.78662e-06
9.5255e-06
-8.96926e-06
8.90992e-06
-9.16082e-06
8.26453e-06
-9.36189e-06
7.58527e-06
-9.57299e-06
6.86716e-06
-9.79449e-06
6.10411e-06
-1.00267e-05
5.28858e-06
-1.02692e-05
4.4114e-06
-1.05219e-05
3.46073e-06
-1.07813e-05
2.4227e-06
-1.10486e-05
1.27805e-06
-1.12976e-05
-1.16841e-05
1.74191e-05
-6.26325e-06
1.70572e-05
-6.34184e-06
1.66876e-05
-6.42555e-06
1.63098e-05
-6.51728e-06
1.59234e-05
-6.61398e-06
1.5528e-05
-6.71342e-06
1.5123e-05
-6.81575e-06
1.4708e-05
-6.92173e-06
1.42823e-05
-7.03163e-06
1.38455e-05
-7.1455e-06
1.33967e-05
-7.26347e-06
1.29352e-05
-7.38577e-06
1.24602e-05
-7.51266e-06
1.19706e-05
-7.64439e-06
1.14653e-05
-7.78122e-06
1.09429e-05
-7.92343e-06
1.04019e-05
-8.0713e-06
9.84034e-06
-8.22508e-06
9.25608e-06
-8.385e-06
8.64648e-06
-8.55122e-06
8.00839e-06
-8.7238e-06
7.33806e-06
-8.90266e-06
6.63096e-06
-9.08739e-06
5.8816e-06
-9.27737e-06
5.08332e-06
-9.47093e-06
4.22812e-06
-9.66671e-06
3.30577e-06
-9.85895e-06
2.30491e-06
-1.00477e-05
1.20879e-06
-1.02015e-05
-1.04753e-05
1.71342e-05
-5.90253e-06
1.67671e-05
-5.97475e-06
1.63928e-05
-6.05124e-06
1.60108e-05
-6.13527e-06
1.56207e-05
-6.22387e-06
1.5222e-05
-6.31477e-06
1.48144e-05
-6.40809e-06
1.43972e-05
-6.50455e-06
1.397e-05
-6.6044e-06
1.35321e-05
-6.70762e-06
1.30829e-05
-6.81427e-06
1.26216e-05
-6.9245e-06
1.21474e-05
-7.03846e-06
1.16593e-05
-7.1563e-06
1.11562e-05
-7.27811e-06
1.06368e-05
-7.40401e-06
1.00996e-05
-7.53406e-06
9.54273e-06
-7.66825e-06
8.96425e-06
-7.80652e-06
8.36167e-06
-7.94865e-06
7.73213e-06
-8.09426e-06
7.0722e-06
-8.24272e-06
6.37782e-06
-8.39301e-06
5.64417e-06
-8.54371e-06
4.86544e-06
-8.6922e-06
4.0348e-06
-8.83607e-06
3.14364e-06
-8.9678e-06
2.1829e-06
-9.08699e-06
1.1386e-06
-9.15717e-06
-9.33669e-06
1.68188e-05
-5.5367e-06
1.64471e-05
-5.60307e-06
1.60688e-05
-5.67291e-06
1.56833e-05
-5.74972e-06
1.529e-05
-5.83066e-06
1.48888e-05
-5.9135e-06
1.4479e-05
-5.99833e-06
1.40603e-05
-6.08582e-06
1.36321e-05
-6.17617e-06
1.31937e-05
-6.26931e-06
1.27447e-05
-6.36524e-06
1.22842e-05
-6.46402e-06
1.18115e-05
-6.56571e-06
1.13255e-05
-6.67034e-06
1.08253e-05
-6.77789e-06
1.03096e-05
-6.8883e-06
9.77697e-06
-7.00143e-06
9.22579e-06
-7.11707e-06
8.65414e-06
-7.23487e-06
8.0598e-06
-7.35431e-06
7.44017e-06
-7.47462e-06
6.79219e-06