/*--------------------------------*- C++ -*----------------------------------*\
  =========                 |
  \\      /  F ield         | OpenFOAM: The Open Source CFD Toolbox
   \\    /   O peration     | Website:  https://openfoam.org
    \\  /    A nd           | Version:  11
     \\/     M anipulation  |
\*---------------------------------------------------------------------------*/
FoamFile
{
    format      ascii;
    class       volVectorField;
    location    "5.2";
    object      U;
}
// * * * * * * * * * * * * * * * * * * * * * * * * * * * * * * * * * * * * * //

dimensions      [0 1 -1 0 0 0 0];

internalField   nonuniform List<vector> 
12600
(
(0.399656 0.000104067 0)
(0.3994 0.000177268 0)
(0.399017 0.000181892 0)
(0.398592 0.000179086 0)
(0.398192 0.000177413 0)
(0.39783 0.000173303 0)
(0.397501 0.000166976 0)
(0.397209 0.000157822 0)
(0.39696 0.000145744 0)
(0.396768 0.000131057 0)
(0.396642 0.000115445 0)
(0.396595 9.45943e-05 0)
(0.396644 6.62884e-05 0)
(0.396811 2.5678e-05 0)
(0.397123 -2.21776e-05 0)
(0.397615 -7.55384e-05 0)
(0.398324 -0.000138512 0)
(0.399306 -0.000222095 0)
(0.400625 -0.000325115 0)
(0.402339 -0.000442676 0)
(0.404535 -0.000586481 0)
(0.40734 -0.000767254 0)
(0.410903 -0.000991575 0)
(0.415393 -0.0012674 0)
(0.421019 -0.00160583 0)
(0.428008 -0.00201313 0)
(0.436662 -0.002522 0)
(0.447319 -0.00305111 0)
(0.460298 -0.00404878 0)
(0.478665 -0.00350234 0)
(0.400036 0.000150636 0)
(0.400174 0.000260381 0)
(0.400343 0.000233211 0)
(0.400443 0.00021139 0)
(0.400551 0.000193406 0)
(0.400692 0.00017107 0)
(0.400865 0.000142475 0)
(0.401072 0.00011198 0)
(0.40132 7.51735e-05 0)
(0.401617 2.94944e-05 0)
(0.401974 -2.5881e-05 0)
(0.402402 -9.28756e-05 0)
(0.402913 -0.000172484 0)
(0.403525 -0.000267385 0)
(0.404253 -0.000382728 0)
(0.40513 -0.000525314 0)
(0.406161 -0.000702394 0)
(0.407446 -0.000920076 0)
(0.408873 -0.0011888 0)
(0.410758 -0.00152412 0)
(0.413107 -0.00193841 0)
(0.415974 -0.00244527 0)
(0.419486 -0.00306542 0)
(0.423792 -0.00382545 0)
(0.429072 -0.00475284 0)
(0.435554 -0.00587777 0)
(0.443498 -0.00725434 0)
(0.453275 -0.00883644 0)
(0.465153 -0.0111196 0)
(0.48005 -0.0117714 0)
(0.400022 7.77483e-05 0)
(0.400105 0.000130157 0)
(0.400215 0.000110764 0)
(0.400316 8.66249e-05 0)
(0.400419 6.61801e-05 0)
(0.400545 3.70708e-05 0)
(0.400703 -5.77292e-06 0)
(0.400895 -5.92705e-05 0)
(0.401127 -0.000121431 0)
(0.401408 -0.000193597 0)
(0.401747 -0.000279336 0)
(0.402155 -0.000381956 0)
(0.402646 -0.000505811 0)
(0.403236 -0.000656129 0)
(0.403946 -0.00083946 0)
(0.404804 -0.00106236 0)
(0.405842 -0.00133631 0)
(0.407104 -0.00166565 0)
(0.408647 -0.00207735 0)
(0.41052 -0.00260892 0)
(0.412789 -0.00326576 0)
(0.41556 -0.00406231 0)
(0.418957 -0.00503514 0)
(0.423128 -0.00622855 0)
(0.428247 -0.00769069 0)
(0.434548 -0.00947535 0)
(0.442256 -0.011665 0)
(0.451869 -0.0142458 0)
(0.463266 -0.0177065 0)
(0.478799 -0.0201144 0)
(0.400014 4.65931e-05 0)
(0.400072 0.000100144 0)
(0.400165 9.95512e-05 0)
(0.400262 7.71841e-05 0)
(0.400362 4.45857e-05 0)
(0.400482 3.51067e-06 0)
(0.400633 -5.18306e-05 0)
(0.400819 -0.000120844 0)
(0.401044 -0.000203548 0)
(0.401316 -0.000302603 0)
(0.401643 -0.000421007 0)
(0.402038 -0.000562893 0)
(0.402513 -0.000733915 0)
(0.403083 -0.000940828 0)
(0.40377 -0.00119204 0)
(0.4046 -0.00149794 0)
(0.405603 -0.0018732 0)
(0.406821 -0.00233355 0)
(0.408304 -0.0029072 0)
(0.410108 -0.00362578 0)
(0.4123 -0.00450911 0)
(0.414976 -0.00558858 0)
(0.418254 -0.00691331 0)
(0.422278 -0.00854187 0)
(0.427217 -0.0105423 0)
(0.433303 -0.0129907 0)
(0.440746 -0.0160017 0)
(0.450071 -0.0195831 0)
(0.461084 -0.0242862 0)
(0.476359 -0.0283074 0)
(0.40001 2.83253e-05 0)
(0.400051 6.20835e-05 0)
(0.400126 5.36261e-05 0)
(0.400213 1.73325e-05 0)
(0.40031 -3.20661e-05 0)
(0.400427 -9.01494e-05 0)
(0.400572 -0.000162505 0)
(0.40075 -0.00025081 0)
(0.400966 -0.000356642 0)
(0.401226 -0.000482576 0)
(0.40154 -0.000632254 0)
(0.401918 -0.000811081 0)
(0.402372 -0.00102606 0)
(0.402918 -0.00128581 0)
(0.403575 -0.00160119 0)
(0.404367 -0.00198594 0)
(0.405324 -0.00245791 0)
(0.406485 -0.00303836 0)
(0.407897 -0.00375641 0)
(0.409614 -0.00464735 0)
(0.411703 -0.00574596 0)
(0.414252 -0.00709563 0)
(0.417374 -0.00875511 0)
(0.421205 -0.0107967 0)
(0.425907 -0.0133072 0)
(0.431708 -0.0163862 0)
(0.4388 -0.0201755 0)
(0.447727 -0.0247301 0)
(0.458218 -0.0305977 0)
(0.473062 -0.0362712 0)
(0.400007 1.54761e-05 0)
(0.400038 3.11157e-05 0)
(0.400101 1.64356e-05 0)
(0.400181 -2.2884e-05 0)
(0.400274 -7.66109e-05 0)
(0.400385 -0.000145013 0)
(0.400522 -0.000230168 0)
(0.400691 -0.000334524 0)
(0.400895 -0.000460007 0)
(0.401142 -0.000609372 0)
(0.401439 -0.000787161 0)
(0.401796 -0.000999869 0)
(0.402225 -0.00125581 0)
(0.40274 -0.00156533 0)
(0.40336 -0.00194143 0)
(0.404106 -0.00240057 0)
(0.405007 -0.00296364 0)
(0.406099 -0.00365637 0)
(0.407425 -0.00451174 0)
(0.409037 -0.00557009 0)
(0.410999 -0.00687605 0)
(0.413393 -0.00848323 0)
(0.416322 -0.0104609 0)
(0.419918 -0.0128952 0)
(0.424329 -0.0158916 0)
(0.429775 -0.0195732 0)
(0.436431 -0.0241094 0)
(0.444849 -0.0296044 0)
(0.454691 -0.0365971 0)
(0.468922 -0.04389 0)
(0.400006 5.86895e-06 0)
(0.40003 6.43688e-06 0)
(0.400084 -1.63053e-05 0)
(0.400156 -6.31468e-05 0)
(0.400243 -0.000127919 0)
(0.400347 -0.000209787 0)
(0.400475 -0.000310378 0)
(0.400633 -0.00043229 0)
(0.400824 -0.000578075 0)
(0.401055 -0.000751259 0)
(0.401332 -0.000957167 0)
(0.401665 -0.00120316 0)
(0.402065 -0.00149873 0)
(0.402544 -0.00185577 0)
(0.403119 -0.00228931 0)
(0.403812 -0.00281831 0)
(0.404648 -0.00346666 0)
(0.405659 -0.00426402 0)
(0.406886 -0.00524736 0)
(0.408376 -0.00646174 0)
(0.410189 -0.00795964 0)
(0.412401 -0.00980436 0)
(0.415106 -0.0120758 0)
(0.418423 -0.0148734 0)
(0.422492 -0.0183199 0)
(0.427519 -0.0225614 0)
(0.433657 -0.0277935 0)
(0.441458 -0.0341722 0)
(0.450527 -0.0422238 0)
(0.463956 -0.0510841 0)
(0.400005 -1.42515e-06 0)
(0.400025 -1.42401e-05 0)
(0.400071 -4.62418e-05 0)
(0.400135 -0.000100486 0)
(0.400215 -0.000174385 0)
(0.400312 -0.000267076 0)
(0.400431 -0.000380254 0)
(0.400576 -0.000516759 0)
(0.400753 -0.000679757 0)
(0.400966 -0.000873399 0)
(0.401221 -0.00110366 0)
(0.401527 -0.00137876 0)
(0.401893 -0.00170932 0)
(0.402331 -0.00210873 0)
(0.402857 -0.00259381 0)
(0.403489 -0.00318578 0)
(0.40425 -0.00391129 0)
(0.405171 -0.00480338 0)
(0.406285 -0.00590286 0)
(0.407638 -0.00725945 0)
(0.409283 -0.0089325 0)
(0.411288 -0.010994 0)
(0.413737 -0.0135338 0)
(0.416738 -0.0166635 0)
(0.420416 -0.0205219 0)
(0.424961 -0.0252767 0)
(0.430505 -0.0311492 0)
(0.437584 -0.0383467 0)
(0.445759 -0.0473843 0)
(0.458181 -0.0577455 0)
(0.400004 -7.92513e-06 0)
(0.400021 -3.08655e-05 0)
(0.40006 -7.22548e-05 0)
(0.400118 -0.000134538 0)
(0.40019 -0.000217114 0)
(0.400279 -0.000319999 0)
(0.400388 -0.000445147 0)
(0.40052 -0.000595607 0)
(0.400681 -0.00077498 0)
(0.400874 -0.000987933 0)
(0.401104 -0.00124103 0)
(0.401379 -0.00154322 0)
(0.401708 -0.00190615 0)
(0.402102 -0.00234447 0)
(0.402572 -0.00287661 0)
(0.403137 -0.00352579 0)
(0.403817 -0.00432105 0)
(0.404636 -0.00529842 0)
(0.405627 -0.00650221 0)
(0.406828 -0.0079864 0)
(0.408287 -0.0098162 0)
(0.410063 -0.0120711 0)
(0.412229 -0.0148497 0)
(0.41488 -0.0182746 0)
(0.418124 -0.022499 0)
(0.422131 -0.0277105 0)
(0.427009 -0.0341543 0)
(0.433266 -0.0420877 0)
(0.440431 -0.0520163 0)
(0.451632 -0.0637799 0)
(0.400003 -1.28061e-05 0)
(0.400018 -4.56704e-05 0)
(0.400052 -9.56494e-05 0)
(0.400103 -0.000165328 0)
(0.400168 -0.000255756 0)
(0.400248 -0.000367864 0)
(0.400345 -0.000503765 0)
(0.400464 -0.000666589 0)
(0.400607 -0.000860239 0)
(0.400778 -0.00108986 0)
(0.400982 -0.0013626 0)
(0.401224 -0.00168812 0)
(0.401513 -0.00207894 0)
(0.401857 -0.00255082 0)
(0.402268 -0.0031236 0)
(0.40276 -0.00382219 0)
(0.403351 -0.00467774 0)
(0.404062 -0.00572884 0)
(0.404919 -0.00702285 0)
(0.405956 -0.00861754 0)
(0.407213 -0.0105831 0)
(0.40874 -0.0130051 0)
(0.410599 -0.0159899 0)
(0.41287 -0.0196695 0)
(0.415642 -0.0242097 0)
(0.419061 -0.0298153 0)
(0.423209 -0.0367534 0)
(0.42855 -0.0453273 0)
(0.434597 -0.0560351 0)
(0.444359 -0.0690684 0)
(0.400003 -1.70896e-05 0)
(0.400015 -5.83435e-05 0)
(0.400045 -0.000115979 0)
(0.400089 -0.000192685 0)
(0.400147 -0.000290344 0)
(0.400218 -0.000410588 0)
(0.400304 -0.00055579 0)
(0.400408 -0.000729227 0)
(0.400532 -0.000935101 0)
(0.40068 -0.001179 0)
(0.400855 -0.00146857 0)
(0.401062 -0.00181406 0)
(0.401308 -0.00222872 0)
(0.4016 -0.00272926 0)
(0.401948 -0.00333664 0)
(0.402362 -0.00407721 0)
(0.402858 -0.00498385 0)
(0.403452 -0.00609724 0)
(0.404167 -0.0074673 0)
(0.40503 -0.00915491 0)
(0.406072 -0.0112342 0)
(0.407335 -0.0137958 0)
(0.408867 -0.016952 0)
(0.410732 -0.0208425 0)
(0.412999 -0.0256433 0)
(0.415787 -0.0315734 0)
(0.419151 -0.0389183 0)
(0.423494 -0.048022 0)
(0.428328 -0.0593753 0)
(0.436439 -0.0735043 0)
(0.400002 -2.07317e-05 0)
(0.400013 -6.92367e-05 0)
(0.400038 -0.000133734 0)
(0.400077 -0.000216782 0)
(0.400128 -0.000320737 0)
(0.400189 -0.000447846 0)
(0.400263 -0.000600805 0)
(0.400351 -0.00078305 0)
(0.400456 -0.000999004 0)
(0.400579 -0.00125458 0)
(0.400724 -0.00155785 0)
(0.400895 -0.00191954 0)
(0.401096 -0.00235348 0)
(0.401333 -0.00287711 0)
(0.401613 -0.00351233 0)
(0.401946 -0.00428658 0)
(0.402342 -0.00523411 0)
(0.402814 -0.00639726 0)
(0.40338 -0.00782789 0)
(0.40406 -0.00958929 0)
(0.404877 -0.0117585 0)
(0.405863 -0.01443 0)
(0.407052 -0.0177204 0)
(0.40849 -0.0217752 0)
(0.410228 -0.0267776 0)
(0.412352 -0.0329572 0)
(0.414888 -0.0406135 0)
(0.418164 -0.0501235 0)
(0.421705 -0.0619695 0)
(0.427972 -0.0769789 0)
(0.400002 -2.38466e-05 0)
(0.400011 -7.86157e-05 0)
(0.400033 -0.00014907 0)
(0.400066 -0.000237591 0)
(0.400109 -0.000346829 0)
(0.400161 -0.000479505 0)
(0.400222 -0.000638618 0)
(0.400294 -0.000827748 0)
(0.400379 -0.00105148 0)
(0.400477 -0.001316 0)
(0.400591 -0.00162968 0)
(0.400723 -0.00200365 0)
(0.400877 -0.00245215 0)
(0.401057 -0.00299319 0)
(0.401268 -0.00364932 0)
(0.401516 -0.0044488 0)
(0.401809 -0.00542685 0)
(0.402155 -0.00662694 0)
(0.402567 -0.00810233 0)
(0.403057 -0.00991791 0)
(0.403642 -0.0121527 0)
(0.40434 -0.0149034 0)
(0.405174 -0.0182897 0)
(0.406173 -0.0224601 0)
(0.407363 -0.0276023 0)
(0.408798 -0.0339524 0)
(0.410476 -0.0418179 0)
(0.412635 -0.0515994 0)
(0.414827 -0.0637669 0)
(0.41909 -0.0794008 0)
(0.400002 -2.65157e-05 0)
(0.40001 -8.66436e-05 0)
(0.400028 -0.000162144 0)
(0.400056 -0.0002552 0)
(0.400092 -0.000368624 0)
(0.400134 -0.000505489 0)
(0.400183 -0.000669059 0)
(0.400238 -0.000863053 0)
(0.400302 -0.00109218 0)
(0.400374 -0.00136279 0)
(0.400456 -0.00168351 0)
(0.400549 -0.0020657 0)
(0.400655 -0.00252392 0)
(0.400777 -0.00307648 0)
(0.400916 -0.00374638 0)
(0.401077 -0.00456236 0)
(0.401264 -0.00556019 0)
(0.401482 -0.00678401 0)
(0.401735 -0.00828783 0)
(0.402032 -0.0101374 0)
(0.402379 -0.0124125 0)
(0.402785 -0.0152111 0)
(0.403258 -0.0186536 0)
(0.403808 -0.0228897 0)
(0.404441 -0.0281083 0)
(0.405175 -0.0345469 0)
(0.405978 -0.042515 0)
(0.406991 -0.0524253 0)
(0.4078 -0.0647294 0)
(0.409947 -0.0806978 0)
(0.400002 -2.87988e-05 0)
(0.400008 -9.34643e-05 0)
(0.400024 -0.000173115 0)
(0.400047 -0.000269715 0)
(0.400075 -0.000386151 0)
(0.400108 -0.00052576 0)
(0.400144 -0.000692038 0)
(0.400183 -0.000888817 0)
(0.400226 -0.00112088 0)
(0.400272 -0.00139468 0)
(0.400321 -0.00171897 0)
(0.400375 -0.00210527 0)
(0.400432 -0.00256824 0)
(0.400494 -0.00312635 0)
(0.400561 -0.00380275 0)
(0.400634 -0.00462634 0)
(0.400714 -0.00563309 0)
(0.400801 -0.00686727 0)
(0.400895 -0.00838302 0)
(0.400996 -0.0102461 0)
(0.401104 -0.0125363 0)
(0.401215 -0.015351 0)
(0.401324 -0.0188102 0)
(0.401424 -0.0230619 0)
(0.401497 -0.0282928 0)
(0.401529 -0.0347374 0)
(0.401456 -0.0426997 0)
(0.401318 -0.0525922 0)
(0.400742 -0.0648396 0)
(0.400722 -0.0808288 0)
(0.400001 -3.07475e-05 0)
(0.400007 -9.92146e-05 0)
(0.40002 -0.000182151 0)
(0.400038 -0.000281271 0)
(0.40006 -0.000399486 0)
(0.400083 -0.000540349 0)
(0.400106 -0.000707551 0)
(0.400129 -0.000905001 0)
(0.400151 -0.0011375 0)
(0.400171 -0.00141153 0)
(0.400188 -0.00173591 0)
(0.400201 -0.00212214 0)
(0.400209 -0.00258486 0)
(0.400212 -0.0031425 0)
(0.400207 -0.0038181 0)
(0.400192 -0.00464041 0)
(0.400164 -0.00564517 0)
(0.40012 -0.00687633 0)
(0.400055 -0.0083875 0)
(0.399961 -0.0102437 0)
(0.39983 -0.0125236 0)
(0.399647 -0.0153231 0)
(0.399396 -0.0187595 0)
(0.399049 -0.0229773 0)
(0.39857 -0.0281574 0)
(0.397909 -0.0345266 0)
(0.396975 -0.0423759 0)
(0.395706 -0.0521049 0)
(0.393775 -0.0641015 0)
(0.391607 -0.0797885 0)
(0.400001 -3.24126e-05 0)
(0.400006 -0.000104036 0)
(0.400016 -0.00018943 0)
(0.400031 -0.000290031 0)
(0.400046 -0.000408754 0)
(0.40006 -0.000549348 0)
(0.400071 -0.000715672 0)
(0.400077 -0.000911662 0)
(0.400078 -0.00114208 0)
(0.400072 -0.0014134 0)
(0.400057 -0.00173436 0)
(0.40003 -0.00211636 0)
(0.39999 -0.00257387 0)
(0.399933 -0.00312504 0)
(0.399856 -0.00379256 0)
(0.399754 -0.00460475 0)
(0.399621 -0.00559672 0)
(0.399447 -0.00681159 0)
(0.399224 -0.00830187 0)
(0.398938 -0.0101311 0)
(0.398571 -0.0123759 0)
(0.3981 -0.0151294 0)
(0.397494 -0.0185046 0)
(0.396712 -0.0226404 0)
(0.395695 -0.0277089 0)
(0.394362 -0.0339244 0)
(0.392598 -0.0415581 0)
(0.390245 -0.0509842 0)
(0.387017 -0.0625436 0)
(0.382798 -0.0776133 0)
(0.400001 -3.38503e-05 0)
(0.400005 -0.000108087 0)
(0.400014 -0.000195162 0)
(0.400024 -0.000296196 0)
(0.400034 -0.000414125 0)
(0.400039 -0.000552917 0)
(0.400038 -0.000716559 0)
(0.400028 -0.000908962 0)
(0.400009 -0.00113481 0)
(0.399977 -0.00140047 0)
(0.39993 -0.00171456 0)
(0.399864 -0.00208822 0)
(0.399777 -0.0025356 0)
(0.399662 -0.00307439 0)
(0.399515 -0.0037267 0)
(0.399327 -0.0045201 0)
(0.399089 -0.00548868 0)
(0.398789 -0.00667429 0)
(0.398412 -0.00812778 0)
(0.397938 -0.00991045 0)
(0.397342 -0.0120961 0)
(0.396591 -0.0147738 0)
(0.395642 -0.0180512 0)
(0.394439 -0.0220592 0)
(0.392906 -0.0269587 0)
(0.390934 -0.0329473 0)
(0.388383 -0.0402707 0)
(0.385016 -0.0492657 0)
(0.380584 -0.0602178 0)
(0.374484 -0.0743817 0)
(0.400001 -3.51282e-05 0)
(0.400005 -0.00011156 0)
(0.400012 -0.000199597 0)
(0.400019 -0.0003 0)
(0.400023 -0.000415798 0)
(0.40002 -0.000551251 0)
(0.400007 -0.00071045 0)
(0.399982 -0.000897181 0)
(0.399943 -0.00111599 0)
(0.399887 -0.00137311 0)
(0.399809 -0.00167693 0)
(0.399705 -0.00203825 0)
(0.399571 -0.0024707 0)
(0.399401 -0.00299136 0)
(0.399185 -0.00362152 0)
(0.398914 -0.00438768 0)
(0.398575 -0.0053226 0)
(0.398153 -0.00646642 0)
(0.397628 -0.00786775 0)
(0.396972 -0.00958509 0)
(0.396156 -0.0116886 0)
(0.395136 -0.0142622 0)
(0.393859 -0.0174071 0)
(0.392256 -0.0212447 0)
(0.390234 -0.0259223 0)
(0.387663 -0.0316178 0)
(0.384385 -0.0385462 0)
(0.380092 -0.0469984 0)
(0.374574 -0.0571978 0)
(0.366827 -0.070212 0)
(0.400001 -3.63328e-05 0)
(0.400004 -0.000114692 0)
(0.400011 -0.000203027 0)
(0.400016 -0.000301735 0)
(0.400015 -0.000414062 0)
(0.400004 -0.000544638 0)
(0.39998 -0.000697625 0)
(0.399941 -0.000876629 0)
(0.399883 -0.00108601 0)
(0.399802 -0.00133182 0)
(0.399695 -0.00162211 0)
(0.399555 -0.00196722 0)
(0.399377 -0.00238014 0)
(0.399152 -0.00287713 0)
(0.398871 -0.00347845 0)
(0.39852 -0.00420929 0)
(0.398085 -0.00510072 0)
(0.397546 -0.00619073 0)
(0.396879 -0.00752528 0)
(0.396051 -0.00915943 0)
(0.395024 -0.0111589 0)
(0.393749 -0.0136021 0)
(0.392163 -0.0165823 0)
(0.390185 -0.0202106 0)
(0.38771 -0.0246188 0)
(0.384588 -0.0299631 0)
(0.380647 -0.0364249 0)
(0.375536 -0.0442423 0)
(0.369071 -0.0535747 0)
(0.359959 -0.0652544 0)
(0.400001 -3.75815e-05 0)
(0.400005 -0.000117805 0)
(0.400011 -0.000205807 0)
(0.400014 -0.000301653 0)
(0.400009 -0.000409154 0)
(0.399991 -0.000533428 0)
(0.399957 -0.000678549 0)
(0.399904 -0.000847832 0)
(0.399828 -0.00104545 0)
(0.399726 -0.00127723 0)
(0.39959 -0.00155085 0)
(0.399416 -0.00187603 0)
(0.399195 -0.00226503 0)
(0.398919 -0.00273311 0)
(0.398576 -0.00329929 0)
(0.39815 -0.00398718 0)
(0.397624 -0.00482586 0)
(0.396975 -0.00585082 0)
(0.396173 -0.00710486 0)
(0.395183 -0.00863913 0)
(0.39396 -0.0105144 0)
(0.392447 -0.0128027 0)
(0.390573 -0.015589 0)
(0.388248 -0.0189729 0)
(0.385356 -0.0230703 0)
(0.381737 -0.0280143 0)
(0.377208 -0.0339515 0)
(0.371392 -0.0410648 0)
(0.364133 -0.0494511 0)
(0.353965 -0.0596806 0)
(0.400001 -3.90438e-05 0)
(0.400006 -0.000121339 0)
(0.400013 -0.000208358 0)
(0.400016 -0.000300028 0)
(0.400007 -0.000401375 0)
(0.399982 -0.000518043 0)
(0.399939 -0.000653694 0)
(0.399873 -0.00081133 0)
(0.399781 -0.000994992 0)
(0.399657 -0.00121023 0)
(0.399495 -0.00146419 0)
(0.399289 -0.00176594 0)
(0.399029 -0.00212681 0)
(0.398706 -0.00256093 0)
(0.398304 -0.0030859 0)
(0.397809 -0.00372353 0)
(0.397198 -0.00450063 0)
(0.396446 -0.00544988 0)
(0.39552 -0.00661056 0)
(0.394379 -0.00802948 0)
(0.392974 -0.00976201 0)
(0.391241 -0.0118733 0)
(0.389103 -0.0144395 0)
(0.386462 -0.0175485 0)
(0.383196 -0.0213002 0)
(0.379136 -0.0258043 0)
(0.374096 -0.0311736 0)
(0.367693 -0.0375365 0)
(0.359796 -0.0449345 0)
(0.348883 -0.0536704 0)
(0.400001 -4.09802e-05 0)
(0.400008 -0.000125892 0)
(0.400017 -0.000211221 0)
(0.400021 -0.00029735 0)
(0.400009 -0.000391163 0)
(0.399978 -0.00049879 0)
(0.399926 -0.000623327 0)
(0.399849 -0.000767489 0)
(0.399742 -0.000935223 0)
(0.399599 -0.0011317 0)
(0.399413 -0.00136348 0)
(0.399177 -0.00163881 0)
(0.398882 -0.00196803 0)
(0.398514 -0.00236398 0)
(0.39806 -0.00284262 0)
(0.3975 -0.00342373 0)
(0.396811 -0.00413159 0)
(0.395965 -0.0049957 0)
(0.394925 -0.00605149 0)
(0.393647 -0.00734104 0)
(0.392076 -0.00891392 0)
(0.390144 -0.0108281 0)
(0.387768 -0.0131508 0)
(0.384844 -0.0159584 0)
(0.381245 -0.0193352 0)
(0.376802 -0.0233685 0)
(0.371328 -0.0281398 0)
(0.364452 -0.0337274 0)
(0.356067 -0.0401294 0)
(0.344697 -0.0473971 0)
(0.400002 -4.3746e-05 0)
(0.400011 -0.000132219 0)
(0.400026 -0.000214877 0)
(0.400031 -0.000294011 0)
(0.400017 -0.000379135 0)
(0.399981 -0.000476467 0)
(0.399921 -0.000588276 0)
(0.399834 -0.000716977 0)
(0.399713 -0.000866455 0)
(0.399552 -0.00104147 0)
(0.399345 -0.0012479 0)
(0.399082 -0.00149318 0)
(0.398754 -0.00178654 0)
(0.398347 -0.00213943 0)
(0.397844 -0.00256611 0)
(0.397227 -0.00308416 0)
(0.396468 -0.00371511 0)
(0.395538 -0.00448511 0)
(0.394396 -0.00542544 0)
(0.392996 -0.00657317 0)
(0.391277 -0.00797179 0)
(0.389167 -0.00967193 0)
(0.38658 -0.0117316 0)
(0.383406 -0.0142165 0)
(0.379518 -0.0171964 0)
(0.374748 -0.0207378 0)
(0.368915 -0.0248945 0)
(0.36167 -0.0297015 0)
(0.352929 -0.0351294 0)
(0.341347 -0.0410135 0)
(0.400003 -4.83737e-05 0)
(0.400018 -0.000141617 0)
(0.400039 -0.000219591 0)
(0.400047 -0.000289588 0)
(0.400031 -0.000365157 0)
(0.399991 -0.000451859 0)
(0.399925 -0.000550622 0)
(0.399829 -0.000663531 0)
(0.399696 -0.000794354 0)
(0.39952 -0.000947266 0)
(0.399294 -0.00112747 0)
(0.399008 -0.00134145 0)
(0.398651 -0.0015971 0)
(0.398209 -0.00190437 0)
(0.397664 -0.00227562 0)
(0.396996 -0.00272604 0)
(0.396176 -0.00327421 0)
(0.395171 -0.00394263 0)
(0.39394 -0.00475819 0)
(0.392432 -0.00575266 0)
(0.390584 -0.00696329 0)
(0.38832 -0.0084333 0)
(0.385549 -0.0102118 0)
(0.382159 -0.0123541 0)
(0.378024 -0.0149182 0)
(0.372981 -0.0179511 0)
(0.366857 -0.0214838 0)
(0.359334 -0.0255168 0)
(0.350351 -0.0300146 0)
(0.33876 -0.0346445 0)
(0.400006 -5.60849e-05 0)
(0.400029 -0.00015621 0)
(0.400061 -0.000226824 0)
(0.400072 -0.000284195 0)
(0.400054 -0.000346601 0)
(0.40001 -0.000418638 0)
(0.399938 -0.000500366 0)
(0.399835 -0.000593805 0)
(0.399692 -0.000702346 0)
(0.399503 -0.000829133 0)
(0.39926 -0.000979008 0)
(0.398954 -0.00115762 0)
(0.398573 -0.00137144 0)
(0.398101 -0.00162873 0)
(0.397521 -0.00193986 0)
(0.396808 -0.00231755 0)
(0.395936 -0.00277727 0)
(0.394869 -0.00333771 0)
(0.393563 -0.00402116 0)
(0.391964 -0.00485391 0)
(0.390006 -0.00586667 0)
(0.387612 -0.00709523 0)
(0.384686 -0.00857997 0)
(0.381116 -0.0103676 0)
(0.376776 -0.0125056 0)
(0.371516 -0.0150227 0)
(0.365173 -0.0179339 0)
(0.357465 -0.0212126 0)
(0.348358 -0.0248479 0)
(0.336938 -0.0283871 0)
(0.40001 -6.84579e-05 0)
(0.400049 -0.000176994 0)
(0.400096 -0.000241773 0)
(0.400112 -0.000292408 0)
(0.400093 -0.000346873 0)
(0.400045 -0.000407171 0)
(0.39997 -0.000473757 0)
(0.39986 -0.000549416 0)
(0.39971 -0.000637584 0)
(0.39951 -0.000739609 0)
(0.399254 -0.000859426 0)
(0.398931 -0.00100202 0)
(0.39853 -0.00117269 0)
(0.398034 -0.00137803 0)
(0.397424 -0.00162624 0)
(0.396677 -0.00192738 0)
(0.395763 -0.00229369 0)
(0.394645 -0.00273989 0)
(0.393279 -0.00328354 0)
(0.391608 -0.00394526 0)
(0.389566 -0.00474922 0)
(0.387071 -0.0057235 0)
(0.384028 -0.00689971 0)
(0.380322 -0.00832021 0)
(0.375841 -0.0100267 0)
(0.370446 -0.0120266 0)
(0.363995 -0.0143238 0)
(0.356224 -0.016869 0)
(0.347145 -0.0197124 0)
(0.336003 -0.0222989 0)
(0.400017 -9.35081e-05 0)
(0.400079 -0.000184937 0)
(0.400143 -0.00021989 0)
(0.400164 -0.000253818 0)
(0.400144 -0.000295208 0)
(0.400095 -0.000339719 0)
(0.400018 -0.000387769 0)
(0.399903 -0.000442175 0)
(0.399746 -0.000505285 0)
(0.399539 -0.000580324 0)
(0.399273 -0.000669273 0)
(0.398938 -0.000774628 0)
(0.398522 -0.000900589 0)
(0.398009 -0.00105235 0)
(0.397378 -0.00123599 0)
(0.396606 -0.00145884 0)
(0.395662 -0.00172978 0)
(0.39451 -0.00205945 0)
(0.393104 -0.00246053 0)
(0.391388 -0.00294789 0)
(0.389295 -0.00353921 0)
(0.386747 -0.00425507 0)
(0.383648 -0.00511628 0)
(0.379895 -0.00616445 0)
(0.37538 -0.00744856 0)
(0.369955 -0.00895742 0)
(0.363484 -0.0106751 0)
(0.355668 -0.0125302 0)
(0.346666 -0.0146437 0)
(0.335337 -0.0162196 0)
(0.400025 -0.000160304 0)
(0.400182 -0.000311915 0)
(0.400254 -0.000305373 0)
(0.400241 -0.000317005 0)
(0.400199 -0.000341258 0)
(0.400132 -0.000367825 0)
(0.400034 -0.000396749 0)
(0.399897 -0.000430776 0)
(0.399713 -0.000473533 0)
(0.399477 -0.000514279 0)
(0.39918 -0.000567427 0)
(0.398811 -0.000632877 0)
(0.398355 -0.000711571 0)
(0.397797 -0.000806963 0)
(0.397115 -0.000923127 0)
(0.396284 -0.00106493 0)
(0.395274 -0.00123821 0)
(0.394048 -0.00144993 0)
(0.392559 -0.0017084 0)
(0.390755 -0.00202354 0)
(0.38857 -0.00240724 0)
(0.385925 -0.00287336 0)
(0.382726 -0.00343702 0)
(0.378882 -0.00411643 0)
(0.374108 -0.00493025 0)
(0.368175 -0.00588561 0)
(0.361128 -0.00698182 0)
(0.352597 -0.00815141 0)
(0.3431 -0.00957022 0)
(0.329617 -0.00974067 0)
(0.399648 -0.00011161 0)
(0.399357 -0.000187944 0)
(0.398903 -0.000203885 0)
(0.39837 -0.000213182 0)
(0.397811 -0.000224697 0)
(0.397229 -0.000236194 0)
(0.396612 -0.000247855 0)
(0.395953 -0.000260351 0)
(0.395244 -0.000274192 0)
(0.394478 -0.000292131 0)
(0.393646 -0.000313774 0)
(0.392735 -0.000338556 0)
(0.391728 -0.000367664 0)
(0.390604 -0.000402655 0)
(0.389338 -0.000445126 0)
(0.387899 -0.00049695 0)
(0.386249 -0.000560454 0)
(0.384338 -0.000638525 0)
(0.38211 -0.000734649 0)
(0.379491 -0.000853036 0)
(0.376397 -0.000998464 0)
(0.37272 -0.00117657 0)
(0.368337 -0.00139589 0)
(0.36311 -0.00165397 0)
(0.356901 -0.00194055 0)
(0.349546 -0.00227083 0)
(0.340834 -0.00266623 0)
(0.33055 -0.00307535 0)
(0.31883 -0.00369834 0)
(0.300762 -0.00313459 0)
(0.484851 -0.00786087 6.57749e-21)
(0.49134 -0.0121082 -9.57661e-18)
(0.497338 -0.0170531 9.62132e-18)
(0.502311 -0.0225543 4.83572e-18)
(0.506718 -0.0285121 3.65168e-18)
(0.51083 -0.034891 7.36019e-18)
(0.514721 -0.0417174 3.69777e-18)
(0.518444 -0.0490487 9.95169e-18)
(0.522066 -0.0569363 5.02052e-18)
(0.525633 -0.0654167 2.51938e-18)
(0.529159 -0.0745219 -2.54854e-18)
(0.532634 -0.0842895 5.11859e-18)
(0.536045 -0.0947677 2.60016e-18)
(0.539384 -0.106018 2.61237e-18)
(0.54265 -0.118117 5.2621e-18)
(0.545851 -0.13116 2.66898e-18)
(0.548999 -0.145262 8.00944e-18)
(0.55211 -0.160564 0)
(0.5552 -0.177238 0)
(0.558292 -0.195498 2.68964e-18)
(0.561412 -0.21561 -2.38558e-20)
(0.564589 -0.237913 2.73401e-18)
(0.567876 -0.26282 0)
(0.571256 -0.290926 5.3499e-18)
(0.575003 -0.322747 2.62511e-18)
(0.5783 -0.359938 -2.66191e-18)
(0.584335 -0.400729 2.55188e-18)
(0.582216 -0.459092 2.49863e-18)
(0.603765 -0.493273 6.88213e-18)
(0.564002 -0.631825 -2.11522e-18)
(0.490835 -0.0173576 -4.81909e-18)
(0.495188 -0.0218366 5.45167e-18)
(0.498911 -0.0272218 -5.49144e-18)
(0.502055 -0.0330494 0)
(0.505028 -0.0392161 -4.9721e-18)
(0.508016 -0.0457691 -5.00093e-18)
(0.511022 -0.052784 -1.26072e-18)
(0.514025 -0.0603091 -8.91011e-18)
(0.517016 -0.0683671 -5.12719e-18)
(0.519975 -0.0769771 -5.19169e-18)
(0.522867 -0.0861703 2.60891e-18)
(0.525661 -0.0959919 -2.64192e-18)
(0.528339 -0.106499 -5.30666e-18)
(0.530895 -0.117762 -5.35316e-18)
(0.533329 -0.12986 -5.39973e-18)
(0.535641 -0.142892 -5.44582e-18)
(0.537829 -0.156972 -1.10228e-17)
(0.539891 -0.172241 2.76819e-18)
(0.541821 -0.188871 -2.8098e-18)
(0.543613 -0.207071 -8.46923e-18)
(0.545259 -0.227103 3.08725e-20)
(0.546742 -0.249294 -3.9868e-20)
(0.54805 -0.274046 -4.52292e-20)
(0.549112 -0.301911 -8.61323e-18)
(0.550012 -0.333411 -5.71962e-18)
(0.550089 -0.369961 -2.74944e-18)
(0.551406 -0.410478 1.20622e-19)
(0.545383 -0.46529 -1.0033e-19)
(0.55914 -0.503263 -7.65075e-18)
(0.513743 -0.630718 0)
(0.488256 -0.0261842 0)
(0.491336 -0.0306283 0)
(0.494135 -0.0359889 0)
(0.496843 -0.0418389 -6.28422e-19)
(0.49958 -0.0480684 5.70949e-18)
(0.502344 -0.054703 -1.27951e-18)
(0.505071 -0.0617819 1.29461e-18)
(0.507713 -0.0693268 5.2127e-18)
(0.51025 -0.0773598 -1.31567e-18)
(0.512663 -0.0859176 6.64436e-18)
(0.514941 -0.0950487 2.68291e-18)
(0.517073 -0.104808 -2.71891e-18)
(0.519057 -0.115256 2.73694e-18)
(0.520887 -0.126458 -2.77568e-18)
(0.522553 -0.138495 -5.61734e-18)
(0.52404 -0.151461 5.67687e-18)
(0.52533 -0.16547 5.69252e-18)
(0.5264 -0.18066 0)
(0.527225 -0.1972 0)
(0.52777 -0.215294 5.84813e-18)
(0.527993 -0.235194 0)
(0.527834 -0.257213 8.97107e-18)
(0.52722 -0.281735 3.0175e-18)
(0.526019 -0.309267 5.9659e-18)
(0.524173 -0.340336 8.92902e-18)
(0.52106 -0.376114 3.03325e-18)
(0.517987 -0.416064 0)
(0.508177 -0.467695 1.1594e-17)
(0.513331 -0.508728 0)
(0.464499 -0.624313 5.30599e-18)
(0.48541 -0.0352553 0)
(0.487961 -0.0398921 0)
(0.490281 -0.0453544 0)
(0.492633 -0.0512577 -5.15133e-18)
(0.49498 -0.0575124 0)
(0.497239 -0.0641464 0)
(0.499372 -0.0712035 0)
(0.501378 -0.0787164 5.36692e-18)
(0.503256 -0.0867176 0)
(0.505003 -0.0952464 0)
(0.506606 -0.104347 0)
(0.50805 -0.114066 -5.61223e-18)
(0.509319 -0.124459 -5.67823e-18)
(0.510393 -0.13559 -2.8582e-18)
(0.511245 -0.147538 -2.9824e-20)
(0.51185 -0.160398 -5.82918e-18)
(0.512176 -0.174283 1.38484e-20)
(0.512185 -0.189326 9.04009e-18)
(0.511831 -0.205689 3.02662e-18)
(0.511055 -0.223567 -3.0807e-18)
(0.50978 -0.243198 -3.09043e-18)
(0.507909 -0.264873 -3.07962e-18)
(0.505311 -0.28895 -3.14366e-18)
(0.501804 -0.315885 9.64267e-18)
(0.497204 -0.346183 0)
(0.490932 -0.38079 -9.6809e-18)
(0.483663 -0.419537 -3.2483e-18)
(0.470131 -0.467951 2.36778e-19)
(0.46709 -0.509781 -9.43399e-18)
(0.415704 -0.613391 5.47461e-19)
(0.481559 -0.0439313 0)
(0.483558 -0.048626 5.1585e-18)
(0.485303 -0.0540703 -6.50331e-19)
(0.487144 -0.0599448 1.11854e-17)
(0.488983 -0.0661859 0)
(0.490698 -0.0728176 0)
(0.492269 -0.0798732 5.45093e-18)
(0.493711 -0.0873778 -5.49093e-18)
(0.495018 -0.0953573 0)
(0.496171 -0.103846 0)
(0.497146 -0.112884 0)
(0.497921 -0.122521 5.75993e-18)
(0.498473 -0.132813 5.83271e-18)
(0.498775 -0.143827 -2.95913e-18)
(0.498797 -0.15564 8.99255e-18)
(0.498502 -0.168344 0)
(0.497848 -0.182045 6.19947e-18)
(0.49678 -0.196871 -9.3941e-18)
(0.495233 -0.212974 -3.17886e-18)
(0.493123 -0.230534 0)
(0.490344 -0.249772 0)
(0.486762 -0.270953 0)
(0.4822 -0.294401 0)
(0.476427 -0.32052 -3.34718e-18)
(0.469161 -0.34977 -3.44528e-18)
(0.459848 -0.382906 3.40557e-18)
(0.448662 -0.420005 3.51395e-18)
(0.431587 -0.46503 -6.8427e-18)
(0.420901 -0.50635 6.83557e-18)
(0.368072 -0.598296 -6.50629e-18)
(0.476793 -0.0522166 -5.21391e-18)
(0.478282 -0.0569757 -4.92951e-18)
(0.479497 -0.0624385 -9.98783e-19)
(0.480858 -0.068321 -4.03378e-18)
(0.482221 -0.0745645 -1.10643e-21)
(0.483429 -0.0811844 -2.06928e-18)
(0.484462 -0.0882075 2.76992e-20)
(0.48534 -0.0956579 -5.67126e-18)
(0.486056 -0.103564 -4.31401e-18)
(0.486583 -0.111962 5.826e-18)
(0.486895 -0.120894 0)
(0.486968 -0.130409 7.48136e-18)
(0.486776 -0.140562 -7.59293e-18)
(0.486285 -0.151414 -6.16791e-18)
(0.485457 -0.16304 9.37562e-18)
(0.484243 -0.175524 -9.52943e-18)
(0.482589 -0.188967 -3.19116e-18)
(0.480424 -0.203487 -3.33804e-18)
(0.477665 -0.219223 -3.31162e-18)
(0.474207 -0.23634 1.01694e-17)
(0.469917 -0.255037 0)
(0.464631 -0.27555 3.47466e-18)
(0.458132 -0.298164 -7.08818e-18)
(0.450149 -0.323224 7.31195e-18)
(0.440324 -0.351133 3.68279e-18)
(0.428118 -0.382484 7.53738e-18)
(0.413316 -0.417481 0)
(0.392927 -0.458876 7.78407e-18)
(0.375375 -0.498491 0)
(0.321966 -0.579112 -7.87034e-18)
(0.47112 -0.0600292 5.31485e-18)
(0.472111 -0.0648302 2.69963e-18)
(0.472804 -0.0702849 -2.73499e-18)
(0.473677 -0.0761375 2.07939e-18)
(0.474549 -0.0823373 9.39586e-22)
(0.475233 -0.0888995 9.15864e-22)
(0.475712 -0.0958499 -5.0155e-18)
(0.476014 -0.103213 1.43497e-18)
(0.47613 -0.111018 8.84952e-18)
(0.476029 -0.119298 -7.47916e-18)
(0.475679 -0.128094 1.5203e-18)
(0.475053 -0.137449 -7.70477e-18)
(0.474118 -0.147415 6.25424e-18)
(0.472832 -0.158051 6.35375e-18)
(0.471149 -0.169426 -3.20113e-18)
(0.469011 -0.181618 6.5657e-18)
(0.466352 -0.194719 0)
(0.463088 -0.208837 3.38544e-18)
(0.459121 -0.224096 3.48418e-18)
(0.454327 -0.240642 -7.04777e-18)
(0.448552 -0.258649 0)
(0.441603 -0.278321 -3.67854e-18)
(0.433234 -0.299898 2.17183e-20)
(0.423142 -0.323669 -7.59186e-18)
(0.410911 -0.349969 7.85486e-18)
(0.396015 -0.379248 -1.19753e-17)
(0.377954 -0.411747 0)
(0.354558 -0.449299 -8.15832e-18)
(0.331044 -0.486267 1.21987e-19)
(0.277801 -0.556056 8.54656e-18)
(0.464547 -0.0672593 2.72925e-18)
(0.46505 -0.0720792 -2.41045e-18)
(0.465232 -0.077501 2.44356e-18)
(0.46562 -0.0832982 -5.67529e-18)
(0.466001 -0.0894285 -2.88356e-18)
(0.466166 -0.0959066 -7.28927e-19)
(0.466098 -0.102756 2.96897e-18)
(0.465829 -0.11 6.76079e-18)
(0.46535 -0.117666 3.06033e-18)
(0.464623 -0.125784 -1.54859e-18)