/*--------------------------------*- C++ -*----------------------------------*\
  =========                 |
  \\      /  F ield         | OpenFOAM: The Open Source CFD Toolbox
   \\    /   O peration     | Website:  https://openfoam.org
    \\  /    A nd           | Version:  11
     \\/     M anipulation  |
\*---------------------------------------------------------------------------*/
FoamFile
{
    format      ascii;
    class       volScalarField;
    location    "1.7";
    object      p;
}
// * * * * * * * * * * * * * * * * * * * * * * * * * * * * * * * * * * * * * //

dimensions      [0 2 -2 0 0 0 0];

internalField   nonuniform List<scalar> 
12600
(
0.0684602
0.068324
0.0682603
0.0682418
0.0682257
0.0682038
0.0681795
0.0681546
0.0681285
0.0681003
0.0680691
0.0680342
0.0679946
0.0679493
0.0678971
0.0678364
0.0677651
0.067681
0.0675809
0.0674615
0.0673185
0.067146
0.066937
0.0666834
0.066375
0.0659986
0.065537
0.0649664
0.0642539
0.0633067
0.0683848
0.0683149
0.0682624
0.0682407
0.0682237
0.0682025
0.0681788
0.0681542
0.0681283
0.0681004
0.0680695
0.0680348
0.0679956
0.0679507
0.0678989
0.0678387
0.0677682
0.067685
0.067586
0.067468
0.0673266
0.0671562
0.0669502
0.0667
0.0663955
0.0660235
0.06557
0.0650122
0.0643615
0.0636306
0.0683491
0.068316
0.0682706
0.0682428
0.0682243
0.0682038
0.0681808
0.0681563
0.0681307
0.068103
0.0680724
0.0680382
0.0679995
0.0679553
0.0679044
0.0678453
0.0677761
0.0676949
0.0675982
0.0674828
0.0673441
0.0671773
0.0669759
0.0667314
0.0664341
0.0660717
0.0656308
0.0650942
0.0644622
0.0637043
0.0683243
0.0683038
0.068268
0.0682404
0.0682214
0.0682022
0.0681801
0.0681563
0.0681312
0.0681042
0.0680744
0.0680409
0.0680031
0.0679601
0.0679106
0.0678531
0.0677855
0.067707
0.0676135
0.0675016
0.0673674
0.0672061
0.0670115
0.0667756
0.0664889
0.0661399
0.0657153
0.0651995
0.0645778
0.0638231
0.0683062
0.0682928
0.0682661
0.0682411
0.068222
0.0682035
0.0681822
0.0681591
0.0681346
0.0681082
0.0680791
0.0680466
0.06801
0.0679684
0.0679207
0.0678653
0.0678009
0.0677244
0.0676345
0.0675274
0.0673991
0.067245
0.0670592
0.0668343
0.0665611
0.0662288
0.065824
0.0653316
0.0647298
0.0639972
0.0682928
0.0682835
0.0682631
0.0682408
0.0682217
0.0682034
0.0681831
0.0681608
0.068137
0.0681114
0.0680833
0.068052
0.0680167
0.0679767
0.067931
0.0678782
0.0678168
0.0677443
0.0676591
0.0675577
0.0674366
0.0672913
0.0671162
0.0669045
0.0666477
0.0663354
0.0659546
0.0654903
0.0649179
0.0642179
0.0682829
0.0682759
0.0682598
0.0682402
0.0682219
0.0682042
0.068185
0.0681637
0.0681409
0.0681162
0.0680892
0.0680593
0.0680257
0.0679878
0.0679443
0.0678945
0.0678366
0.0677687
0.0676888
0.0675941
0.0674813
0.0673461
0.0671836
0.0669874
0.0667496
0.0664606
0.0661079
0.0656769
0.0651423
0.0644859
0.0682754
0.0682699
0.0682568
0.0682397
0.0682225
0.0682055
0.0681871
0.0681668
0.0681449
0.0681213
0.0680955
0.068067
0.0680352
0.0679995
0.0679588
0.0679122
0.0678583
0.0677954
0.0677217
0.0676346
0.0675311
0.0674075
0.0672592
0.0670805
0.0668642
0.0666017
0.0662811
0.0658888
0.0654001
0.0647979
0.0682699
0.0682654
0.0682545
0.0682394
0.0682234
0.068207
0.0681895
0.0681703
0.0681495
0.068127
0.0681026
0.0680758
0.0680461
0.0680128
0.0679751
0.0679322
0.0678828
0.0678255
0.0677586
0.0676799
0.0675867
0.0674758
0.0673431
0.0671838
0.0669914
0.0667582
0.0664736
0.0661252
0.0656899
0.0651521
0.068266
0.0682622
0.0682528
0.0682395
0.0682246
0.068209
0.0681924
0.0681742
0.0681545
0.0681333
0.0681104
0.0680853
0.0680577
0.0680271
0.0679927
0.0679537
0.0679092
0.0678579
0.0677983
0.0677286
0.0676466
0.0675495
0.0674338
0.0672954
0.0671289
0.0669277
0.0666826
0.0663828
0.0660078
0.0655438
0.0682635
0.0682602
0.0682519
0.0682399
0.0682261
0.0682114
0.0681956
0.0681784
0.0681599
0.06814
0.0681187
0.0680955
0.0680703
0.0680424
0.0680115
0.0679767
0.0679374
0.0678925
0.0678408
0.0677808
0.0677107
0.0676282
0.0675306
0.0674145
0.0672757
0.0671087
0.0669061
0.0666592
0.0663507
0.065969
0.0682622
0.0682592
0.0682518
0.0682409
0.0682281
0.0682141
0.0681992
0.068183
0.0681657
0.0681472
0.0681274
0.0681063
0.0680835
0.0680586
0.0680312
0.068001
0.0679671
0.0679289
0.0678854
0.0678355
0.0677779
0.0677107
0.0676321
0.0675394
0.0674296
0.0672987
0.0671411
0.0669505
0.0667136
0.0664217
0.0682619
0.0682591
0.0682524
0.0682423
0.0682303
0.0682172
0.068203
0.0681879
0.0681717
0.0681546
0.0681366
0.0681175
0.0680972
0.0680754
0.0680518
0.0680262
0.067998
0.0679667
0.0679318
0.0678923
0.0678476
0.0677963
0.0677373
0.0676688
0.067589
0.0674955
0.0673847
0.067253
0.0670916
0.0668955
0.0682625
0.0682599
0.0682537
0.0682443
0.068233
0.0682205
0.0682072
0.068193
0.068178
0.0681624
0.068146
0.0681291
0.0681113
0.0680926
0.0680729
0.068052
0.0680296
0.0680055
0.0679792
0.0679505
0.0679189
0.0678839
0.0678448
0.0678011
0.0677519
0.0676965
0.0676337
0.0675623
0.0674789
0.0673823
0.068264
0.0682616
0.0682556
0.0682467
0.068236
0.0682242
0.0682116
0.0681984
0.0681845
0.0681703
0.0681557
0.0681408
0.0681257
0.0681102
0.0680944
0.0680782
0.0680617
0.0680448
0.0680274
0.0680095
0.0679912
0.0679725
0.0679536
0.0679347
0.0679163
0.0678993
0.0678845
0.0678739
0.0678692
0.0678736
0.0682663
0.068264
0.0682582
0.0682496
0.0682393
0.068228
0.0682162
0.0682038
0.0681911
0.0681783
0.0681654
0.0681527
0.0681401
0.0681278
0.0681159
0.0681046
0.0680939
0.0680842
0.0680756
0.0680686
0.0680635
0.0680611
0.0680622
0.068068
0.0680802
0.0681011
0.068134
0.0681833
0.0682562
0.0683604
0.0682694
0.0682672
0.0682614
0.068253
0.0682429
0.0682321
0.0682209
0.0682094
0.0681978
0.0681863
0.0681751
0.0681644
0.0681545
0.0681453
0.0681373
0.0681308
0.0681259
0.0681233
0.0681234
0.0681271
0.0681351
0.0681488
0.0681696
0.0681996
0.0682417
0.0682996
0.0683786
0.068486
0.0686336
0.0688335
0.0682734
0.0682711
0.0682652
0.0682567
0.0682468
0.0682364
0.0682257
0.068215
0.0682044
0.0681942
0.0681847
0.0681761
0.0681686
0.0681626
0.0681584
0.0681565
0.0681573
0.0681617
0.0681703
0.0681844
0.0682052
0.0682345
0.0682744
0.0683279
0.0683989
0.0684923
0.0686154
0.0687778
0.0689953
0.0692842
0.0682782
0.0682757
0.0682696
0.0682608
0.0682508
0.0682407
0.0682306
0.0682206
0.0682109
0.068202
0.068194
0.0681874
0.0681824
0.0681794
0.0681788
0.0681814
0.0681878
0.0681989
0.0682158
0.06824
0.0682731
0.0683174
0.0683756
0.0684516
0.0685499
0.0686769
0.0688414
0.0690547
0.069336
0.0697048
0.0682838
0.0682811
0.0682745
0.0682652
0.068255
0.0682451
0.0682354
0.0682261
0.0682173
0.0682095
0.068203
0.0681983
0.0681956
0.0681955
0.0681985
0.0682054
0.0682171
0.0682346
0.0682594
0.0682932
0.068338
0.0683965
0.0684722
0.0685692
0.0686933
0.0688516
0.069054
0.0693136
0.0696514
0.0700892
0.0682904
0.0682874
0.0682799
0.0682697
0.0682592
0.0682494
0.0682402
0.0682314
0.0682233
0.0682166
0.0682116
0.0682087
0.0682082
0.0682107
0.0682171
0.0682281
0.0682448
0.0682684
0.0683006
0.0683434
0.0683992
0.0684711
0.068563
0.0686797
0.0688274
0.0690143
0.0692511
0.0695517
0.0699381
0.070433
0.0682981
0.0682945
0.0682858
0.0682744
0.0682634
0.0682537
0.0682448
0.0682364
0.0682291
0.0682234
0.0682197
0.0682184
0.0682199
0.0682251
0.0682345
0.0682493
0.0682707
0.0683
0.0683391
0.0683903
0.0684563
0.0685406
0.0686473
0.068782
0.0689513
0.0691639
0.0694311
0.0697674
0.0701942
0.0707342
0.0683071
0.0683026
0.068292
0.0682791
0.0682675
0.068258
0.0682492
0.0682411
0.0682344
0.0682296
0.0682271
0.0682273
0.0682307
0.0682381
0.0682505
0.0682687
0.0682943
0.0683288
0.0683743
0.0684331
0.0685084
0.0686038
0.068724
0.0688748
0.0690634
0.0692987
0.0695924
0.0699589
0.0704186
0.0709925
0.0683177
0.0683118
0.0682985
0.0682835
0.0682714
0.068262
0.0682533
0.0682455
0.0682393
0.0682353
0.068234
0.0682355
0.0682407
0.0682502
0.0682651
0.0682865
0.068316
0.0683551
0.0684063
0.068472
0.0685555
0.0686609
0.0687931
0.0689581
0.0691634
0.0694184
0.0697346
0.0701263
0.0706121
0.0712104
0.0683304
0.0683223
0.0683049
0.0682875
0.0682752
0.0682658
0.068257
0.0682491
0.0682433
0.0682401
0.0682396
0.0682423
0.068249
0.0682603
0.0682775
0.0683017
0.0683345
0.0683777
0.0684338
0.0685055
0.0685963
0.0687104
0.0688529
0.0690301
0.0692498
0.0695213
0.0698563
0.0702684
0.070775
0.0713908
0.0683461
0.0683341
0.0683106
0.0682907
0.0682788
0.0682697
0.0682608
0.0682529
0.0682476
0.0682449
0.0682453
0.068249
0.0682569
0.0682698
0.0682889
0.0683154
0.0683511
0.0683978
0.0684581
0.0685349
0.0686318
0.0687531
0.0689043
0.0690917
0.0693232
0.0696081
0.069958
0.0703864
0.0709097
0.0715394
0.0683662
0.0683471
0.0683147
0.0682924
0.068281
0.0682718
0.0682625
0.0682547
0.0682497
0.0682476
0.0682486
0.0682532
0.0682622
0.0682764
0.0682971
0.0683256
0.0683636
0.0684133
0.068477
0.0685579
0.0686598
0.068787
0.0689451
0.0691409
0.0693817
0.0696769
0.0700381
0.0704786
0.0710166
0.0716596
0.0683926
0.068361
0.068319
0.0682967
0.0682859
0.0682759
0.0682659
0.0682581
0.0682532
0.0682515
0.0682529
0.068258
0.0682677
0.0682829
0.0683047
0.0683346
0.0683744
0.0684262
0.0684926
0.0685766
0.0686823
0.0688139
0.0689772
0.0691789
0.0694266
0.0697291
0.0700978
0.0705454
0.0710964
0.0717608
0.0684293
0.0683609
0.068312
0.0682958
0.0682868
0.0682762
0.0682659
0.0682583
0.0682539
0.0682525
0.0682543
0.0682599
0.0682702
0.0682861
0.0683088
0.0683398
0.0683808
0.0684341
0.0685023
0.0685885
0.0686967
0.0688315
0.0689986
0.0692043
0.0694563
0.0697634
0.0701357
0.0705845
0.0711354
0.0718366
0.0685052
0.0683705
0.0683104
0.0682976
0.0682896
0.0682782
0.0682675
0.0682599
0.0682555
0.0682541
0.068256
0.0682618
0.0682724
0.0682886
0.0683117
0.0683432
0.0683848
0.0684388
0.0685079
0.0685953
0.0687047
0.0688413
0.0690104
0.0692181
0.0694721
0.0697813
0.0701543
0.0706002
0.0711129
0.0716785
0.0631217
0.062322
0.0618967
0.0617845
0.0616484
0.0614102
0.0611333
0.0608593
0.0605943
0.0603357
0.0600829
0.0598366
0.059596
0.0593595
0.0591249
0.0588899
0.0586517
0.0584066
0.0581498
0.0578744
0.0575704
0.0572191
0.0568053
0.0562226
0.0556104
0.0539053
0.053516
0.0448411
0.0480554
-0.00542035
0.0635916
0.0628506
0.0623288
0.0621258
0.0619372
0.0616848
0.0614138
0.0611662
0.060938
0.0607185
0.0605056
0.0603007
0.0601038
0.0599139
0.0597303
0.0595523
0.059379
0.0592094
0.0590419
0.058874
0.0587015
0.0585167
0.0583068
0.0580266
0.0576988
0.0567763
0.0565005
0.050529
0.052878
0.00920278
0.0632146
0.0627718
0.0624444
0.0622889
0.0621306
0.0619169
0.0616943
0.061493
0.0613064
0.0611255
0.0609514
0.0607873
0.0606344
0.0604925
0.0603623
0.0602446
0.0601405
0.0600515
0.0599792
0.059926
0.0598937
0.0598841
0.0598952
0.0599145
0.0599371
0.0597016
0.0597925
0.0561761
0.0581691
0.0238829
0.0632368
0.0629888
0.0627784
0.0626089
0.0624369
0.0622459
0.0620593
0.0618919
0.0617387
0.0615945
0.061461
0.0613409
0.0612357
0.0611462
0.0610743
0.0610224
0.0609938
0.0609927
0.0610244
0.0610957
0.0612155
0.0613947
0.0616444
0.061977
0.0623941
0.0628088
0.063442
0.0619232
0.0639894
0.0383768
0.0633884
0.0632122
0.0630572
0.0629027
0.0627502
0.0626001
0.0624591
0.0623319
0.0622172
0.0621139
0.062024
0.0619507
0.0618959
0.0618621
0.0618525
0.0618712
0.0619238
0.0620172
0.0621604
0.0623654
0.0626477
0.0630278
0.0635305
0.06419
0.0650319
0.0660758
0.0673837
0.0677291
0.0702584
0.0526024
0.0636217
0.0634967
0.0633923
0.0632686
0.0631428
0.0630271
0.0629234
0.0628324
0.0627552
0.0626929
0.062648
0.0626234
0.062622
0.0626475
0.0627044
0.0627988
0.0629382
0.0631326
0.0633948
0.063742
0.0641965
0.0647886
0.0655572
0.0665571
0.0678436
0.06951
0.0715756
0.0735895
0.0768779
0.0664658
0.0639207
0.0638358
0.0637712
0.0636773
0.06358
0.0634985
0.0634331
0.0633816
0.0633454
0.0633272
0.0633299
0.0633568
0.063412
0.0635003
0.0636277
0.0638021
0.0640336
0.0643348
0.0647227
0.0652195
0.0658548
0.0666683
0.0677131
0.0690638
0.0708072
0.0730922
0.0759615
0.0794721
0.0837673
0.0797775
0.0642749
0.0642258
0.0641975
0.0641356
0.0640703
0.0640244
0.0639975
0.063986
0.0639917
0.0640185
0.0640702
0.0641508
0.0642651
0.0644191
0.0646206
0.0648791
0.065207
0.0656202
0.0661394
0.066792
0.0676146
0.0686566
0.0699847
0.0716928
0.0738981
0.0767951
0.0804829
0.0853377
0.0908202
0.0923645
0.0646811
0.0646652
0.0646708
0.0646412
0.064609
0.0645988
0.0646103
0.0646395
0.0646885
0.064762
0.0648646
0.0650009
0.0651767
0.0653992
0.0656775
0.0660233
0.0664512
0.0669801
0.0676347
0.0684474
0.0694618
0.0707364
0.0723512
0.074418
0.0770829
0.0805787
0.0850738
0.0911321
0.0979129
0.104069
0.0651341
0.0651498
0.0651878
0.0651908
0.0651923
0.0652183
0.0652687
0.0653393
0.0654325
0.0655538
0.0657084
0.0659017
0.0661404
0.066433
0.0667902
0.0672254
0.0677554
0.0684023
0.0691945
0.0701694
0.071377
0.0728848
0.074785
0.077206
0.0803202
0.0843926
0.0896612
0.0967881
0.104901
0.114729
0.0656298
0.0656753
0.0657439
0.0657793
0.065815
0.0658773
0.0659664
0.0660785
0.0662163
0.0663857
0.0665929
0.0668438
0.0671463
0.0675098
0.0679466
0.0684718
0.0691047
0.0698699
0.0707996
0.0719359
0.0733349
0.0750724
0.0772514
0.0800157
0.0835604
0.0881766
0.0941652
0.102227
0.111616
0.124131
0.0661612
0.0662349
0.0663322
0.0663995
0.0664694
0.0665677
0.0666951
0.0668484
0.0670305
0.0672479
0.0675073
0.0678156
0.0681814
0.0686154
0.0691311
0.0697454
0.0704797
0.0713614
0.0724259
0.0737197
0.0753045
0.0772634
0.0797093
0.0827986
0.0867461
0.0918628
0.0985016
0.107361
0.11788
0.13207
0.0667206
0.0668206
0.0669443
0.0670426
0.0671462
0.0672797
0.0674444
0.0676378
0.0678632
0.0681274
0.0684378
0.068802
0.0692295
0.069732
0.0703243
0.071025
0.0718573
0.072851
0.0740447
0.0754886
0.0772495
0.0794166
0.0821113
0.0855005
0.0898142
0.0953774
0.102583
0.112099
0.123539
0.138567
0.0672979
0.0674222
0.0675699
0.0676977
0.0678339
0.0680012
0.0682016
0.0684332
0.0686999
0.0690089
0.069368
0.0697855
0.0702716
0.0708391
0.071504
0.0722861
0.0732106
0.0743093
0.0756233
0.0772064
0.0791293
0.0814865
0.0844061
0.0880628
0.0926979
0.0986441
0.106322
0.116346
0.128492
0.143863
0.0678821
0.0680282
0.0681973
0.0683527
0.0685197
0.0687187
0.0689522
0.0692195
0.0695247
0.0698753
0.0702795
0.0707462
0.0712865
0.0719138
0.0726453
0.073502
0.0745104
0.0757042
0.0771268
0.0788344
0.0809012
0.0834255
0.0865403
0.0904255
0.0953294
0.101586
0.109633
0.120015
0.132665
0.147837
0.0684608
0.0686263
0.0688138
0.0689943
0.0691896
0.0694175
0.069681
0.0699804
0.0703202
0.0707081
0.0711527
0.0716634
0.0722519
0.0729323
0.0737226
0.0746447
0.0757265
0.077003
0.0785192
0.0803335
0.0825221
0.0851861
0.0884612
0.0925302
0.0976436
0.104132
0.112435
0.123022
0.13594
0.150292
0.0690215
0.0692037
0.0694066
0.0696091
0.0698295
0.0700828
0.0703723
0.0706994
0.0710691
0.0714892
0.0719683
0.0725164
0.0731457
0.0738709
0.0747104
0.0756871
0.0768296
0.0781739
0.0797663
0.0816662
0.0839512
0.0867238
0.0901204
0.0943236
0.0995822
0.106217
0.114656
0.125281
0.138158
0.151288
0.0695523
0.0697482
0.0699635
0.0701844
0.070426
0.0707005
0.0710114
0.0713612
0.0717553
0.0722012
0.072708
0.073286
0.0739475
0.0747077
0.0755856
0.0766044
0.0777932
0.0791886
0.0808375
0.0827997
0.0851534
0.0880005
0.0914768
0.0957615
0.101097
0.107788
0.11624
0.126719
0.139203
0.150944
0.0700423
0.070249
0.0704735
0.070709
0.0709674
0.0712584
0.0715857
0.0719525
0.0723646
0.0728296
0.0733565
0.0739558
0.0746401
0.0754248
0.0763289
0.0773761
0.0785955
0.0800239
0.0817082
0.083708
0.0861007
0.0889868
0.0924991
0.096811
0.102155
0.108809
0.117146
0.127292
0.139171
0.149185
0.0704832
0.0706978
0.0709286
0.0711745
0.0714449
0.0717472
0.0720854
0.0724632
0.0728867
0.0733634
0.0739023
0.0745138
0.0752107
0.0760085
0.0769262
0.0779873
0.0792209
0.0806635
0.0823613
0.0843731
0.0867746
0.0896635
0.0931679
0.0974526
0.102737
0.109267
0.117373
0.127016
0.138205
0.145802
0.0708693
0.0710887
0.0713228
0.0715748
0.0718523
0.0721608
0.0725042
0.0728869
0.073315
0.0737959
0.0743384
0.074953
0.0756523
0.0764518
0.0773702
0.0784307
0.079662
0.0811
0.0827898
0.0847886
0.0871696
0.0900268
0.0934819
0.0976889
0.10285
0.109172
0.116948
0.125928
0.136373
0.141016
0.071199
0.0714205
0.0716552
0.0719092
0.0721887
0.0724981
0.0728413
0.0732227
0.0736485
0.074126
0.0746639
0.0752724
0.0759641
0.076754
0.0776605
0.0787064
0.0799196
0.0813349
0.0829961
0.0849582
0.0872912
0.090084
0.0934508
0.0975322
0.102511
0.108548
0.11591
0.124082
0.133748
0.135187
0.0714724
0.0716934
0.0719258
0.0721779
0.0724549
0.0727604
0.0730981
0.0734727
0.07389
0.0743573
0.0748828
0.0754766
0.076151
0.0769206
0.0778033
0.0788211
0.0800011
0.0813767
0.0829899
0.0848931
0.0871523
0.0898505
0.0930931
0.0970053
0.101751
0.107435
0.114318
0.121556
0.130426
0.12806
0.0716957
0.0719134
0.0721403
0.0723863
0.0726563
0.0729532
0.0732803
0.0736422
0.0740448
0.0744951
0.0750011
0.0755725
0.076221
0.0769606
0.0778087
0.0787864
0.0799196
0.0812403
0.0827881
0.0846125
0.0867751
0.0893523
0.0924401
0.0961465
0.100616
0.105894
0.112249
0.118423
0.126515
0.11956
0.0718751
0.0720868
0.0723044
0.0725407
0.0728009
0.0730865
0.0733996
0.0737446
0.0741273
0.0745547
0.0750343
0.0755755
0.0761897
0.0768904
0.0776941
0.0786208
0.0796952
0.0809476
0.0824151
0.0841439
0.0861909
0.0886253
0.0915331
0.0950041
0.0991652
0.10399
0.109784
0.114754
0.122119
0.109951
0.0720259
0.0722275
0.0724268
0.0726467
0.0728931
0.0731633
0.0734579
0.0737822
0.0741419
0.0745429
0.0749918
0.0754976
0.0760713
0.0767259
0.0774768
0.0783434
0.0793487
0.0805212
0.0818956
0.0835146
0.0854302
0.0877042
0.0904124
0.0936252
0.0974537
0.101788
0.107007
0.11065
0.117346
0.09947
0.0721661
0.0723541
0.0725257
0.072727
0.0729627
0.0732182
0.0734891
0.073786
0.0741165
0.074485
0.0748975
0.0753625
0.0758902
0.0764927
0.0771845
0.0779837
0.0789122
0.0799962
0.0812681
0.0827669
0.0845397
0.0866405
0.0891351
0.0920733
0.0955536
0.0993693
0.104016
0.106188
0.112313
0.0883545
0.0723385
0.0724581
0.0725595
0.0727369
0.0729671
0.073211
0.0734646
0.0737401
0.0740427
0.074377
0.0747498
0.0751698
0.0756468
0.0761916
0.076818
0.077543
0.0783868
0.0793741
0.0805346
0.0819038
0.0835241
0.085442
0.0877136
0.0903667
0.0934938
0.0967674
0.10088
0.101421
0.107159
0.0768303
0.0727607
0.0727274
0.0726848
0.0728112
0.0730169
0.0732324
0.0734599
0.0737134
0.0739881
0.0742872
0.0746188
0.0749923
0.0754173
0.0759027
0.076462
0.0771111
0.0778688
0.0787576
0.0798048
0.0810424
0.0825078
0.0842401
0.0862858
0.0886496
0.0914239
0.0941344
0.0977666
0.0965119
0.102032
0.0651312
0.0727394
0.0724762
0.0724244
0.0726311
0.0728945
0.0731312
0.0733503
0.0735713
0.0738092
0.0740726
0.0743622
0.0746849
0.0750514
0.0754702
0.0759531
0.0765153
0.0771745
0.0779522
0.0788734
0.0799673
0.0812677
0.0828064
0.0846232
0.086693
0.0891366
0.0912524
0.0945525
0.091296
0.096841
0.0535019
0.0433754
0.0328128
0.0209933
0.0089241
-0.00263742
-0.0133372
-0.0228585
-0.0307909
-0.0366194
-0.0397803
-0.0398038
-0.0368033
-0.0317045
-0.0262615
-0.0218595
-0.0191713
-0.0182156
-0.0172152
-0.0165863
-0.0175867
-0.0189775
-0.0192053
-0.0187619
-0.0183318
-0.0179418
-0.0176372
-0.0172939
-0.0170403
-0.0171699
-0.018258
0.0915334
0.0838136
0.0755411
0.0674579
0.059123
0.0503516
0.0414882
0.0328743
0.0247369
0.017248
0.0111545
0.00687221
0.00418623
0.00240545
0.000161539
-0.00304471
-0.00730118
-0.0124449
-0.0169026
-0.019113
-0.0187347
-0.0163517
-0.0133544
-0.0110548
-0.00873001
-0.00556702
-0.00277531
-0.0015065
-0.00204434
-0.00440274
0.0871448
0.0821603
0.0763403
0.0698897
0.0626322
0.0546415
0.0461343
0.0374419
0.0292246
0.0221526
0.016339
0.0117128
0.0081989
0.00529854
0.00190208
-0.00243498
-0.00762067
-0.0120314
-0.0147039
-0.0159043
-0.0151991
-0.0128434
-0.00969587
-0.00631001
-0.00281035
-0.000170093
-0.000512768
-0.00462184
-0.0118286
-0.0212095
0.0921257
0.0889099
0.0847389
0.0798965
0.0742916
0.0678504
0.0606603
0.052934
0.0449967
0.0372332
0.0299224
0.0234357
0.0179507
0.0132893
0.00897099
0.0047546
0.00102026
-0.00173278
-0.00362626
-0.00488013
-0.00561047
-0.0058451
-0.00565591
-0.00565356
-0.00693221
-0.0105659
-0.0171346
-0.0260074
-0.0367046
-0.0474284
0.0893578
0.0874028
0.0849286
0.0816678
0.0775707
0.0726633
0.0669437
0.0604429
0.05332
0.0458985
0.0385815
0.0317562
0.0256764
0.0203775
0.0156893
0.0114602
0.00780572
0.00482478
0.00247953
0.000749595
-0.000573762
-0.00171525
-0.00324947
-0.00603044
-0.0108391
-0.0180913
-0.027368
-0.0375091
-0.0481092
-0.0577761
0.0877939
0.0866277
0.0849712
0.0825381
0.0793077
0.0752691
0.0703879
0.0646638
0.0581986
0.0512313
0.0441113
0.0372144
0.030855
0.0251929
0.0201989
0.0157739
0.0119139
0.00866199
0.00601553
0.00385837
0.00187866
-0.000320384
-0.00333926
-0.00771115
-0.0135918
-0.0206311
-0.0280642
-0.0351411
-0.0414994
-0.0466233
0.0856615
0.0849738
0.0839272
0.0822483
0.0798318
0.0766422
0.0726159
0.0677081
0.0619589
0.0555282
0.0486982
0.0418324
0.0352907
0.0293235
0.0240113
0.0193267
0.0152552
0.0118046
0.00891401
0.00637631
0.00383621
0.000876055
-0.00289188
-0.00759819
-0.0129949
-0.0185243
-0.0234909
-0.0274316
-0.0300608
-0.0314087
0.08384
0.0834923
0.0828681
0.0816624
0.079804
0.0772456
0.0738955
0.0696725
0.0645677
0.0586782
0.0522234
0.0455305
0.0389676
0.0328392
0.0273093
0.0224172
0.0181587
0.0145068
0.0113507
0.00845161
0.00547816
0.00211628
-0.0017875
-0.00609741
-0.0103871
-0.0140739
-0.0166777
-0.01785
-0.0174217
-0.015569
0.082202
0.0820635
0.081712
0.0808548
0.079425
0.0773636
0.0745579
0.0709013
0.0663505
0.0609556
0.0548833
0.0484202
0.0419249
0.0357331
0.0300676
0.0250214
0.0206057
0.0167755
0.0134001
0.0102506
0.00706128
0.00365271
5.36893e-05
-0.00344308
-0.00638165
-0.00829568
-0.00884579
-0.00792926
-0.00558866
-0.00238694
0.0808022
0.0808016
0.0806339
0.0800314
0.0789182
0.0772387
0.074868
0.0716833
0.0676127
0.0626659
0.0569625
0.0507482
0.0443646
0.038164
0.0324132
0.0272502
0.022708
0.0187406
0.0152197
0.0119496
0.00874557
0.00555028
0.00251478
-3.27448e-05
-0.00167475
-0.00208563
-0.00112527
0.0010581
0.00423993
0.00759618
0.0796121
0.0796985
0.0796471
0.0792128
0.0783517
0.0769733
0.0749536
0.0721613
0.0685038
0.0639575
0.0586008
0.0526401
0.0463948
0.0402235
0.0344252
0.0291776
0.0245398
0.0204777
0.0168804
0.0135975
0.0105244
0.00769556
0.00531419
0.00370929
0.00320388
0.00395623
0.0059125
0.00874726
0.0121752
0.015325
0.0786078
0.0787517
0.0787801
0.0784753
0.0777903
0.076645
0.0749073
0.0724391
0.069133
0.0649389
0.0598995
0.0541849
0.0480898
0.0419721
0.0361543
0.0308492
0.0261446
0.0220272
0.0184135
0.0152032
0.0123606
0.00997468
0.00827133
0.00753319
0.00795951
0.00954711
0.0120948
0.0151897
0.0185733
0.021402
0.0777602
0.0779414
0.0780223
0.0778109
0.0772623
0.0762991
0.0747882
0.0725884
0.0695814
0.0656955
0.0609428
0.0554605
0.049518
0.0434678
0.03765
0.0323085
0.027562
0.0234236
0.0198432
0.0167692
0.0142155
0.0123053
0.0112535
0.0112673
0.0124168
0.0145657
0.0174178
0.0205421
0.0237358
0.0261995
0.0770442
0.0772506
0.077367
0.0772247
0.0767824
0.0759628
0.0746354
0.0726582
0.0699055
0.0662884
0.0617928
0.0565258
0.0507323
0.0447564
0.0389515
0.0335899
0.0288214
0.02469
0.0211815
0.0182865
0.0160536
0.0146197
0.0141642
0.0148048
0.0164924
0.0189918
0.021955
0.0249788
0.0279138
0.030028
0.0764373
0.0766617
0.0768032
0.0767134
0.0763555
0.0756512
0.0744735
0.0726818
0.0701456
0.0667623
0.0624956
0.0574256
0.0517735
0.0458735
0.0400893
0.034719
0.0299443
0.025842
0.0224342
0.0197439
0.0178455
0.0168687
0.016941
0.0180878
0.0201587
0.0228529
0.0258029
0.0286609
0.0313177
0.0331432
0.0759204
0.0761586
0.0763192
0.0762708
0.0759798
0.0753716
0.074318
0.072682
0.0703308
0.0671509
0.0630871
0.0581952
0.0526744
0.0468482
0.0410882
0.0357169
0.0309476
0.0268908
0.0236029
0.0211335
0.0195694
0.0190181
0.0195456
0.0210898
0.0234199
0.0261974
0.0290594
0.0317302
0.0341241
0.0357486
0.0754772
0.0757272
0.0759034
0.0758901
0.0756567
0.0751273
0.0741781
0.0726744
0.0704822
0.0674794
0.0635948
0.0588627
0.0534616
0.047704
0.0419685
0.0366006
0.0318445
0.0278448
0.0246883
0.0224474
0.0212087
0.0210452
0.0219573
0.0238046
0.0262966
0.0290808
0.0318163
0.0343085
0.036482
0.0380054
0.0750943
0.0753551
0.0755452
0.0755627
0.0753796
0.0749186
0.074059
0.0726693
0.070615
0.0677669
0.0640403
0.0594505
0.0541564
0.0484603
0.0427469
0.0373835
0.032645
0.0287098
0.0256919
0.0236811
0.0227523
0.0229363
0.0241676
0.0262383
0.0288179
0.0315585
0.0341562
0.0364995
0.0385123
0.0400355
0.0747607
0.0750316
0.0752347
0.0752808
0.0751438
0.0747441
0.0739633
0.0726737
0.0707401
0.068028
0.0644406
0.0599764
0.0547763
0.0491327
0.0434366
0.0380766
0.0333573
0.0294902
0.0266145
0.0248306
0.0241929
0.0246843
0.0261758
0.0284042
0.0310164
0.0336839
0.0361531
0.0383895
0.040305
0.0419204
0.0744681
0.074748
0.0749633
0.0750369
0.0749437
0.0746011
0.0738917
0.0726915
0.0708653
0.0682734
0.064809
0.060455
0.0553357
0.0497344
0.044049
0.038689
0.0339878
0.0301901
0.0274565
0.0258933
0.0255265
0.0262867
0.0279862
0.0303188
0.0329254
0.0355082
0.0378702
0.0400458
0.0419187
0.0437167
0.0742099
0.0744977
0.0747235
0.0748238
0.0747736
0.0744858
0.0738437
0.0727254
0.0709961
0.0685119
0.0651562
0.0608983
0.0558466
0.0502761
0.0445931
0.0392277
0.0345412
0.0308119
0.0282182
0.0268678
0.0267509
0.0277446
0.029608
0.0320018
0.0345763
0.0370769
0.0393601
0.0415048
0.0434187
0.0454792
0.07398
0.0742751
0.0745094
0.0746356
0.0746279
0.0743941
0.0738172
0.072776
0.0711363
0.0687498
0.0654911
0.0613163
0.0563189
0.0507668
0.0450768
0.0396992
0.0350218
0.031357
0.0289005
0.0277545
0.0278663
0.0290595
0.03105
0.0334769
0.0360055
0.0384285
0.0406635
0.0428236
0.0448763
0.0471972
0.0737758
0.0740759
0.074316
0.074467
0.074502
0.0743223
0.0738092
0.0728425
0.071288
0.068992
0.0658204
0.0617172
0.0567611
0.0512134
0.0455053
0.0401072
0.0354309
0.0318262
0.029504
0.0285546
0.0288751
0.0302363
0.0323177
0.0347552
0.0372485
0.0396188
0.0418307
0.0440654
0.046273
0.0487955
0.073594
0.0738977
0.0741396
0.0743138
0.074391
0.0742656
0.0738174
0.0729243
0.0714522
0.0692417
0.06615
0.0621092
0.0571827
0.0516263
0.0458893
0.0404602
0.0357753
0.032229
0.030035
0.0292699
0.0297783
0.0312859
0.0334365
0.0358562
0.0383066
0.0406717
0.0429299
0.0452767
0.0476154
0.0502275
0.0734303
0.073739
0.0739782
0.0741737
0.0742911
0.0742189
0.0738394
0.0730214
0.0716298
0.0694999
0.0664797
0.0624906
0.0575792
0.0519962
0.0462194
0.0407508
0.0360322
0.0325305
0.0304746
0.0298936
0.0305715
0.0322023
0.0344237
0.0368558
0.0392706
0.0415883
0.0439104
0.0464408
0.0488927
0.0514113
0.0732801
0.0735954
0.0738299
0.0740457
0.0742005
0.0741763
0.0738667
0.0731321
0.071827
0.069783
0.0668355
0.0628966
0.0579937
0.0523693
0.0465366
0.0410307
0.0363664
0.0328164
0.0308747
0.0304518
0.031267
0.0329769
0.0352186
0.0376845
0.0402075
0.0425921
0.0449975
0.0476228
0.050038
0.0521946
0.073138
0.0734563
0.0736905
0.0739299
0.0741212
0.0741459
0.0738826
0.0732327
0.072002
0.0700354
0.0671466
0.0632407
0.0583281
0.0526486
0.0467368
0.0411238
0.0363466
0.0329424
0.0311465
0.0309034
0.0318714
0.0336847
0.0359362
0.0383085
0.0407274
0.0431677
0.0459756
0.0487033
0.0510874
0.0525188
0.0730152
0.0733102
0.0735488
0.0738155
0.0740428
0.0741314
0.0739726
0.0734123
0.0722722
0.0704073
0.0676086
0.0637487
0.0588128
0.0530608
0.0471165
0.0414595
0.0365556
0.0331106
0.0314154
0.0313194
0.0324124
0.0343485
0.0367828
0.0393829
0.0418846
0.04439
0.0471489
0.0497165
0.0517077
0.0519438
0.0729423
0.0731638
0.0734062
0.0736926
0.0739369
0.0740486
0.0739205
0.0734158
0.0723857
0.0705964
0.067836
0.063961
0.0589584
0.0530802
0.0470803
0.0414117
0.0365158
0.0331188
0.0315598
0.0315562
0.0327027
0.034571
0.0368384
0.0393399
0.0419639
0.0449328
0.0479793
0.0505009
0.0524697
0.0516508
0.0729624
0.0730728
0.0733029
0.0735979
0.0738756
0.0740605
0.0740494
0.0736932
0.072793
0.0711374
0.0685331
0.064748
0.0597046
0.0537056
0.0474556
0.0415527
0.0364557
0.0330714
0.0316691
0.0319039
0.0333445
0.0354673
0.0379515
0.040708
0.0435418
0.0464185
0.0492076
0.0511772
0.0510681
0.0485173
-0.115149
-0.117495
-0.0489502
-0.00350572
0.0206452
0.0346076
0.0407381
0.0433455
0.0443151
0.0447
0.0450119
0.0453759
0.0458468
0.0464653
0.0471864
0.0479691
0.0487805
0.0495943
0.0503951
0.051167
0.0519174
0.0526238
0.0533325
0.0539851
0.0547097
0.0553627
0.0562199
0.0568961
0.0581666
0.0575894
-0.117228
-0.117889
-0.0546994
-0.00358799
0.0226934
0.0366364
0.0428702
0.0452715
0.0459157
0.0459426
0.0459054
0.0459515
0.0461741
0.0465903
0.0471634
0.0478434
0.0485882
0.0493629
0.0501457
0.0509145
0.0516717
0.0523932
0.0531124
0.0537775
0.0544749
0.0550955
0.0557821
0.0562646
0.0570155
0.0569883
-0.119272
-0.121343
-0.0623703
-0.0051391
0.0242137
0.0387777
0.0453247
0.0476122
0.0479093
0.0474929
0.0470195
0.0466941
0.0465944
0.046753
0.0471374
0.0476881
0.0483511
0.0490803
0.0498433
0.0506126
0.0513791
0.0521239
0.0528567
0.0535529
0.0542398
0.0548724
0.0555169
0.056085
0.0567289
0.0572543
-0.120697
-0.126576
-0.0695809
-0.00640361
0.0268737
0.0423691
0.0488798
0.0507151
0.0504058
0.0493678
0.0483654
0.0476134
0.0471725
0.0470774
0.0472873
0.0477267
0.0483244
0.0490212
0.0497726
0.0505449
0.05132
0.0520811
0.0528268
0.0535474
0.0542528
0.054931
0.055613
0.0562707
0.0569533
0.0575983
-0.121151
-0.131005
-0.0762346
-0.00806121
0.029958
0.0469763
0.0533888
0.0545766
0.0534732
0.0516423
0.0499957
0.0487254
0.0478718
0.0474712
0.0474725
0.04778
0.0483009
0.0489586
0.049695
0.0504679
0.0512514
0.0520271
0.0527873
0.0535257
0.0542453
0.0549425
0.0556273
0.0562948
0.0569514
0.0576169
-0.120312
-0.13364
-0.0830206
-0.0109744
0.03252
0.0520823
0.0587501
0.0592325
0.0571838
0.05436
0.0519383
0.0500298
0.0486547
0.0478597
0.0475883
0.0477259
0.048152
0.0487655
0.0494895
0.0502699
0.0510721
0.0518731
0.0526597
0.0534235
0.0541625
0.054875
0.0555627
0.0562328
0.056872
0.0575598
-0.11795
-0.135152
-0.0896217
-0.015308
0.0339686
0.0573347
0.0649586
0.0648318
0.0616816
0.057514
0.0541651
0.051509
0.0495095
0.0482232
0.0476121
0.0475442
0.0478639
0.0484368
0.0491589
0.0499601
0.050796
0.051637
0.0524648
0.0532688
0.0540437
0.0547882
0.0555007
0.0561927
0.0568372
0.0575351
-0.114117
-0.135688
-0.0951848
-0.0211065
0.0335373
0.0619016
0.0715952
0.0711867
0.0670214
0.0611695
0.0566062
0.0530615
0.0503852
0.0485138
0.0474868
0.0471717
0.0473764
0.0479202
0.0486591
0.0495008
0.0503902
0.0512903
0.0521772
0.053038
0.0538653
0.0546569
0.0554089
0.0561339
0.0567961
0.05751
-0.109043
-0.134422
-0.100107
-0.0284203
0.0303118
0.0642881
0.0775739
0.0779138