/*--------------------------------*- C++ -*----------------------------------*\
  =========                 |
  \\      /  F ield         | OpenFOAM: The Open Source CFD Toolbox
   \\    /   O peration     | Website:  https://openfoam.org
    \\  /    A nd           | Version:  11
     \\/     M anipulation  |
\*---------------------------------------------------------------------------*/
FoamFile
{
    format      ascii;
    class       volScalarField;
    location    "4";
    object      p;
}
// * * * * * * * * * * * * * * * * * * * * * * * * * * * * * * * * * * * * * //

dimensions      [0 2 -2 0 0 0 0];

internalField   nonuniform List<scalar> 
12600
(
0.203961
0.203859
0.203769
0.203687
0.203588
0.203462
0.203307
0.20312
0.2029
0.202641
0.202339
0.201986
0.201575
0.201098
0.200543
0.199899
0.199152
0.198284
0.197278
0.196113
0.19476
0.193187
0.191359
0.189233
0.18676
0.183887
0.180552
0.176685
0.172235
0.167054
0.203905
0.203852
0.203776
0.203695
0.203598
0.203476
0.203323
0.203139
0.202922
0.202667
0.202368
0.202019
0.201614
0.201143
0.200596
0.199962
0.199225
0.198367
0.197374
0.196226
0.194891
0.193338
0.191532
0.189432
0.186988
0.184145
0.18084
0.177002
0.17257
0.167448
0.203901
0.203871
0.203807
0.203725
0.203627
0.203507
0.203358
0.203179
0.202967
0.202718
0.202426
0.202086
0.20169
0.201231
0.200697
0.200078
0.199359
0.198525
0.197558
0.196437
0.195135
0.193622
0.191861
0.189811
0.187421
0.184636
0.18139
0.177613
0.173215
0.168135
0.203917
0.203893
0.203837
0.20376
0.203665
0.203549
0.203407
0.203234
0.20303
0.20279
0.202509
0.202181
0.2018
0.201357
0.200844
0.200248
0.199557
0.198756
0.197827
0.19675
0.195498
0.194042
0.192347
0.19037
0.188062
0.185367
0.182214
0.17853
0.174208
0.169186
0.203949
0.203929
0.203881
0.20381
0.203721
0.20361
0.203474
0.203311
0.203116
0.202888
0.20262
0.202309
0.201946
0.201526
0.201038
0.200473
0.199818
0.199059
0.198179
0.197158
0.195971
0.194591
0.192982
0.191105
0.188908
0.186334
0.183311
0.179759
0.175555
0.17064
0.203996
0.203979
0.203936
0.203871
0.203787
0.203683
0.203556
0.203402
0.20322
0.203005
0.202755
0.202463
0.202124
0.20173
0.201274
0.200746
0.200135
0.199427
0.198607
0.197655
0.19655
0.195263
0.193763
0.192009
0.189952
0.187533
0.184678
0.181303
0.177269
0.172511
0.204055
0.20404
0.204002
0.203943
0.203865
0.203769
0.203652
0.20351
0.203342
0.203144
0.202913
0.202644
0.202332
0.20197
0.201551
0.201067
0.200507
0.199858
0.199108
0.198237
0.197227
0.196051
0.194679
0.193073
0.191185
0.188958
0.186314
0.183165
0.179361
0.174825
0.204125
0.204111
0.204078
0.204025
0.203955
0.203868
0.203762
0.203633
0.203481
0.203302
0.203093
0.202849
0.202568
0.202241
0.201864
0.201429
0.200926
0.200345
0.199673
0.198896
0.197993
0.196944
0.19572
0.194285
0.192596
0.190596
0.188207
0.185342
0.181836
0.177604
0.204205
0.204193
0.204163
0.204117
0.204055
0.203978
0.203883
0.203769
0.203634
0.203476
0.203291
0.203076
0.202828
0.202541
0.20221
0.201829
0.201389
0.200882
0.200297
0.199622
0.198839
0.197931
0.196872
0.195631
0.194169
0.192432
0.190346
0.187824
0.184695
0.180865
0.204293
0.204283
0.204257
0.204218
0.204164
0.204098
0.204016
0.203917
0.203801
0.203665
0.203506
0.203322
0.20311
0.202865
0.202584
0.20226
0.201889
0.201462
0.200971
0.200405
0.199753
0.198998
0.19812
0.197093
0.195883
0.194443
0.192706
0.190589
0.187924
0.18461
0.204388
0.20438
0.204359
0.204326
0.204281
0.204226
0.204157
0.204076
0.203979
0.203866
0.203735
0.203584
0.203409
0.20321
0.20298
0.202718
0.202419
0.202076
0.201684
0.201236
0.200721
0.200129
0.199445
0.198648
0.197713
0.196601
0.195256
0.193604
0.191492
0.188816
0.20449
0.204483
0.204467
0.20444
0.204405
0.204361
0.204307
0.204242
0.204166
0.204078
0.203975
0.203858
0.203723
0.20357
0.203395
0.203197
0.202972
0.202717
0.202428
0.202101
0.20173
0.201308
0.200826
0.200272
0.199629
0.198869
0.197952
0.196821
0.195346
0.193431
0.204597
0.204592
0.204579
0.20456
0.204534
0.204501
0.204462
0.204415
0.20436
0.204297
0.204224
0.204142
0.204048
0.203942
0.203823
0.20369
0.203541
0.203376
0.203192
0.202988
0.202764
0.202516
0.202242
0.201938
0.201596
0.201206
0.200743
0.200173
0.199406
0.198362
0.204707
0.204703
0.204695
0.204683
0.204666
0.204646
0.204621
0.204592
0.204559
0.204521
0.204479
0.204431
0.204379
0.204321
0.204259
0.204191
0.204119
0.204044
0.203965
0.203886
0.203807
0.203734
0.203668
0.203615
0.203578
0.203562
0.203565
0.203579
0.203566
0.203472
0.204819
0.204817
0.204814
0.204808
0.204801
0.204792
0.204783
0.204772
0.20476
0.204748
0.204736
0.204724
0.204713
0.204703
0.204697
0.204695
0.204699
0.204712
0.204737
0.20478
0.204846
0.204943
0.205081
0.205273
0.205535
0.205887
0.206351
0.206947
0.207698
0.208587
0.204932
0.204933
0.204933
0.204935
0.204937
0.20494
0.204945
0.204952
0.204962
0.204975
0.204992
0.205015
0.205045
0.205083
0.205132
0.205194
0.205272
0.205372
0.205498
0.205659
0.205864
0.206124
0.206457
0.206882
0.207428
0.208128
0.209027
0.210177
0.211659
0.213502
0.205046
0.205048
0.205052
0.20506
0.205071
0.205086
0.205106
0.20513
0.205161
0.205199
0.205246
0.205303
0.205373
0.205457
0.205559
0.205683
0.205833
0.206016
0.206239
0.206512
0.206847
0.207261
0.207774
0.208415
0.20922
0.210236
0.211528
0.213174
0.215308
0.218006
0.205158
0.205161
0.20517
0.205184
0.205204
0.20523
0.205264
0.205305
0.205357
0.205419
0.205494
0.205584
0.205692
0.205821
0.205974
0.206157
0.206375
0.206636
0.20695
0.207327
0.207783
0.208337
0.209014
0.209847
0.21088
0.212169
0.213795
0.215854
0.21852
0.22191
0.205267
0.205272
0.205285
0.205305
0.205333
0.20537
0.205417
0.205475
0.205546
0.205631
0.205734
0.205855
0.205999
0.20617
0.206372
0.20661
0.206893
0.207227
0.207624
0.208096
0.208661
0.20934
0.210161
0.211159
0.212383
0.213894
0.215782
0.218155
0.221203
0.225071
0.205373
0.205379
0.205395
0.205422
0.205458
0.205505
0.205564
0.205638
0.205727
0.205834
0.205962
0.206113
0.206292
0.206502
0.206749
0.207039
0.20738
0.207781
0.208253
0.208812
0.209473
0.210261
0.211203
0.212337
0.213712
0.215391
0.217464
0.220042
0.223309
0.227419
0.205474
0.205481
0.205501
0.205532
0.205576
0.205632
0.205703
0.205791
0.205898
0.206026
0.206177
0.206356
0.206566
0.206813
0.207102
0.207439
0.207833
0.208294
0.208834
0.209467
0.210212
0.211091
0.212132
0.213373
0.214859
0.216652
0.218834
0.221509
0.224838
0.228967
0.205569
0.205578
0.2056
0.205636
0.205686
0.205751
0.205833
0.205935
0.206057
0.206203
0.206377
0.206581
0.206821
0.2071
0.207427
0.207806
0.208248
0.208763
0.209362
0.210059
0.210874
0.211827
0.212946
0.214264
0.215825
0.217681
0.219904
0.22258
0.225835
0.229791
0.205659
0.205668
0.205693
0.205732
0.205788
0.205861
0.205953
0.206066
0.206203
0.206366
0.206559
0.206786
0.207052
0.207361
0.207721
0.208139
0.208623
0.209183
0.209832
0.210584
0.211456
0.212468
0.213645
0.215015
0.216617
0.218493
0.220699
0.223301
0.226377
0.230016
0.205741
0.205751
0.205777
0.20582
0.20588
0.205959
0.20606
0.206184
0.206334
0.206512
0.206723
0.20697
0.207259
0.207594
0.207983
0.208434
0.208954
0.209554
0.210245
0.211042
0.211959
0.213015
0.214232
0.215634
0.217249
0.219112
0.221259
0.223734
0.226563
0.229801
0.205816
0.205826
0.205853
0.205897
0.205961
0.206046
0.206154
0.206287
0.206448
0.206639
0.206865
0.20713
0.207439
0.207797
0.208211
0.208689
0.209239
0.209872
0.210598
0.21143
0.212382
0.21347
0.214713
0.216129
0.217739
0.219565
0.221627
0.223943
0.226495
0.229309
0.205884
0.205894
0.205918
0.205963
0.20603
0.206121
0.206235
0.206376
0.206546
0.206748
0.206987
0.207267
0.207592
0.207968
0.208403
0.208904
0.209479
0.210138
0.210891
0.211751
0.212729
0.213839
0.215096
0.216514
0.218106
0.219884
0.221849
0.224
0.22628
0.228689
0.205946
0.205953
0.205973
0.206016
0.206086
0.20618
0.2063
0.206447
0.206624
0.206835
0.207085
0.207376
0.207714
0.208106
0.208557
0.209076
0.209671
0.21035
0.211124
0.212003
0.213
0.214124
0.215387
0.216799
0.218367
0.220093
0.221966
0.223965
0.226005
0.228064
0.206003
0.206003
0.206017
0.20606
0.206131
0.206228
0.206351
0.206502
0.206686
0.206904
0.207161
0.207461
0.207809
0.208212
0.208675
0.209207
0.209816
0.21051
0.211299
0.212192
0.2132
0.214333
0.215597
0.217001
0.218544
0.220225
0.222017
0.223888
0.225741
0.227534
0.20606
0.206036
0.206039
0.206083
0.206158
0.206258
0.206383
0.206537
0.206725
0.206948
0.20721
0.207516
0.207871
0.208282
0.208754
0.209294
0.209912
0.210615
0.211413
0.212315
0.213329
0.214464
0.215726
0.217118
0.21864
0.220291
0.222036
0.223823
0.225554
0.227178
0.206145
0.206069
0.206053
0.206097
0.206175
0.206276
0.206401
0.206557
0.206746
0.206972
0.207236
0.207546
0.207904
0.208318
0.208794
0.209339
0.209961
0.210669
0.211471
0.212377
0.213393
0.214528
0.215788
0.217172
0.218676
0.220284
0.221998
0.223732
0.225422
0.226978
0.163094
0.161355
0.160104
0.159107
0.158071
0.156955
0.155817
0.154681
0.153544
0.152399
0.151239
0.15006
0.148851
0.1476
0.146289
0.144898
0.143404
0.141774
0.13997
0.137941
0.135619
0.132915
0.129699
0.125802
0.120935
0.114815
0.106613
0.0956247
0.0827422
0.0497167
0.163948
0.162623
0.161485
0.160482
0.159463
0.15841
0.157369
0.156356
0.15536
0.154367
0.153368
0.152359
0.15133
0.150269
0.149163
0.147998
0.146754
0.145407
0.143928
0.142277
0.140401
0.13823
0.135661
0.132564
0.128708
0.123883
0.117349
0.109008
0.0974482
0.0731923
0.164417
0.163403
0.162517
0.16164
0.160751
0.159868
0.159009
0.158172
0.157343
0.156517
0.155689
0.154856
0.154015
0.153156
0.152272
0.151352
0.150383
0.149348
0.148226
0.146989
0.145598
0.144002
0.142128
0.139877
0.137074
0.133571
0.128749
0.122747
0.113284
0.096525
0.165452
0.164724
0.164091
0.163361
0.162595
0.161857
0.161151
0.160465
0.15979
0.159128
0.158477
0.157836
0.157201
0.156567
0.155929
0.155282
0.154617
0.153925
0.153193
0.152404
0.151534
0.15055
0.149402
0.148023
0.146285
0.144091
0.14093
0.137068
0.129975
0.11947
0.166926
0.166413
0.165982
0.165389
0.164754
0.16417
0.163633
0.163121
0.162626
0.162153
0.161703
0.161275
0.160867
0.16048
0.160112
0.159763
0.15943
0.15911
0.158798
0.158489
0.158171
0.157826
0.157427
0.156934
0.156259
0.155345
0.15378
0.151901
0.147222
0.141837
0.168843
0.168531
0.168303
0.167869
0.167385
0.166968
0.166611
0.166282
0.165977
0.165703
0.165465
0.165265
0.165104
0.164985
0.164909
0.164882
0.164906
0.164983
0.165118
0.165313
0.165567
0.165878
0.166236
0.166621
0.166982
0.167288
0.167222
0.167144
0.164744
0.16342
0.171242
0.171129
0.171105
0.170837
0.170512
0.170268
0.170097
0.169962
0.16986
0.169802
0.169795
0.169842
0.169948
0.170116
0.170355
0.170671
0.171072
0.171567
0.172166
0.172879
0.173715
0.174683
0.175786
0.177024
0.178368
0.179809
0.181111
0.182613
0.182255
0.184031
0.174165
0.174251
0.174434
0.17434
0.174183
0.174123
0.17415
0.174222
0.174337
0.174508
0.174746
0.175056
0.175443
0.175916
0.176484
0.177158
0.17795
0.178873
0.179943
0.181176
0.182587
0.184195
0.186014
0.188052
0.190302
0.192764
0.195267
0.198092
0.199473
0.20349
0.177651
0.177937
0.178326
0.178414
0.178435
0.178567
0.178801
0.179091
0.179433
0.179845
0.180339
0.180922
0.181602
0.182388
0.183294
0.184333
0.185519
0.186871
0.188406
0.190145
0.192109
0.194322
0.196802
0.199567
0.202618
0.205959
0.209465
0.213335
0.216124
0.22162
0.181725
0.182208
0.182799
0.183073
0.183281
0.183613
0.18406
0.184574
0.18515
0.185809
0.186566
0.187427
0.188403
0.189505
0.190748
0.192147
0.193719
0.195484
0.197463
0.199679
0.202155
0.204915
0.207983
0.211377
0.215101
0.219155
0.223444
0.228079
0.231929
0.238217
0.186385
0.187057
0.18784
0.188303
0.188702
0.189238
0.1899
0.190639
0.191451
0.192357
0.193373
0.19451
0.195776
0.197185
0.198752
0.200495
0.202431
0.204581
0.206967
0.209611
0.212538
0.215772
0.219333
0.223237
0.227487
0.232073
0.236912
0.24204
0.246603
0.253075
0.191589
0.192436
0.193393
0.194041
0.194634
0.19537
0.196242
0.1972
0.198241
0.199386
0.200653
0.202051
0.203591
0.205286
0.207154
0.20921
0.211474
0.213965
0.216704
0.219713
0.223014
0.226629
0.230573
0.234856
0.239475
0.244405
0.249564
0.254922
0.259838
0.266009
0.19724
0.198241
0.199347
0.200171
0.200952
0.20188
0.202949
0.204112
0.205366
0.206732
0.208227
0.209863
0.211649
0.2136
0.215731
0.218058
0.220599
0.223374
0.2264
0.229697
0.233285
0.237178
0.241387
0.245914
0.250744
0.255839
0.261109
0.266465
0.271412
0.276933
0.203177
0.204305
0.205529
0.206511
0.207469
0.208572
0.209816
0.21116
0.212603
0.214162
0.215857
0.217696
0.21969
0.221853
0.224199
0.226744
0.229503
0.232494
0.235732
0.239234
0.243014
0.24708
0.251438
0.256078
0.260976
0.266079
0.271287
0.276465
0.281213
0.285936
0.209178
0.2104
0.211705
0.212822
0.213936
0.215189
0.216579
0.218074
0.219672
0.221389
0.223243
0.225243
0.2274
0.229724
0.23223
0.234933
0.237844
0.24098
0.244352
0.247973
0.251852
0.255992
0.26039
0.265029
0.269874
0.274858
0.279874
0.284753
0.289166
0.293148
0.214967
0.21625
0.217601
0.218823
0.220064
0.221436
0.222938
0.224546
0.226258
0.228092
0.230061
0.232174
0.234441
0.236873
0.239481
0.242278
0.245275
0.248483
0.251914
0.255574
0.259467
0.263593
0.267939
0.272481
0.277174
0.281943
0.28667
0.291166
0.295139
0.298312
0.220252
0.221565
0.22293
0.224223
0.225557
0.227011
0.228587
0.230266
0.232052
0.233957
0.235994
0.23817
0.240495
0.242979
0.245631
0.248462
0.251481
0.254697
0.258116
0.261743
0.265578
0.269612
0.27383
0.278198
0.282663
0.287138
0.291495
0.295523
0.298935
0.301294
0.224768
0.226083
0.227436
0.228766
0.230154
0.231652
0.233261
0.234972
0.236787
0.238719
0.240776
0.242968
0.245301
0.247784
0.250426
0.253236
0.25622
0.259384
0.262733
0.266267
0.26998
0.273862
0.277887
0.282019
0.286195
0.290319
0.294253
0.297771
0.300593
0.302243
0.228314
0.229611
0.230933
0.232266
0.233669
0.235172
0.236777
0.238479
0.240283
0.242198
0.244233
0.246394
0.248689
0.251124
0.253708
0.256447
0.259345
0.262408
0.265636
0.269028
0.272573
0.276257
0.28005
0.283907
0.28776
0.291499
0.294984
0.297964
0.300212
0.300953
0.230796
0.232058
0.233338
0.234645
0.236025
0.237498
0.239065
0.240724
0.24248
0.244341
0.246315
0.248407
0.250624
0.252972
0.255457
0.258085
0.260858
0.263779
0.266847
0.270056
0.273395
0.276844
0.280369
0.28392
0.287421
0.290753
0.293771
0.296175
0.29786
0.297397
0.23225
0.233462
0.234691
0.235946
0.237269
0.23868
0.240178
0.241764
0.24344
0.245214
0.247093
0.249082
0.251187
0.253413
0.255764
0.258245
0.260858
0.263602
0.266475
0.269469
0.272569
0.27575
0.278977
0.28219
0.285311
0.288209
0.290746
0.292556
0.293733
0.292096
0.232796
0.233947
0.235114
0.236294
0.237532
0.238853
0.240258
0.241743
0.243312
0.244971
0.246727
0.248584
0.250547
0.25262
0.254806
0.257109
0.259529
0.262065
0.264711
0.267458
0.270287
0.273171
0.27607
0.27892
0.281636
0.284073
0.286102
0.287268
0.287898
0.284941
0.232611
0.233687
0.234785
0.235875
0.237008
0.238219
0.239512
0.240878
0.242319
0.243841
0.245451
0.247153
0.24895
0.250846
0.252842
0.254942
0.257143
0.259443
0.261835
0.264305
0.266834
0.269391
0.271929
0.274378
0.276647
0.278571
0.280026
0.280427
0.280339
0.275824
0.231932
0.232918
0.233934
0.234921
0.235935
0.237024
0.238188
0.239419
0.240715
0.242084
0.24353
0.245059
0.246671
0.24837
0.250156
0.252031
0.253991
0.256033
0.258145
0.260313
0.262513
0.264709
0.26685
0.268855
0.270626
0.271967
0.272764
0.272278
0.271336
0.265065
0.230981
0.231863
0.232783
0.233657
0.234547
0.235504
0.236532
0.237618
0.23876
0.239964
0.241237
0.24258
0.243994
0.245482
0.247043
0.248677
0.250378
0.252141
0.253952
0.255794
0.257638
0.259442
0.261148
0.262664
0.26388
0.26457
0.264625
0.263141
0.261239
0.252915
0.229952
0.230714
0.231522
0.232277
0.233038
0.233858
0.234739
0.235669
0.236647
0.237678
0.238767
0.239915
0.241123
0.242392
0.243719
0.245102
0.246535
0.248007
0.249504
0.251003
0.25247
0.253858
0.255098
0.256087
0.2567
0.256672
0.255904
0.253298
0.250317
0.239521
0.228997
0.229626
0.230309
0.230951
0.231596
0.232287
0.233027
0.233805
0.234622
0.235481
0.236385
0.237335
0.238332
0.239375
0.240461
0.241586
0.242741
0.243914
0.245085
0.246226
0.2473
0.248249
0.248995
0.249418
0.249377
0.248563
0.246883
0.243009
0.238831
0.225058
0.228238
0.228684
0.229193
0.229704
0.230227
0.230774
0.231348
0.231951
0.232593
0.233277
0.233999
0.234756
0.235547
0.236372
0.237226
0.238101
0.238986
0.239867
0.240718
0.241508
0.242191
0.242699
0.242944
0.242786
0.242065
0.240418
0.23776
0.232484
0.227057
0.209739
0.227911
0.228154
0.228478
0.228904
0.229377
0.229862
0.230315
0.230738
0.23119
0.231687
0.232213
0.232763
0.233336
0.233933
0.234544
0.235161
0.235769
0.236349
0.236873
0.2373
0.237578
0.237628
0.237346
0.236572
0.235123
0.232575
0.228852
0.221965
0.215385
0.193753
0.227497
0.227315
0.22738
0.22769
0.22803
0.228291
0.228516
0.228799
0.229141
0.229504
0.229875
0.230256
0.230651
0.231053
0.231455
0.231846
0.232211
0.232528
0.232763
0.232872
0.232791
0.232433
0.231675
0.230333
0.228196
0.224776
0.220053
0.211263
0.204253
0.177193
0.160859
0.144211
0.126624
0.109218
0.0927313
0.0774539
0.0639074
0.052504
0.0440871
0.0391397
0.0383155
0.0424612
0.0518985
0.0672055
0.0886571
0.114508
0.138043
0.152812
0.157013
0.154215
0.153255
0.153998
0.154143
0.152935
0.151519
0.15063
0.149321
0.143114
0.130753
0.116215
0.193979
0.179965
0.164518
0.149592
0.1353
0.121808
0.109558
0.0988334
0.0899973
0.0834525
0.0799699
0.0809177
0.0862181
0.0954785
0.109436
0.127364
0.144993
0.156114
0.158404
0.154584
0.156149
0.156633
0.155203
0.154813
0.152604
0.149168
0.14345
0.13378
0.119119
0.103324
0.200732
0.187832
0.173925
0.159644
0.145575
0.132429
0.120214
0.109153
0.0996165
0.0924477
0.0884867
0.0883385
0.0921294
0.0997006
0.11123
0.125355
0.139471
0.148138
0.151073
0.151647
0.154449
0.156192
0.157327
0.156005
0.149506
0.140634
0.132003
0.124694
0.117052
0.10688
0.212401
0.201466
0.188845
0.176114
0.163711
0.151589
0.139623
0.128355
0.11848
0.110698
0.105642
0.103822
0.105492
0.110593
0.118828
0.129008
0.138947
0.145896
0.149374
0.150454
0.151575
0.152809
0.153338
0.151157
0.14355
0.132024
0.121514
0.119535
0.128104
0.133837
0.218209
0.208491
0.197251
0.185912
0.174596
0.163116
0.15166
0.140779
0.131074
0.1231
0.117419
0.11456
0.114854
0.118272
0.124387
0.132152
0.139782
0.145393
0.148564
0.14976
0.150106
0.149567
0.147689
0.143198
0.13505
0.12511
0.119661
0.129778
0.150015
0.168858
0.222759
0.214383
0.20443
0.194202
0.183789
0.173008
0.162066
0.151462
0.141751
0.13347
0.127177
0.123396
0.122463
0.124375
0.128712
0.134549
0.140475
0.144988
0.147651
0.148561
0.148526
0.147646
0.145042
0.139996
0.133902
0.129526
0.132401
0.147847
0.170218
0.191101
0.225758
0.218471
0.209653
0.200468
0.19099
0.181017
0.170703
0.1605
0.150938
0.142543
0.135851
0.131364
0.129425
0.130063
0.132907
0.137143
0.141597
0.14508
0.147055
0.147604
0.147201
0.145978
0.143716
0.140628
0.137972
0.138147
0.145455
0.16115
0.178885
0.193541
0.227805
0.221483
0.213691
0.205443
0.196794
0.187542
0.177807
0.168008
0.158646
0.150221
0.143244
0.138202
0.135441
0.135025
0.13664
0.139571
0.142812
0.145376
0.146746
0.146949
0.146274
0.144898
0.142962
0.140995
0.140246
0.142476
0.149838
0.161741
0.172243
0.178534
0.229149
0.223655
0.21677
0.209363
0.201472
0.192898
0.183733
0.174353
0.165224
0.156821
0.149634
0.144141
0.140693
0.139384
0.139955
0.141782
0.143997
0.145754
0.146579
0.146437
0.145539
0.144118
0.142467
0.141171
0.141247
0.143789
0.149186
0.155791
0.159235
0.158033
0.230003
0.225224
0.219131
0.212476
0.205276
0.197333
0.188716
0.179756
0.170884
0.16255
0.155224
0.149372
0.145352
0.143283
0.14296
0.14384
0.145167
0.146204
0.146512
0.146027
0.144917
0.143442
0.141948
0.14097
0.141189
0.142982
0.145773
0.147684
0.145509
0.138828
0.230508
0.226345
0.220942
0.214958
0.208385
0.201026
0.192925
0.184375
0.175772
0.167539
0.160126
0.15399
0.14949
0.146772
0.145676
0.145736
0.146286
0.146677
0.146503
0.145682
0.144355
0.142776
0.141273
0.140253
0.140049
0.140524
0.140711
0.138837
0.132658
0.121496
0.230767
0.227135
0.222335
0.216944
0.21094
0.20412
0.196502
0.188347
0.180017
0.171906
0.164447
0.158083
0.153177
0.149898
0.148129
0.147469
0.147332
0.147137
0.146511
0.145359
0.143797
0.142049
0.140383
0.139045
0.138079
0.137047
0.134853
0.129987
0.120947
0.107241
0.230853
0.22768
0.223405
0.218543
0.213053
0.206726
0.199559
0.191782
0.183722
0.175748
0.168273
0.161727
0.156477
0.152708
0.150347
0.14905
0.148296
0.147566
0.146512
0.14503
0.143208
0.141226
0.139269
0.137431
0.135546
0.133016
0.128783
0.121699
0.110816
0.0963418
0.23082
0.228046
0.22423
0.219836
0.21481
0.208936
0.202188
0.194767
0.186972
0.179143
0.171674
0.164983
0.159437
0.15524
0.152354
0.150486
0.149176
0.147952
0.146491
0.144678
0.142571
0.140295
0.137954
0.13551
0.13266
0.128756
0.122889
0.11429
0.102463
0.0882431
0.230709
0.228282
0.224866
0.220888
0.216282
0.210821
0.204462
0.197376
0.189836
0.182156
0.174709
0.167901
0.162099
0.157523
0.154168
0.151786
0.149969
0.148287
0.146435
0.14429
0.141874
0.139262
0.136474
0.133376
0.129594
0.124507
0.117406
0.107857
0.0957364
0.0821274
0.230546
0.228424
0.22536
0.22175
0.217523
0.212441
0.206441
0.199669
0.192372
0.184841
0.177426
0.170523
0.164498
0.159585
0.155806
0.152957
0.150674
0.148565
0.146337
0.143859
0.141119
0.138139
0.134871
0.131117
0.126481
0.120424
0.112451
0.102407
0.090483
0.0778651
0.230355
0.228501
0.225746
0.222464
0.218579
0.213844
0.208174
0.201696
0.194629
0.187244
0.179868
0.172887
0.166664
0.161447
0.157284
0.154008
0.151295
0.148783
0.146194
0.143384
0.140309
0.136942
0.133186
0.128804
0.12342
0.116604
0.108071
0.0978957
0.0865179
0.0750936
0.23015
0.228534
0.22605
0.223062
0.219487
0.215068
0.209703
0.203497
0.196649
0.189402
0.182069
0.175021
0.168622
0.163129
0.158615
0.154946
0.151833
0.148943
0.146006
0.142866
0.139451
0.135692
0.131455
0.126493
0.120477
0.113099
0.104269
0.0942386
0.0836298
0.073472
0.229942
0.228539
0.226296
0.223569
0.220275
0.216145
0.211063
0.20511
0.198464
0.19135
0.18406
0.176954
0.170393
0.164648
0.159811
0.155778
0.152293
0.149045
0.145771
0.142307
0.138553
0.134405
0.129708
0.124224
0.117692
0.109927
0.101012
0.0913263
0.0816171
0.072734
0.229739
0.228528
0.226498
0.224008
0.220969
0.217104
0.21228
0.206562
0.200106
0.193115
0.185866
0.178707
0.171998
0.166018
0.160882
0.156511
0.152677
0.14909
0.145494
0.141714
0.137625
0.1331
0.127971
0.122031
0.115093
0.107093
0.0982621
0.0890607
0.0803202
0.0726786
0.229545
0.228509
0.226671
0.224394
0.221587
0.217965
0.213381
0.20788
0.201599
0.194722
0.187509
0.1803
0.173451
0.167253
0.161837
0.157151
0.152989
0.14908
0.145174
0.141087
0.136673
0.131784
0.126257
0.119924
0.112678
0.104566
0.0959457
0.0873132
0.0795616
0.0730907
0.229357
0.228487
0.226827
0.224744
0.222148
0.218747
0.214384
0.209085
0.202965
0.196191
0.18901
0.181749
0.174767
0.168364
0.162687
0.157705
0.153236
0.149024
0.144823
0.140441
0.135714
0.130482
0.124595
0.117934
0.110472
0.102355
0.0940431
0.0860326
0.0792707
0.0738539
0.229177
0.228462
0.226971
0.225068
0.222664
0.219466
0.215307
0.210196
0.204224
0.197542
0.190385
0.18307
0.175956
0.169355
0.163428
0.158167
0.153409
0.148908
0.144422
0.139757
0.134728
0.129169
0.122952
0.116017
0.108408
0.100362
0.0924158
0.0850323
0.0792257
0.0746939
0.229008
0.228434
0.227107
0.225375
0.223148
0.220135
0.216166
0.211228
0.205391
0.19879
0.191649
0.184279
0.177041
0.170255
0.164094
0.158573
0.153545
0.148777
0.144028
0.139098
0.133788
0.127928
0.121422
0.11427
0.106583
0.0986799
0.0911504
0.0843999
0.0795801
0.0756535
0.228855
0.228412
0.227241
0.22567
0.223606
0.220765
0.216974
0.212197
0.206481
0.199945
0.192802
0.185357
0.177979
0.171006
0.164623
0.158856
0.153566
0.148534
0.143528
0.138342
0.132755
0.126603
0.11983
0.112502
0.104782
0.0970572
0.0899381
0.08379
0.0797456
0.0764604
0.22871
0.228399
0.227378
0.22596
0.224045
0.221361
0.21774
0.213118
0.207523
0.201062
0.193933
0.186427
0.178916
0.17176
0.165157
0.159164
0.153655
0.148389
0.143152
0.137737
0.131898
0.125485
0.118492
0.111008
0.103296
0.0958046
0.0891222
0.0835629
0.0800813
0.0767841
0.228564
0.228392
0.22752
0.226254
0.224478
0.221928
0.218448
0.213949
0.20842
0.201967
0.194801
0.187216
0.179571
0.172212
0.165376
0.159154
0.153428
0.147939
0.142488
0.136861
0.130783
0.124128
0.116948
0.109345
0.101669
0.0944176
0.0881822
0.083148
0.0801881
0.0765772
0.228423
0.228373
0.227653
0.226566
0.224932
0.222563
0.219273
0.214939
0.209519
0.203109
0.195922
0.188271
0.180514
0.172991
0.165971
0.159556
0.153612
0.147887
0.142216
0.136378
0.130044
0.123127
0.115707
0.107981
0.100346
0.0933453
0.0875726
0.0829948
0.0799938
0.0751591
0.228314
0.228334
0.227776
0.226756
0.225217
0.222968
0.219769
0.215479
0.210067
0.203615
0.196331
0.188541
0.180629
0.172946
0.165779
0.159229
0.153164
0.147278
0.141457
0.135501
0.129006
0.12192
0.11438
0.106636
0.0991106
0.0923899
0.0869714
0.0827357
0.0793506
0.0722197
0.228301
0.228327
0.227998
0.227239
0.225887
0.223827
0.220885
0.216846
0.211604
0.205212
0.197869
0.189916
0.181768
0.173804
0.166343
0.159507
0.153202
0.14708
0.141004
0.134721
0.127853
0.120389
0.11254
0.104572
0.0971013
0.0909535
0.086142
0.0822221
0.076667
0.0650141
-0.0756005
-0.0693525
-0.0574379
-0.0409873
-0.0204514
-0.00116386
0.0164611
0.0319758
0.0450965
0.0560521
0.0651816
0.0727189
0.0788686
0.08382
0.0877442
0.0907886
0.093076
0.0947105
0.0957816
0.0963671
0.0965386
0.0963569
0.0958971
0.0951996
0.0943785
0.0934187
0.0926084
0.0916423
0.0912088
0.0886786
-0.0745107
-0.0670881
-0.0605068
-0.047925
-0.0286632
-0.00824513
0.0100096
0.0264358
0.0405317
0.0523993
0.0623523
0.0706274
0.0774406
0.0829849
0.0874441
0.0909778
0.0937146
0.0957613
0.097208
0.0981299
0.0985947
0.0986543
0.0983694
0.097767
0.0969271
0.0958204
0.0946083
0.0931033
0.0918307
0.0900528
-0.0716121
-0.0658571
-0.0615107
-0.0550608
-0.0397393
-0.0184695
0.000911954
0.0186547
0.0339512
0.0470071
0.058075
0.0673803
0.0751303
0.0815061
0.0867001
0.0908894
0.0942189
0.0968059
0.0987465
0.100118
0.100987
0.101406
0.101426
0.101078
0.100414
0.0994412
0.0982399
0.0967679
0.095254
0.0936462
-0.0714164
-0.0659722
-0.0616685
-0.0613152
-0.0504932
-0.0300653
-0.00814498
0.0110416
0.0279251
0.0424687
0.0547329
0.0650842
0.0737739
0.0809732
0.0868694
0.0916548
0.0954943
0.098527
0.100867
0.102602
0.103804
0.104531
0.104833
0.104751
0.104325
0.103581
0.10256
0.10127
0.0997532
0.0980958
-0.0748971
-0.0699801
-0.0671002
-0.0675087
-0.06137
-0.0436153
-0.0202705
0.00173728
0.0208199
0.0371808
0.0509652
0.0625123
0.0722027
0.0802897
0.0869708
0.0924441
0.0968716
0.100406
0.103184
0.105311
0.106872
0.107934
0.108551
0.108764
0.108609
0.108115
0.107307
0.10621
0.10483
0.103298
-0.0836043
-0.0818968
-0.0808238
-0.0778238
-0.0726804
-0.059085
-0.036626
-0.011749
0.0106016
0.0295856
0.0455573
0.0587513
0.0697568
0.0788903
0.0864756
0.0927862
0.0979651
0.102159
0.105512
0.108143
0.110153
0.111623
0.112618
0.113185
0.113364
0.113184
0.112669
0.111847
0.110721
0.109426
-0.096794
-0.100281
-0.0999504
-0.0941809
-0.0864784
-0.0747513
-0.0550855
-0.0297521
-0.00373168
0.0188812
0.0379195
0.05339
0.0663848
0.0769427
0.0855889
0.0928118
0.0988036
0.103738
0.107766
0.111003
0.113556
0.115518
0.116963
0.117952
0.11853
0.118735
0.118591
0.118126
0.117341
0.116366
-0.110447
-0.118178
-0.118574
-0.113512
-0.103749
-0.0907654
-0.0732513
-0.0498038
-0.0228192
0.00423966
0.0267176
0.045423
0.0614649
0.0741869
0.0843692
0.0927274
0.0995867
0.105262
0.109969
0.113831
0.116966
0.119473
0.121429
0.1229
0.12394
0.124591
0.124884
0.124848
0.124485
0.123921
-0.118592
-0.12864
-0.131489
-0.130126
-0.121219
-0.107198
-0.0903444
-0.0692757
-0.0435487
-0.0156741
0.0110515
0.034898
0.054358
0.0698526
0.0823643
0.0923777
0.100427
0.106987
0.112389
0.116835
0.120505
0.123521
0.125972
0.127929
0.129449
0.130579
0.131351
0.1318
0.131925
0.131859
-0.117018
-0.130165
-0.13657
-0.13922
-0.13376
-0.121547
-0.105699
-0.0863656
-0.0627855
-0.0357527
-0.00737204
0.0197502
0.0434595
0.063184
0.0788636
0.0911791
0.101099
0.108966
0.115267
0.120351
0.124517
0.127952
0.130792
0.133134
0.13505
0.136595
0.137807
0.138727
0.139348
0.139802
-0.106643
-0.123018
-0.133763
-0.140093
-0.139033
-0.130841
-0.117493
-0.10018
-0.0788791
-0.053762
-0.0259621
0.00246665
0.0293099
0.0529658
0.0727389
0.0887884
0.101374
0.111193
0.11883
0.124826
0.129583
0.133404
0.136511
0.139063
0.141175
0.14293
0.144392
0.145615
0.146616
0.147512
-0.0882518
-0.107697
-0.122443
-0.13303
-0.136717
-0.133162
-0.123523
-0.109287
-0.0907308
-0.0680614
-0.0419607
-0.0138593
0.0142993
0.0406616
0.0640245
0.0837745
0.0998269
0.112512
0.122372
0.129959
0.135776
0.140247
0.143708
0.146418
0.148571
0.150307
0.151729
0.152914
0.153921
0.154834
-0.0634441
-0.084867
-0.102761
-0.117369
-0.125888
-0.127465
-0.122598
-0.112258
-0.0970096
-0.0772512
-0.0536002
-0.0271758
0.000521022
0.0278148
0.0532712
0.075897
0.0952105
0.111153
0.12395
0.133985
0.141705
0.14755
0.151921
0.155171
0.157588
0.159396
0.16076
0.161797
0.162598
0.163258
-0.0353655
-0.0568404
-0.0765816
-0.0941525
-0.106703
-0.113092
-0.113251
-0.107642
-0.0967083
-0.0808452
-0.0606203
-0.0370025
-0.0113083
0.015003
0.0405932
0.0644216
0.0857954
0.104341
0.119977
0.132831
0.143156
0.151254
0.157456
0.162107
0.165541
0.168049
0.169861
0.171166
0.172093
0.172814
-0.00814303
-0.0272489
-0.047037
-0.0660687
-0.0813886
-0.0916709
-0.0963866
-0.0955764
-0.0894869
-0.0784521
-0.0629843
-0.0438532
-0.0220484
0.00128084
0.0249597
0.0479471
0.0694457
0.0889305
0.106121
0.120941
0.133473
0.143829
0.152337
0.159149
0.16448
0.168576
0.171671
0.173977
0.175663
0.176951
0.015675
-5.4176e-05
-0.0182376
-0.0368836
-0.0534574
-0.0665172
-0.075216
-0.0792004
-0.0784653
-0.0731699
-0.0635969
-0.0503041
-0.0340831
-0.0158105
0.00368078
0.0235814
0.043192
0.0619496
0.0794302
0.0953384
0.109515
0.121901
0.132529
0.141499
0.148974
0.155165
0.160261
0.1644
0.167756
0.170444
0.0340539
0.0218471
0.00648612
-0.010552
-0.0271821
-0.0419842
-0.0539158
-0.0623609
-0.067343
-0.0689084
-0.0669868
-0.0617029
-0.053317
-0.0421877
-0.0289539
-0.0142285
0.00148877
0.0176666
0.0338814
0.0497569
0.0649467
0.0791912
0.0923731
0.104386
0.115196
0.124674
0.13287
0.140004
0.14557
0.149872
0.0466102
0.0378158
0.0253033
0.0101187
-0.00620005
-0.0224301
-0.0376868
-0.0514527
-0.0633452
-0.0723598
-0.0774392
-0.0785583
-0.0766969
-0.0729429
-0.0676527
-0.0605257
-0.0515438
-0.0410317