/*--------------------------------*- C++ -*----------------------------------*\
  =========                 |
  \\      /  F ield         | OpenFOAM: The Open Source CFD Toolbox
   \\    /   O peration     | Website:  https://openfoam.org
    \\  /    A nd           | Version:  11
     \\/     M anipulation  |
\*---------------------------------------------------------------------------*/
FoamFile
{
    format      ascii;
    class       volScalarField;
    location    "4";
    object      p;
}
// * * * * * * * * * * * * * * * * * * * * * * * * * * * * * * * * * * * * * //

dimensions      [0 2 -2 0 0 0 0];

internalField   nonuniform List<scalar> 
12600
(
0.0942347
0.0940996
0.0940374
0.0940212
0.0940086
0.0939913
0.0939728
0.0939551
0.0939381
0.0939211
0.0939039
0.0938862
0.0938678
0.0938488
0.0938287
0.0938074
0.0937844
0.0937591
0.093731
0.0936995
0.0936646
0.0936232
0.0935736
0.093514
0.0934403
0.0933467
0.093225
0.0930596
0.0928312
0.0924456
0.0941598
0.0940903
0.0940393
0.09402
0.0940064
0.0939898
0.0939717
0.0939542
0.0939373
0.0939205
0.0939034
0.0938857
0.0938675
0.0938485
0.0938286
0.0938075
0.0937846
0.0937597
0.0937321
0.0937008
0.0936668
0.0936263
0.0935784
0.09352
0.093448
0.0933564
0.0932413
0.0930857
0.0929132
0.0927513
0.0941234
0.0940908
0.0940468
0.0940216
0.0940063
0.0939904
0.0939729
0.0939553
0.0939384
0.0939217
0.0939046
0.0938871
0.0938689
0.09385
0.0938304
0.0938095
0.0937871
0.093763
0.093736
0.0937067
0.0936719
0.0936326
0.0935862
0.0935301
0.0934614
0.0933753
0.093267
0.0931285
0.0929703
0.0927832
0.0940979
0.0940781
0.0940437
0.0940183
0.0940026
0.0939877
0.093971
0.0939539
0.0939373
0.0939208
0.093904
0.0938867
0.0938688
0.0938503
0.0938309
0.0938103
0.0937885
0.0937647
0.0937388
0.0937099
0.0936769
0.0936393
0.0935953
0.0935426
0.0934784
0.0933987
0.093299
0.0931742
0.0930182
0.0928211
0.094079
0.0940662
0.094041
0.0940181
0.0940022
0.0939875
0.0939714
0.0939548
0.0939384
0.093922
0.0939054
0.0938883
0.0938708
0.0938525
0.0938335
0.093813
0.0937916
0.0937685
0.0937435
0.0937158
0.0936845
0.093649
0.0936079
0.0935591
0.0935003
0.0934282
0.0933383
0.0932262
0.0930785
0.0928929
0.0940648
0.0940559
0.0940369
0.0940166
0.0940004
0.0939858
0.0939704
0.0939542
0.093938
0.0939218
0.0939054
0.0938886
0.0938712
0.0938532
0.0938343
0.0938148
0.093794
0.0937718
0.0937478
0.0937215
0.0936921
0.0936591
0.0936213
0.0935771
0.0935246
0.093461
0.0933822
0.0932842
0.0931517
0.0929856
0.0940537
0.0940472
0.0940323
0.0940146
0.093999
0.0939847
0.0939699
0.0939544
0.0939385
0.0939226
0.0939065
0.09389
0.0938729
0.0938553
0.0938369
0.0938179
0.0937977
0.0937764
0.0937535
0.0937287
0.0937015
0.0936712
0.0936372
0.0935981
0.0935525
0.0934983
0.0934318
0.0933501
0.0932376
0.0930982
0.0940449
0.0940398
0.0940278
0.0940125
0.0939977
0.0939837
0.0939694
0.0939543
0.0939388
0.0939231
0.0939072
0.0938909
0.0938741
0.0938569
0.093839
0.0938205
0.0938011
0.0937807
0.0937591
0.093736
0.093711
0.0936837
0.0936537
0.0936201
0.0935818
0.0935377
0.0934848
0.0934213
0.0933329
0.093226
0.094038
0.0940338
0.0940238
0.0940104
0.0939965
0.0939829
0.093969
0.0939543
0.0939391
0.0939237
0.0939081
0.0938922
0.0938758
0.093859
0.0938416
0.0938238
0.0938052
0.0937858
0.0937655
0.0937441
0.0937215
0.0936973
0.0936715
0.0936435
0.0936131
0.0935796
0.0935411
0.0934974
0.093436
0.0933665
0.0940325
0.094029
0.0940204
0.0940084
0.0939954
0.0939822
0.0939687
0.0939544
0.0939396
0.0939245
0.0939091
0.0938935
0.0938774
0.093861
0.0938442
0.093827
0.0938092
0.0937909
0.093772
0.0937524
0.093732
0.093711
0.0936894
0.0936673
0.0936447
0.093622
0.0935986
0.0935756
0.0935435
0.0935147
0.0940283
0.0940252
0.0940177
0.0940068
0.0939945
0.0939817
0.0939685
0.0939546
0.0939401
0.0939253
0.0939102
0.0938949
0.0938792
0.0938633
0.093847
0.0938304
0.0938135
0.0937962
0.0937787
0.0937608
0.0937429
0.093725
0.0937076
0.0936912
0.0936764
0.0936645
0.0936561
0.0936542
0.0936526
0.0936664
0.0940251
0.0940224
0.0940155
0.0940055
0.0939938
0.0939815
0.0939685
0.0939549
0.0939407
0.0939262
0.0939114
0.0938963
0.093881
0.0938655
0.0938498
0.0938339
0.0938178
0.0938016
0.0937854
0.0937693
0.0937536
0.0937387
0.0937254
0.0937144
0.0937071
0.0937055
0.0937117
0.0937305
0.0937594
0.0938162
0.0940229
0.0940204
0.094014
0.0940046
0.0939934
0.0939814
0.0939687
0.0939553
0.0939414
0.0939271
0.0939126
0.0938978
0.0938829
0.0938679
0.0938527
0.0938374
0.0938221
0.0938069
0.093792
0.0937776
0.0937641
0.0937521
0.0937424
0.0937365
0.0937361
0.0937442
0.093764
0.0938022
0.0938604
0.0939588
0.0940216
0.0940192
0.0940132
0.0940041
0.0939933
0.0939815
0.093969
0.0939558
0.0939422
0.0939281
0.0939138
0.0938994
0.0938848
0.0938702
0.0938555
0.0938409
0.0938264
0.0938122
0.0937985
0.0937856
0.0937741
0.0937647
0.0937584
0.093757
0.0937628
0.0937793
0.0938113
0.0938668
0.0939517
0.0940883
0.0940212
0.0940188
0.0940129
0.0940041
0.0939935
0.0939819
0.0939695
0.0939565
0.093943
0.0939292
0.0939151
0.093901
0.0938868
0.0938726
0.0938584
0.0938444
0.0938306
0.0938173
0.0938048
0.0937933
0.0937835
0.0937763
0.093773
0.0937754
0.0937864
0.09381
0.0938521
0.093922
0.0940296
0.094199
0.0940216
0.0940192
0.0940134
0.0940046
0.093994
0.0939824
0.0939702
0.0939573
0.0939439
0.0939303
0.0939165
0.0939026
0.0938887
0.0938749
0.0938612
0.0938477
0.0938347
0.0938222
0.0938107
0.0938005
0.0937922
0.093787
0.093786
0.0937915
0.0938064
0.0938355
0.0938851
0.0939659
0.094091
0.0942855
0.0940228
0.0940204
0.0940144
0.0940055
0.0939948
0.0939832
0.093971
0.0939582
0.093945
0.0939315
0.0939178
0.0939042
0.0938906
0.0938772
0.0938639
0.093851
0.0938386
0.0938269
0.0938162
0.0938071
0.0938001
0.0937964
0.0937972
0.0938049
0.0938226
0.0938551
0.0939095
0.093997
0.0941331
0.0943434
0.0940248
0.0940223
0.0940161
0.0940068
0.0939959
0.0939842
0.093972
0.0939592
0.093946
0.0939326
0.0939192
0.0939058
0.0938925
0.0938794
0.0938665
0.0938541
0.0938423
0.0938312
0.0938214
0.0938131
0.0938071
0.0938045
0.0938065
0.0938155
0.0938346
0.0938686
0.0939248
0.0940142
0.0941542
0.0943695
0.0940277
0.094025
0.0940183
0.0940086
0.0939973
0.0939854
0.0939731
0.0939603
0.0939471
0.0939338
0.0939206
0.0939074
0.0938943
0.0938815
0.093869
0.0938571
0.0938457
0.0938353
0.093826
0.0938185
0.0938132
0.0938112
0.0938139
0.0938233
0.0938425
0.0938759
0.0939308
0.0940174
0.0941536
0.094362
0.0940315
0.0940286
0.0940212
0.0940107
0.0939989
0.0939868
0.0939744
0.0939615
0.0939483
0.093935
0.0939219
0.0939089
0.0938961
0.0938835
0.0938714
0.0938598
0.0938489
0.093839
0.0938302
0.0938232
0.0938184
0.0938167
0.0938195
0.0938284
0.0938463
0.0938773
0.0939278
0.094007
0.0941319
0.0943216
0.0940364
0.094033
0.0940247
0.0940132
0.0940007
0.0939883
0.0939757
0.0939627
0.0939494
0.0939362
0.0939232
0.0939103
0.0938977
0.0938855
0.0938736
0.0938624
0.0938519
0.0938423
0.093834
0.0938273
0.0938227
0.093821
0.0938232
0.093831
0.0938465
0.0938733
0.0939167
0.0939842
0.0940907
0.0942507
0.0940425
0.0940385
0.0940288
0.0940158
0.0940026
0.0939899
0.0939771
0.0939639
0.0939505
0.0939373
0.0939244
0.0939117
0.0938993
0.0938873
0.0938757
0.0938648
0.0938546
0.0938454
0.0938373
0.0938308
0.0938262
0.0938242
0.0938256
0.0938315
0.0938437
0.0938647
0.0938987
0.0939511
0.0940333
0.0941543
0.0940501
0.0940451
0.0940335
0.0940187
0.0940046
0.0939917
0.0939786
0.0939651
0.0939516
0.0939384
0.0939256
0.093913
0.0939007
0.0938889
0.0938775
0.0938669
0.0938569
0.093848
0.0938401
0.0938337
0.0938289
0.0938263
0.0938264
0.09383
0.0938381
0.0938523
0.0938753
0.0939098
0.0939635
0.0940388
0.0940594
0.094053
0.0940385
0.0940214
0.0940066
0.0939935
0.0939801
0.0939663
0.0939527
0.0939395
0.0939268
0.0939143
0.0939022
0.0938906
0.0938795
0.093869
0.0938593
0.0938506
0.0938428
0.0938364
0.0938313
0.093828
0.0938267
0.0938276
0.0938311
0.0938379
0.0938487
0.0938639
0.0938868
0.0939129
0.094071
0.0940623
0.0940436
0.094024
0.0940087
0.0939953
0.0939815
0.0939672
0.0939534
0.0939402
0.0939275
0.0939151
0.0939031
0.0938916
0.0938807
0.0938704
0.0938609
0.0938523
0.0938447
0.0938381
0.0938327
0.0938286
0.0938257
0.0938238
0.0938226
0.0938216
0.09382
0.0938157
0.0938077
0.0937849
0.0940857
0.0940731
0.0940482
0.094026
0.0940109
0.0939976
0.0939833
0.0939687
0.0939548
0.0939416
0.0939289
0.0939166
0.0939047
0.0938933
0.0938825
0.0938724
0.0938631
0.0938546
0.093847
0.0938403
0.0938346
0.0938296
0.0938252
0.0938205
0.0938147
0.0938061
0.0937924
0.0937693
0.0937327
0.0936653
0.094105
0.0940853
0.0940514
0.0940268
0.0940119
0.0939983
0.0939834
0.0939685
0.0939546
0.0939415
0.0939289
0.0939167
0.0939049
0.0938937
0.0938831
0.0938731
0.0938639
0.0938555
0.093848
0.0938413
0.0938351
0.0938295
0.0938238
0.0938166
0.0938066
0.0937909
0.0937661
0.0937258
0.0936657
0.0935609
0.0941307
0.0940984
0.094055
0.0940302
0.0940159
0.0940014
0.0939856
0.0939704
0.0939564
0.0939432
0.0939305
0.0939183
0.0939065
0.0938953
0.0938848
0.0938749
0.0938659
0.0938575
0.0938501
0.0938433
0.0938366
0.0938303
0.0938235
0.0938143
0.0938008
0.093779
0.0937442
0.0936879
0.0936103
0.0934856
0.0941673
0.0940981
0.0940477
0.094029
0.0940164
0.094001
0.0939847
0.0939696
0.0939558
0.0939427
0.0939301
0.093918
0.0939064
0.0938953
0.0938849
0.0938752
0.0938662
0.0938581
0.0938506
0.0938438
0.0938374
0.0938309
0.0938231
0.0938125
0.0937963
0.0937701
0.0937268
0.0936556
0.0935541
0.0934355
0.0942425
0.0941075
0.0940459
0.0940304
0.0940188
0.0940027
0.0939859
0.0939707
0.0939568
0.0939437
0.093931
0.0939189
0.0939073
0.0938963
0.0938859
0.0938762
0.0938672
0.0938591
0.0938516
0.0938448
0.0938389
0.0938324
0.093824
0.0938126
0.0937952
0.0937666
0.093718
0.0936357
0.0934822
0.0932044
0.0926956
0.092069
0.0918013
0.0918666
0.091923
0.0918839
0.0918023
0.091728
0.0916691
0.091624
0.0915949
0.0915851
0.091597
0.0916326
0.0916945
0.091786
0.0919109
0.0920737
0.0922787
0.0925305
0.0928326
0.0931821
0.0935869
0.0939521
0.0944819
0.0940627
0.0952775
0.0885044
0.0934477
0.0454146
0.0931303
0.0925572
0.0922029
0.0921825
0.0921693
0.0920981
0.0920123
0.0919491
0.0919143
0.0918975
0.0918974
0.091918
0.0919621
0.0920325
0.0921326
0.0922668
0.0924404
0.0926592
0.0929299
0.0932599
0.0936566
0.0941259
0.0946728
0.0952638
0.0959682
0.0961906
0.0973502
0.09293
0.0968769
0.0574894
0.0926871
0.0923986
0.0922264
0.0922396
0.0922497
0.0922024
0.0921533
0.0921291
0.0921267
0.0921384
0.0921665
0.092217
0.0922938
0.0924
0.09254
0.0927192
0.0929441
0.0932223
0.0935628
0.0939762
0.0944745
0.0950704
0.0957759
0.0965884
0.0975356
0.0983125
0.0996646
0.097297
0.100717
0.0696725
0.0926306
0.0925275
0.0924609
0.0924449
0.0924298
0.0923963
0.0923712
0.09237
0.0923896
0.0924264
0.0924833
0.0925656
0.092677
0.0928215
0.0930042
0.0932316
0.0935117
0.093854
0.0942701
0.0947739
0.0953822
0.0961149
0.0969934
0.0980375
0.0992699
0.100566
0.10228
0.101737
0.105048
0.0817699
0.0926785
0.0926341
0.0926077
0.0925926
0.0925844
0.0925804
0.092589
0.0926166
0.0926633
0.0927289
0.0928171
0.0929328
0.0930804
0.093265
0.0934926
0.0937711
0.0941099
0.0945206
0.0950172
0.0956176
0.0963436
0.0972225
0.0982864
0.0995739
0.101123
0.102919
0.10513
0.106209
0.109821
0.0936951
0.0927776
0.0927715
0.0927815
0.0927844
0.0927913
0.0928098
0.0928434
0.0928949
0.0929662
0.0930596
0.0931787
0.0933283
0.0935135
0.0937399
0.0940147
0.0943471
0.0947479
0.0952308
0.0958129
0.0965157
0.0973666
0.0984004
0.0996606
0.101203
0.10309
0.105382
0.108177
0.110714
0.114924
0.105313
0.0929117
0.0929329
0.0929685
0.0929883
0.0930111
0.0930509
0.0931096
0.0931871
0.0932856
0.0934086
0.0935601
0.0937451
0.0939692
0.0942391
0.0945632
0.0949517
0.0954174
0.0959762
0.096648
0.0974584
0.0984404
0.0996365
0.101102
0.10291
0.105148
0.107935
0.111367
0.115219
0.120255
0.116459
0.093069
0.0931129
0.0931706
0.0932091
0.0932507
0.0933126
0.0933957
0.0934988
0.0936242
0.0937764
0.0939602
0.0941809
0.0944447
0.0947593
0.0951342
0.0955808
0.0961138
0.0967511
0.097516
0.0984381
0.0995558
0.10092
0.102597
0.104677
0.107273
0.110553
0.114647
0.119681
0.125713
0.126947
0.0932451
0.0933086
0.0933859
0.0934428
0.0935035
0.0935867
0.0936932
0.0938213
0.0939737
0.0941554
0.0943719
0.0946289
0.0949332
0.0952933
0.0957198
0.0962258
0.0968274
0.0975452
0.0984053
0.0994415
0.100698
0.102233
0.104124
0.106479
0.109434
0.113197
0.117952
0.124047
0.131177
0.136613
0.0934337
0.0935147
0.0936095
0.0936844
0.0937643
0.0938683
0.0939976
0.0941503
0.0943294
0.0945403
0.0947891
0.095082
0.0954265
0.0958321
0.0963104
0.0968759
0.0975466
0.0983452
0.0993011
0.100452
0.101847
0.103553
0.105658
0.108283
0.111591
0.115821
0.121213
0.128248
0.136512
0.145305
0.0936299
0.0937263
0.0938363
0.0939283
0.0940267
0.0941506
0.0943016
0.0944779
0.0946827
0.094922
0.0952022
0.0955301
0.095914
0.0963642
0.0968934
0.0975174
0.0982561
0.0991344
0.100185
0.101448
0.10298
0.104853
0.107165
0.110053
0.113698
0.118367
0.124353
0.132206
0.141559
0.15284
0.0938267
0.0939361
0.0940591
0.094167
0.0942831
0.0944257
0.0945967
0.0947952
0.0950243
0.0952903
0.0956003
0.0959615
0.0963829
0.0968757
0.0974536
0.0981337
0.0989376
0.0998924
0.101033
0.102405
0.104067
0.106099
0.108608
0.111742
0.1157
0.12077
0.127291
0.135832
0.146146
0.158959
0.094017
0.0941371
0.0942705
0.0943925
0.0945247
0.0946842
0.0948734
0.0950918
0.0953429
0.0956334
0.0959706
0.0963623
0.0968183
0.0973503
0.0979733
0.0987055
0.0995699
0.100596
0.10182
0.103292
0.105075
0.107254
0.109943
0.1133
0.117539
0.122962
0.129942
0.139041
0.150118
0.163586
0.0941926
0.0943207
0.0944618
0.0945958
0.094742
0.0949161
0.0951208
0.0953562
0.0956265
0.0959381
0.096299
0.0967175
0.0972037
0.0977704
0.0984332
0.0992115
0.10013
0.101219
0.102518
0.104079
0.105968
0.108276
0.111123
0.114674
0.119153
0.124871
0.132223
0.14174
0.153369
0.16709
0.0943452
0.0944786
0.0946244
0.0947676
0.0949252
0.0951109
0.0953277
0.0955767
0.0958621
0.0961908
0.0965707
0.0970109
0.0975219
0.098117
0.0988127
0.0996293
0.100592
0.101734
0.103096
0.104731
0.10671
0.109125
0.112102
0.115809
0.120479
0.126425
0.134053
0.143844
0.155823
0.169349
0.0944668
0.0946024
0.0947498
0.094899
0.0950646
0.0952582
0.0954832
0.0957413
0.0960372
0.0963778
0.0967712
0.0972268
0.0977557
0.0983717
0.0990917
0.0999368
0.100934
0.102115
0.103524
0.105216
0.107262
0.109758
0.112832
0.116654
0.121459
0.127558
0.135356
0.145271
0.15737
0.17002
0.0945501
0.0946848
0.0948306
0.0949822
0.0951518
0.0953491
0.0955775
0.0958397
0.0961405
0.0964869
0.0968872
0.0973509
0.0978896
0.0985173
0.0992515
0.100114
0.101131
0.102338
0.103777
0.105504
0.107593
0.11014
0.113272
0.117162
0.122041
0.12821
0.136064
0.14594
0.157866
0.169227
0.0945896
0.09472
0.094861
0.0950109
0.0951799
0.095376
0.0956028
0.0958633
0.0961627
0.0965081
0.0969078
0.0973714
0.0979107
0.09854
0.0992769
0.100143
0.101167
0.102381
0.10383
0.105571
0.107675
0.11024
0.11339
0.117296
0.122183
0.128336
0.136126
0.14578
0.157213
0.167084
0.0945819
0.0947048
0.0948378
0.0949816
0.095145
0.0953347
0.095554
0.0958067
0.096098
0.0964349
0.0968257
0.0972802
0.0978101
0.0984299
0.0991572
0.100014
0.101027
0.102232
0.10367
0.105399
0.10749
0.110036
0.113163
0.117031
0.121858
0.127904
0.135506
0.144748
0.155511
0.163473
0.0945271
0.0946392
0.0947608
0.094894
0.0950466
0.0952242
0.0954302
0.0956685
0.0959445
0.0962651
0.0966385
0.0970744
0.0975845
0.0981831
0.0988877
0.09972
0.100707
0.101882
0.103288
0.10498
0.107027
0.10952
0.112579
0.116356
0.121055
0.126906
0.134204
0.142862
0.152881
0.158196
0.0944277
0.0945257
0.0946326
0.0947508
0.0948872
0.0950471
0.0952338
0.0954512
0.0957047
0.0960011
0.0963484
0.0967561
0.0972358
0.0978015
0.0984704
0.0992637
0.100208
0.101335
0.102687
0.104317
0.106291
0.108697
0.111645
0.11528
0.119787
0.125358
0.132248
0.140156
0.149381
0.151469
0.094291
0.0943716
0.0944606
0.0945593
0.0946743
0.0948109
0.0949724
0.0951624
0.0953862
0.0956505
0.095963
0.0963332
0.0967721
0.0972935
0.0979139
0.098654
0.099539
0.100601
0.101878
0.103422
0.105295
0.10758
0.11038
0.113823
0.118077
0.123285
0.129675
0.136672
0.145069
0.14355
0.0941255
0.0941857
0.0942534
0.0943283
0.0944171
0.0945255
0.0946563
0.094813
0.0950006
0.0952255
0.0954954
0.0958191
0.0962074
0.0966736
0.0972335
0.0979068
0.0987177
0.0996963
0.10088
0.102315
0.104062
0.106195
0.108808
0.112014
0.115959
0.120731
0.126547
0.132489
0.140014
0.134235
0.093945
0.0939819
0.0940245
0.0940712
0.0941294
0.0942045
0.0942991
0.0944164
0.0945612
0.0947399
0.0949596
0.0952288
0.0955576
0.0959587
0.0964473
0.0970418
0.0977651
0.0986454
0.0997174
0.101025
0.102621
0.104575
0.106969
0.109899
0.113488
0.117763
0.122947
0.127689
0.134326
0.123513
0.0937623
0.093773
0.0937861
0.0938011
0.0938261
0.0938656
0.0939206
0.0939938
0.0940901
0.094216
0.0943784
0.0945851
0.094846
0.0951729
0.09558
0.0960847
0.0967084
0.097477
0.0984226
0.0995847
0.101012
0.102764
0.104913
0.107535
0.11073
0.114456
0.118965
0.122351
0.128151
0.111563
0.0935981
0.0935792
0.093554
0.0935294
0.0935162
0.0935161
0.093528
0.093554
0.0935989
0.0936683
0.0937686
0.0939075
0.0940942
0.0943397
0.0946573
0.0950632
0.0955771
0.0962228
0.0970294
0.0980322
0.0992742
0.100806
0.102688
0.104976
0.10775
0.110883
0.114692
0.11658
0.121601
0.0985747
0.0934713
0.0934201
0.0933502
0.093288
0.09324
0.0931969
0.0931574
0.093128
0.0931146
0.0931211
0.0931531
0.093218
0.0933242
0.0934819
0.0937033
0.0940035
0.0944004
0.0949153
0.0955743
0.0964082
0.0974538
0.098753
0.100354
0.10229
0.104623
0.107126
0.11023
0.110428
0.114791
0.0847974
0.0934298
0.093285
0.093123
0.0930233
0.0929588
0.092889
0.0928075
0.0927266
0.0926548
0.092596
0.0925563
0.0925433
0.0925645
0.0926283
0.0927467
0.0929336
0.093205
0.0935801
0.094082
0.0947371
0.0955762
0.0966318
0.0979409
0.099511
0.101394
0.103233
0.105661
0.103963
0.107889
0.0704318
0.0937057
0.0933817
0.0930413
0.0928528
0.0927379
0.0926199
0.0924915
0.0923601
0.0922261
0.0920987
0.091983
0.0918898
0.0918251
0.0917945
0.0918099
0.0918843
0.0920318
0.0922689
0.0926154
0.0930933
0.093727
0.0945398
0.0955567
0.0967591
0.098193
0.0993404
0.101146
0.0973424
0.101025
0.0556882
0.0935542
0.0930277
0.092737
0.0926402
0.0925701
0.0924382
0.0922591
0.092065
0.0918666
0.0916687
0.0914708
0.0912918
0.0911322
0.0909941
0.090891
0.0908355
0.0908406
0.0909211
0.091094
0.0913773
0.0917899
0.0923454
0.0930598
0.0938807
0.094879
0.0952786
0.0966058
0.0904005
0.0941259
0.040789
0.0274151
0.0132841
-0.00267675
-0.0194082
-0.0362122
-0.0528562
-0.0691005
-0.0846101
-0.0989649
-0.111636
-0.122046
-0.129614
-0.133805
-0.13466
-0.132785
-0.129414
-0.126047
-0.12331
-0.121142
-0.119841
-0.119385
-0.118968
-0.118083
-0.116777
-0.11509
-0.112978
-0.110708
-0.108536
-0.106774
-0.105484
0.0869349
0.0765611
0.0651046
0.0536551
0.0416616
0.0288069
0.0153475
0.00154279
-0.0123881
-0.0261374
-0.0394216
-0.052122
-0.0632669
-0.0721774
-0.0796565
-0.0857759
-0.0911531
-0.0964464
-0.101554
-0.106306
-0.110495
-0.113646
-0.114975
-0.113627
-0.109013
-0.102121
-0.095835
-0.0923798
-0.0921392
-0.0927934
0.0845459
0.0773494
0.0691429
0.0599856
0.0496136
0.0380935
0.0255339
0.01228
-0.00093861
-0.0137186
-0.0260367
-0.0375768
-0.0477898
-0.0563131
-0.0633692
-0.0690745
-0.0739046
-0.0779433
-0.0812391
-0.0841953
-0.0861903
-0.0863405
-0.0845412
-0.0814192
-0.0781536
-0.0761174
-0.0766908
-0.0796646
-0.0841633
-0.0879538
0.0928549
0.08777
0.0813845
0.0740966
0.065829
0.05639
0.0457923
0.0342656
0.0220862
0.00948549
-0.00316918
-0.0153225
-0.026414
-0.0360166
-0.0439701
-0.0503379
-0.0553714
-0.0591733
-0.0617661
-0.063206
-0.0632759
-0.0618758
-0.0595213
-0.0570193
-0.0549542
-0.0534228
-0.0523923
-0.0513637
-0.049646
-0.047689
0.0921885
0.0884583
0.0838563
0.078458
0.0720264
0.064435
0.0556476
0.045698
0.034734
0.0230508
0.0110584
-0.00074568
-0.0118151
-0.0216359
-0.029869
-0.0364181
-0.0413525
-0.0447522
-0.0466627
-0.0471519
-0.0462799
-0.0442802
-0.0415605
-0.0384906
-0.0351688
-0.031484
-0.027244
-0.0223247
-0.0165354
-0.0106314
0.0924787
0.0897065
0.0861608
0.0817267
0.0763393
0.0698671
0.0622229
0.0533885
0.0434475
0.0326257
0.0212871
0.00991276
-0.00093188
-0.0106798
-0.0188952
-0.0253587
-0.0300399
-0.0329975
-0.0342996
-0.0340461
-0.0324102
-0.0296382
-0.0260037
-0.0216967
-0.0167604
-0.0111686
-0.00491467
0.00188441
0.00915409
0.0160999
0.0918762
0.0896788
0.0868495
0.0832867
0.0788542
0.0734142
0.0668514
0.059102
0.0501893
0.0402642
0.0296348
0.0187647
0.0082342
-0.00134617
-0.00946097
-0.0157916
-0.0202266
-0.0227864
-0.0235472
-0.0226402
-0.0202715
-0.0166839
-0.0121101
-0.0067205
-0.000621624
0.00607384
0.0131706
0.0203702
0.0273937
0.0332846
0.0913725
0.0895909
0.0872793
0.0843171
0.0805584
0.0758758
0.0701422
0.0632657
0.0552228
0.0461063
0.03617
0.0258428
0.0156984
0.00637419
-0.00155392
-0.00768831
-0.0118497
-0.0140146
-0.014262
-0.0127448
-0.00969146
-0.00535732
1.56152e-05
0.00621349
0.0130315
0.0202102
0.0274097
0.0342792
0.0404729
0.0452412
0.0908923
0.0893807
0.0874121
0.0848747
0.0816488
0.0775729
0.0725135
0.066361
0.0590597
0.0506598
0.0413682
0.0315767
0.0218452
0.0128272
0.00514423
-0.000742566
-0.00459453
-0.00637614
-0.00613264
-0.00405165
-0.000388218
0.00457709
0.0105643
0.0172902
0.0244552
0.0316972
0.0386505
0.0450264
0.0505049
0.054707
0.0905229
0.0892007
0.0874778
0.0852621
0.0824273
0.0788211
0.0743013
0.0687456
0.0620762
0.0543079
0.0456054
0.0363238
0.0270044
0.0183085
0.0108921
0.00526705
0.00171313
0.0003087
0.00100239
0.00358474
0.0077693
0.0132374
0.0196572
0.0266791
0.0339399
0.0410442
0.0476949
0.0536761
0.0587415
0.0628187
0.0902604
0.0890675
0.0875143
0.0855341
0.0830015
0.0797639
0.0756786
0.0706164
0.0644836
0.0572665
0.049094
0.0402868
0.0313648
0.0229909
0.0158466
0.0104855
0.00722432
0.00617731
0.00728173
0.0103051
0.0149247
0.0207771
0.0274788
0.0346324
0.0418484
0.0487552
0.0551463
0.0608348
0.0656578
0.0696885
0.0901017
0.0889995
0.0875658
0.0857605
0.083463
0.0805148
0.076778
0.0721221
0.0664422
0.059702
0.0520005
0.0436272
0.0350799
0.0270183
0.0201432
0.0150418
0.0120642
0.0113501
0.012825
0.01623
0.0212037
0.0273377
0.0342045
0.0413808
0.0484831
0.0551927
0.0613549
0.0667742
0.0713375
0.0751498
0.0900346
0.0889976
0.0876493
0.0859741
0.083852
0.0811378
0.0776835
0.0733637
0.0680662
0.0617376
0.0544521
0.0464714
0.0382714
0.0305061
0.02389
0.0190378
0.0163298
0.0159217
0.0177269
0.0214585
0.0267157
0.033048
0.0399953
0.0471261
0.0540806
0.0605934
0.0665132
0.0716139
0.0758525
0.0792078
0.0900456
0.0890574
0.0877722
0.0861979
0.0842169
0.0816817
0.0784559
0.0744139
0.0694386
0.0634637
0.0565433
0.0489142
0.0410319
0.0335427
0.0271717
0.0225591
0.0200972
0.0199698
0.0220689
0.0260776
0.0315574
0.0380222
0.04499
0.0520345
0.0588208
0.0651099
0.0707262
0.0754671
0.0792945
0.0819509
0.0901214
0.0891714
0.0879345
0.0864389
0.0845699
0.0821789
0.0791376
0.0753247
0.0706202
0.0649486
0.0583465
0.0510297
0.0434342
0.0361984
0.0300551
0.0256605
0.0234309
0.0235597
0.0259198
0.0301624
0.0358139
0.0423594
0.0493052
0.0562354
0.0628317
0.0688551
0.0741232
0.0784661
0.0817717
0.0836307
0.0902494
0.0893316
0.0881336
0.0867015
0.084923
0.0826499
0.079759
0.076135
0.0716576
0.0662446
0.0599184
0.0528761
0.0455367
0.0385301
0.0325949
0.0284009
0.0263869
0.0267474
0.0293379
0.033777
0.0395588
0.0461455
0.0530386
0.0598316
0.06621
0.071934
0.0768117
0.0807021
0.0832973
0.0843977
0.0904188
0.0895299
0.0883654
0.0869864
0.0852827
0.0831079
0.0803416
0.0768736
0.0725861
0.0673924
0.0613034
0.0545001
0.0473862
0.0405835
0.0348356
0.030825
0.0290092
0.0295795
0.0323733
0.0369775
0.0428565
0.0494541
0.0562698
0.062902
0.0690274
0.0744308
0.0788616
0.0821736
0.0838035
0.0838637
0.0906195
0.0897585
0.0886247
0.0872925
0.0856528
0.0835589
0.0808982
0.0775608
0.0734327
0.0684241
0.062537
0.0559393
0.0490207
0.0423964
0.0368142
0.0329692
0.0313338
0.0320943
0.0350695
0.0398135
0.0457635
0.0523489
0.0590671
0.0655174
0.0713812
0.0764161
0.0803274
0.0829338
0.083526
0.0823652
0.0908424
0.0900102
0.0889063
0.0876169
0.0860346
0.0840119
0.0814398
0.0782127
0.0742184
0.0693651
0.0636482
0.0572243
0.0504716
0.0439996
0.0385612
0.0348634
0.0333919
0.0343258
0.0374638
0.0423282
0.0483303
0.0548863
0.0614904
0.0677412
0.0733242
0.0779431
0.0812581
0.08302
0.0824201
0.0800054
0.0910808
0.090278
0.0892045
0.0879564
0.0864275
0.0844696
0.0819745
0.0788414
0.0749595
0.0702358
0.0646604
0.0583806
0.0517648
0.0454189
0.0401016
0.0365325
0.0352089
0.0363027
0.0395889
0.0445589
0.0506009
0.0571167
0.0635953
0.0696425
0.0749162
0.0790611
0.0817001
0.0824898
0.0806753
0.0769077
0.0913308
0.0905575
0.0895146
0.0883073
0.0868298
0.0849328
0.0825077
0.079456
0.0756692
0.071053
0.0655933
0.0594294
0.0529222
0.0466757
0.0414566
0.0379973
0.0368061
0.0380485
0.0414731
0.0465403
0.0526162
0.0590855
0.0654303
0.0712677
0.0762031
0.0798134
0.0817043
0.0814485
0.0784995
0.0736431
0.0915866
0.0908439
0.0898318
0.0886652
0.0872387
0.0854012
0.0830424
0.0800635
0.0763579
0.0718303
0.0664631
0.0603888
0.0539624
0.0477884
0.0426436
0.0392754
0.038203
0.0395853
0.0431423
0.0483024
0.0544098
0.0608268
0.06705
0.0726702
0.0772213
0.0802443
0.0813387
0.0800336
0.0761209
0.0705596
0.0918447
0.0911322
0.0901517
0.0890264
0.0876511
0.0858728
0.0835793
0.0806683
0.0770337
0.0725793
0.067284
0.061274
0.0549008
0.048772
0.043678
0.0403828
0.0394173
0.0409341
0.044622
0.0498756
0.0560169
0.0623812
0.0684873
0.0738781
0.0780043
0.0803985
0.0806734
0.0783621
0.0737024
0.0678065
0.0921026
0.0914215
0.0904729
0.0893884
0.0880646
0.0863463
0.084117
0.0812728
0.0777021
0.0733088
0.0680685
0.0620997
0.0557522
0.0496388
0.0445683
0.0413265
0.0404566
0.0421052
0.0459266
0.0512809
0.0574679
0.0637929
0.0697928
0.0749337
0.0785882
0.0803281
0.0797796
0.0765308
0.071358
0.0654487
0.0923532
0.09171
0.0907939
0.0897488
0.0884759
0.0868193
0.0846572
0.0818789
0.0783683
0.0740255
0.0688248
0.062877
0.0565311
0.0504066
0.0453373
0.0421288
0.0413419
0.0431214
0.0470794
0.0525428
0.0587703
0.0650735
0.0709841
0.0758291
0.0789861
0.0800645
0.078697
0.0746022
0.0691462
0.0634298
0.092586
0.0919947
0.0911135
0.0901076
0.0888833
0.0872879
0.0851977
0.082488
0.079039
0.0747398
0.0695639
0.0636123
0.057239
0.0510705
0.0459779
0.0427942
0.0420843
0.0440022
0.0481079
0.0536919
0.0600029
0.0663287
0.0721233
0.0766295
0.0792543
0.0796692
0.0774906
0.0726376
0.066855
0.06158
0.092801
0.0922647
0.0914253
0.0904656
0.089289
0.0877518
0.0857353
0.0830926
0.0797044
0.0754469
0.0702897
0.0643174
0.0578895
0.0516432
0.0464379
0.0432604
0.0426392
0.0447092
0.0489953
0.0547187
0.0610401
0.0674228
0.0731171
0.0772651
0.0793651
0.0791292
0.0761566
0.0705816
0.0645707
0.0599875
0.0929922
0.0924981
0.0917181
0.090816
0.0896926
0.088219
0.086285
0.0837605
0.0804339
0.0762207
0.0710715
0.0650721
0.0585762
0.0522837
0.0470673
0.0437139
0.0431366
0.0453495
0.0498333
0.0557853
0.0623664
0.0686905
0.0742155
0.077911
0.0794507
0.0784725
0.0745594
0.0682807
0.062437
0.0591415
0.0931959
0.0927106
0.0919844
0.0911149
0.0900218
0.0885874
0.0866684
0.0841667
0.0809274
0.0767737
0.071589
0.0655078
0.0588828
0.0524694
0.0471558
0.0439056
0.0434196
0.0457905
0.0504292
0.0564184
0.0629275
0.0694654
0.0749369
0.0782269
0.0793818
0.0782355
0.0731209
0.0658178
0.0599676
0.0579328
0.0934494
0.0929842
0.0923809
0.0916067
0.0906053
0.0892897
0.0875242
0.0851459
0.0820214
0.0779602
0.0728233
0.0666612
0.0598382
0.0531549
0.0475504
0.0440916
0.0436726
0.0463153
0.0514135
0.0579389
0.064747
0.0712173
0.0761729
0.0789117
0.0788887
0.076127
0.0700512
0.0629388
0.0586982
0.0579259
0.0201901
0.0417169
0.0526791
0.053271
0.0580093
0.0578128
0.0588797
0.0614443
0.0643193
0.0671325
0.0696209
0.0717858
0.0735886
0.0750911
0.0763039
0.077289
0.0780823
0.0787198
0.0792338
0.079648
0.0799939
0.0802753
0.0805453
0.0807522
0.0810746
0.0812985
0.081778
0.082113
0.083114
0.0819604
0.0180919
0.0404522
0.0537702
0.0543402
0.0578665
0.057125
0.0573997
0.0597486
0.0626693
0.0656081
0.0682536
0.0705747
0.0725395
0.0741845
0.0755338
0.0766408
0.0775451
0.0782808
0.0788809
0.0793689
0.0797772
0.0801101
0.0804191
0.0806586
0.0809257
0.0811055
0.0813966
0.0814683
0.0818306
0.08133
0.0166776
0.0378903
0.0542725
0.0568552
0.0569
0.0565515
0.0557879
0.0576615
0.0605836
0.0636608
0.0664979
0.0690149
0.0711933
0.0730373
0.0745732
0.0758492
0.0769056
0.0777746
0.0784886
0.0790731
0.0795575
0.0799541
0.0802971
0.0805788
0.080835
0.0810229
0.0812472
0.0813774
0.0815947
0.0816892
0.0154933
0.0355996
0.0541252
0.0598692
0.0566539
0.0557106
0.0541635
0.0555165
0.0585142
0.0618677
0.0649811
0.0677386
0.0701514
0.0722064
0.0739223
0.0753506
0.0765358
0.0775113
0.0783107
0.0789628
0.0794966
0.0799317
0.0802951
0.0805996
0.0808727
0.0811072
0.0813556
0.0815804
0.0818479
0.0820701
0.013433
0.033066
0.0533731
0.0628114
0.057896
0.0536415
0.0524463
0.0531676
0.0561364
0.0598724
0.0633462
0.0663773
0.0690429
0.0713292
0.0732389
0.074828
0.0761484
0.0772365
0.0781271
0.078852
0.0794409
0.0799177
0.0803075
0.0806291
0.0809069
0.081149
0.0813803
0.0815978
0.0818243
0.0820416
0.010367
0.0294885
0.0512604
0.0650921
0.0599461
0.0516635
0.0501551
0.0502133
0.0529973
0.0572444
0.0612413
0.0646224
0.0675896
0.0701597
0.0723129
0.0741064
0.0756014
0.0768378
0.077852
0.0786781
0.0793469
0.0798843
0.0803154
0.0806612
0.0809436
0.0811781
0.0813836
0.0815722
0.0817555
0.0819733
0.00644281
0.0250318
0.0479317
0.0656739
0.0626572
0.0507284
0.0463395
0.0466615
0.0489821
0.053776
0.0585558
0.0624293
0.065772
0.0686924
0.0711493
0.0731966
0.0749078
0.0763287
0.0774978
0.0784521
0.0792241
0.0798416
0.0803305
0.080714
0.0810145
0.0812518
0.0814454
0.0816145
0.0817653
0.0819547
0.00150406
0.0194129
0.0432328
0.063652
0.0648329
0.0506801
0.0419037
0.0419821
0.04401
0.0492801
0.0551809
0.0597601
0.0635721
0.0669121
0.0697331
0.0720826
0.0740492
0.0756881
0.0770418
0.078151
0.0790506
0.0797704
0.0803372
0.0807757
0.0811093
0.0813596
0.0815472
0.0816945
0.0818074
0.0819509
-0.00464886
0.0124866
0.0367175
0.0595514
0.0648586
0.0512382
0.0376533
0.035487
0.037833
0.0433531
0.0507699
0.0564241
0.0608705
0.0647223
0.0679795
0.0706866
0.0729533
0.0748487
0.0764218
0.0777179
0.0787754
0.0796258
0.080297
0.0808142
0.0812009
0.0814793
0.0816708
0.0818001
0.0818743
0.0819676
-0.0121635
0.00395873
0.028178
0.0532777
0.0619881
0.0511681
0.0338767
0.027689