/*--------------------------------*- C++ -*----------------------------------*\
  =========                 |
  \\      /  F ield         | OpenFOAM: The Open Source CFD Toolbox
   \\    /   O peration     | Website:  https://openfoam.org
    \\  /    A nd           | Version:  11
     \\/     M anipulation  |
\*---------------------------------------------------------------------------*/
FoamFile
{
    format      ascii;
    class       volScalarField;
    location    "4";
    object      p;
}
// * * * * * * * * * * * * * * * * * * * * * * * * * * * * * * * * * * * * * //

dimensions      [0 2 -2 0 0 0 0];

internalField   nonuniform List<scalar> 
12600
(
0.826643
0.826507
0.826435
0.826402
0.826365
0.826314
0.826252
0.82618
0.826095
0.825993
0.825872
0.825725
0.825548
0.825333
0.825073
0.824756
0.824369
0.823896
0.823315
0.822603
0.821723
0.820638
0.81931
0.81767
0.815635
0.813106
0.809957
0.806016
0.801098
0.794862
0.826571
0.8265
0.826439
0.826403
0.826365
0.826315
0.826255
0.826183
0.826099
0.825998
0.825879
0.825734
0.825559
0.825347
0.825089
0.824776
0.824394
0.823928
0.823355
0.822654
0.821785
0.820712
0.819401
0.817783
0.815775
0.813278
0.810164
0.806269
0.801381
0.79524
0.82654
0.826504
0.82645
0.826409
0.826369
0.826321
0.826263
0.826193
0.82611
0.826012
0.825894
0.825752
0.82558
0.825373
0.825121
0.824815
0.824441
0.823985
0.823426
0.822739
0.821892
0.820848
0.819569
0.817988
0.816027
0.813588
0.810541
0.806731
0.801917
0.795905
0.82652
0.826496
0.826452
0.826411
0.826372
0.826326
0.82627
0.826203
0.826123
0.826028
0.825913
0.825775
0.82561
0.825409
0.825165
0.824869
0.824509
0.824068
0.823528
0.822865
0.82205
0.821046
0.819812
0.818287
0.816396
0.814041
0.811097
0.807412
0.80273
0.796886
0.826508
0.826491
0.826457
0.826419
0.826381
0.826337
0.826283
0.826218
0.826141
0.82605
0.82594
0.825808
0.82565
0.825458
0.825225
0.824942
0.824598
0.824178
0.823663
0.823032
0.822256
0.821302
0.820126
0.818675
0.816874
0.814631
0.811822
0.808302
0.803807
0.798194
0.826502
0.826489
0.826461
0.826426
0.82639
0.826348
0.826296
0.826235
0.826162
0.826076
0.825972
0.825847
0.825697
0.825516
0.825297
0.82503
0.824706
0.82431
0.823827
0.823234
0.822506
0.821611
0.820509
0.819147
0.817457
0.815352
0.812712
0.809397
0.805142
0.799821
0.8265
0.82649
0.826467
0.826436
0.826401
0.826361
0.826313
0.826256
0.826188
0.826107
0.82601
0.825893
0.825754
0.825585
0.825381
0.825134
0.824833
0.824467
0.824019
0.823471
0.822798
0.821972
0.820955
0.819699
0.81814
0.816196
0.813755
0.810685
0.806724
0.801756
0.826501
0.826493
0.826474
0.826446
0.826414
0.826377
0.826333
0.826279
0.826216
0.826141
0.826052
0.825945
0.825817
0.825663
0.825477
0.825251
0.824977
0.824643
0.824236
0.823738
0.823129
0.82238
0.821459
0.820322
0.818912
0.817153
0.814941
0.812154
0.808538
0.803986
0.826506
0.826499
0.826482
0.826458
0.826428
0.826394
0.826354
0.826306
0.826248
0.82618
0.8261
0.826003
0.825888
0.825749
0.825582
0.825381
0.825136
0.824839
0.824477
0.824035
0.823494
0.822831
0.822016
0.821011
0.819765
0.818211
0.816255
0.813786
0.810565
0.806494
0.826513
0.826507
0.826492
0.826471
0.826445
0.826414
0.826377
0.826334
0.826283
0.826222
0.826151
0.826066
0.825964
0.825843
0.825697
0.825521
0.825308
0.825051
0.824737
0.824355
0.823889
0.823319
0.822618
0.821756
0.820688
0.819357
0.817681
0.815563
0.812783
0.809254
0.826522
0.826517
0.826504
0.826485
0.826462
0.826435
0.826403
0.826365
0.82632
0.826267
0.826206
0.826133
0.826046
0.825943
0.82582
0.825671
0.825493
0.825277
0.825015
0.824697
0.82431
0.823837
0.823259
0.822548
0.821669
0.820576
0.8192
0.81746
0.815164
0.812235
0.826532
0.826528
0.826517
0.826501
0.826481
0.826457
0.826429
0.826397
0.826359
0.826315
0.826264
0.826203
0.826132
0.826048
0.825949
0.825829
0.825686
0.825514
0.825306
0.825055
0.824751
0.824381
0.823929
0.823376
0.822696
0.821852
0.820791
0.819451
0.817673
0.815394
0.826544
0.826541
0.826532
0.826518
0.826501
0.82648
0.826457
0.82643
0.8264
0.826364
0.826324
0.826277
0.826222
0.826158
0.826082
0.825993
0.825887
0.82576
0.825609
0.825426
0.825207
0.824942
0.824621
0.824231
0.823755
0.823167
0.822432
0.821507
0.820272
0.818681
0.826558
0.826555
0.826547
0.826535
0.826521
0.826505
0.826486
0.826465
0.826442
0.826415
0.826385
0.826352
0.826314
0.82627
0.82622
0.826161
0.826093
0.826013
0.825918
0.825806
0.825673
0.825515
0.825327
0.825102
0.824832
0.824504
0.824099
0.823595
0.822917
0.822037
0.826572
0.826569
0.826563
0.826554
0.826542
0.82653
0.826516
0.8265
0.826484
0.826467
0.826448
0.826428
0.826407
0.826384
0.826359
0.826332
0.826301
0.826268
0.826231
0.82619
0.826144
0.826094
0.826038
0.825978
0.825913
0.825843
0.825767
0.825682
0.825561
0.825397
0.826587
0.826585
0.82658
0.826573
0.826564
0.826555
0.826545
0.826536
0.826527
0.826519
0.826511
0.826505
0.826501
0.826499
0.826499
0.826503
0.82651
0.826524
0.826544
0.826573
0.826614
0.82667
0.826746
0.826848
0.826985
0.827168
0.827412
0.827735
0.828156
0.828692
0.826603
0.826602
0.826598
0.826592
0.826586
0.82658
0.826575
0.826572
0.82657
0.82657
0.826574
0.826582
0.826594
0.826612
0.826638
0.826672
0.826718
0.826777
0.826854
0.826953
0.827078
0.827238
0.827442
0.827702
0.828034
0.828459
0.829009
0.829721
0.830655
0.831853
0.82662
0.826619
0.826615
0.826611
0.826608
0.826605
0.826605
0.826607
0.826612
0.826621
0.826636
0.826657
0.826685
0.826724
0.826774
0.826838
0.826921
0.827026
0.827158
0.827323
0.827531
0.827792
0.828119
0.828529
0.829047
0.829702
0.830539
0.831611
0.833014
0.834816
0.826637
0.826636
0.826633
0.826631
0.826629
0.82663
0.826633
0.826641
0.826653
0.826671
0.826696
0.82673
0.826774
0.826832
0.826906
0.827
0.827118
0.827266
0.827451
0.827682
0.827968
0.828325
0.828769
0.829322
0.830014
0.830882
0.831981
0.833377
0.835196
0.837525
0.826654
0.826653
0.826651
0.82665
0.82665
0.826654
0.826661
0.826674
0.826692
0.826718
0.826754
0.8268
0.82686
0.826936
0.827033
0.827155
0.827307
0.827497
0.827732
0.828024
0.828385
0.828832
0.829386
0.830072
0.830924
0.831985
0.833319
0.835
0.837171
0.839935
0.826672
0.826671
0.826669
0.826668
0.82667
0.826676
0.826688
0.826705
0.82673
0.826764
0.826808
0.826866
0.826941
0.827035
0.827153
0.827301
0.827486
0.827714
0.827997
0.828347
0.828778
0.829309
0.829964
0.830771
0.831768
0.833003
0.834541
0.836464
0.83892
0.842021
0.82669
0.826689
0.826687
0.826686
0.826689
0.826698
0.826713
0.826735
0.826765
0.826806
0.82686
0.826929
0.827016
0.827127
0.827265
0.827438
0.827652
0.827917
0.828244
0.828646
0.829142
0.82975
0.830497
0.831414
0.832541
0.833927
0.83564
0.83776
0.840434
0.84377
0.826709
0.826707
0.826704
0.826702
0.826707
0.826718
0.826736
0.826762
0.826798
0.826845
0.826907
0.826986
0.827086
0.827212
0.827369
0.827564
0.827805
0.828103
0.82847
0.828921
0.829474
0.830152
0.830981
0.831995
0.833235
0.834751
0.836609
0.838886
0.841713
0.845192
0.826728
0.826725
0.82672
0.826717
0.826723
0.826736
0.826757
0.826787
0.826827
0.82688
0.826949
0.827038
0.827149
0.827288
0.827462
0.827677
0.827943
0.82827
0.828673
0.829167
0.829772
0.830511
0.831413
0.832512
0.833849
0.835474
0.837448
0.839843
0.842769
0.84631
0.826748
0.826743
0.826735
0.826731
0.826737
0.826753
0.826776
0.826808
0.826852
0.826911
0.826987
0.827083
0.827204
0.827355
0.827543
0.827776
0.828063
0.828417
0.828851
0.829383
0.830032
0.830824
0.831789
0.83296
0.834378
0.836092
0.838158
0.840638
0.84362
0.847161
0.82677
0.826762
0.826747
0.826742
0.82675
0.826768
0.826792
0.826827
0.826875
0.826938
0.827019
0.827122
0.827252
0.827413
0.827614
0.827861
0.828167
0.828543
0.829003
0.829566
0.830254
0.831091
0.832107
0.833337
0.834822
0.836606
0.838743
0.841282
0.844288
0.84779
0.826795
0.82678
0.826757
0.82675
0.82676
0.826778
0.826805
0.826842
0.826892
0.826959
0.827045
0.827153
0.82729
0.82746
0.82767
0.82793
0.828251
0.828645
0.829127
0.829716
0.830434
0.831306
0.832364
0.833641
0.835178
0.837017
0.839205
0.841784
0.844798
0.848248
0.826825
0.826799
0.826767
0.826759
0.82677
0.826789
0.826816
0.826855
0.826907
0.826977
0.827066
0.827179
0.82732
0.827497
0.827715
0.827985
0.828316
0.828724
0.829222
0.829831
0.830572
0.831472
0.832561
0.833873
0.835448
0.837327
0.839552
0.842154
0.845173
0.848589
0.826863
0.826802
0.826764
0.826763
0.826775
0.826794
0.826822
0.826862
0.826916
0.826988
0.827079
0.827195
0.82734
0.827521
0.827745
0.828021
0.828361
0.828777
0.829287
0.829909
0.830666
0.831584
0.832694
0.83403
0.835631
0.837535
0.839786
0.842398
0.845412
0.848823
0.82694
0.826812
0.826763
0.826766
0.82678
0.826798
0.826826
0.826866
0.826922
0.826994
0.827087
0.827205
0.827352
0.827535
0.827762
0.828041
0.828386
0.828807
0.829324
0.829953
0.830719
0.831648
0.83277
0.83412
0.835735
0.837653
0.83991
0.842526
0.84551
0.848837
0.789326
0.787023
0.785204
0.783697
0.782108
0.78035
0.778493
0.776585
0.774633
0.77263
0.770568
0.76844
0.76623
0.763917
0.761472
0.758858
0.75603
0.75293
0.749483
0.745594
0.741136
0.735945
0.729793
0.722373
0.713269
0.701811
0.687564
0.666549
0.649434
0.593659
0.7905
0.78857
0.786895
0.785413
0.783868
0.782212
0.780516
0.778816
0.777099
0.775346
0.773548
0.771695
0.769773
0.76776
0.765633
0.763361
0.760904
0.758215
0.755229
0.751864
0.748013
0.743533
0.738231
0.731847
0.724017
0.714197
0.701874
0.684571
0.667864
0.622603
0.790922
0.789397
0.788045
0.786717
0.785333
0.783903
0.782462
0.781013
0.779542
0.778039
0.776498
0.774912
0.773271
0.771559
0.769754
0.767833
0.765763
0.763503
0.761
0.758185
0.754969
0.751232
0.746811
0.741493
0.734963
0.726795
0.716465
0.702338
0.687264
0.651069
0.791956
0.790806
0.789767
0.788611
0.787383
0.78615
0.784923
0.783691
0.782444
0.78118
0.779893
0.778579
0.777226
0.775821
0.77435
0.77279
0.771117
0.769298
0.76729
0.765036
0.762465
0.759478
0.755943
0.751683
0.746436
0.739875
0.731482
0.720202
0.707266
0.678942
0.793394
0.79251
0.791711
0.790722
0.789663
0.788633
0.787631
0.786631
0.785622
0.784607
0.783584
0.782546
0.781488
0.780399
0.779267
0.778079
0.776814
0.775447
0.773946
0.772266
0.770351
0.768122
0.765475
0.762268
0.758286
0.753279
0.74676
0.738104
0.727489
0.706038
0.7952
0.794558
0.793992
0.793193
0.792321
0.7915
0.79072
0.789947
0.789173
0.788405
0.787644
0.786885
0.786124
0.785355
0.784571
0.78376
0.78291
0.782003
0.781014
0.779912
0.778653
0.777179
0.775407
0.773229
0.770469
0.766944
0.762209
0.755949
0.747647
0.732123
0.797368
0.796953
0.79661
0.795999
0.795314
0.794697
0.794136
0.79359
0.793054
0.792536
0.792041
0.791565
0.791106
0.790662
0.790228
0.7898
0.789368
0.788922
0.788447
0.78792
0.787311
0.786578
0.785659
0.784471
0.782879
0.780745
0.777683
0.773582
0.767501
0.756984
0.79989
0.799692
0.799562
0.79914
0.798644
0.798232
0.79789
0.797572
0.797273
0.797006
0.796777
0.796584
0.796428
0.796308
0.796226
0.796178
0.796164
0.796176
0.796208
0.796245
0.79627
0.796252
0.796149
0.795901
0.795404
0.794555
0.79303
0.790838
0.786826
0.780452
0.802757
0.802763
0.802835
0.8026
0.802294
0.802085
0.801959
0.801866
0.801804
0.801786
0.80182
0.801909
0.802053
0.802256
0.802521
0.80285
0.803245
0.803705
0.804229
0.804812
0.805444
0.806107
0.806772
0.807398
0.807907
0.808223
0.808079
0.80754
0.805397
0.80236
0.805945
0.806143
0.806406
0.806354
0.806236
0.806228
0.806313
0.806443
0.806613
0.80684
0.807134
0.807499
0.807938
0.808456
0.809059
0.809753
0.810543
0.811435
0.81243
0.813529
0.814732
0.816029
0.817403
0.818825
0.820239
0.821585
0.822649
0.823505
0.823005
0.822549
0.809422
0.809798
0.810236
0.810363
0.810431
0.810618
0.810909
0.811254
0.81165
0.812115
0.812661
0.813293
0.814015
0.814836
0.815764
0.816806
0.817972
0.819269
0.820705
0.822285
0.824012
0.825886
0.827898
0.830028
0.832234
0.834469
0.836558
0.838558
0.839449
0.840893
0.813141
0.813678
0.814276
0.814574
0.814823
0.815199
0.815686
0.816236
0.816848
0.817541
0.818327
0.819212
0.820204
0.82131
0.822542
0.823909
0.825423
0.827094
0.828933
0.830948
0.833147
0.835533
0.838102
0.840843
0.843722
0.846697
0.849626
0.852533
0.854558
0.857309
0.817041
0.817723
0.818461
0.818921
0.819344
0.819897
0.820568
0.821312
0.822127
0.823032
0.824042
0.825162
0.826402
0.827772
0.829282
0.830946
0.832774
0.834781
0.836977
0.839375
0.841983
0.844808
0.84785
0.851098
0.854526
0.858092
0.861677
0.865272
0.868176
0.871731
0.821048
0.821854
0.822714
0.823323
0.823909
0.824628
0.825468
0.826388
0.827389
0.828488
0.8297
0.831034
0.832498
0.834102
0.83586
0.837785
0.839889
0.842187
0.84469
0.847413
0.850364
0.853551
0.856973
0.860622
0.864471
0.868477
0.872533
0.876598
0.880106
0.884058
0.825076
0.825986
0.826945
0.82769
0.828425
0.829292
0.830283
0.831361
0.832526
0.833797
0.835188
0.836708
0.838367
0.840174
0.842145
0.844292
0.846628
0.849167
0.851923
0.854908
0.858131
0.861599
0.86531
0.869252
0.873397
0.877694
0.882039
0.886348
0.890154
0.894136
0.829031
0.830024
0.831061
0.831923
0.832791
0.833789
0.834909
0.836122
0.837428
0.838845
0.840387
0.842063
0.843883
0.845859
0.848003
0.850329
0.85285
0.855579
0.85853
0.861712
0.865136
0.868804
0.872713
0.876846
0.881169
0.885622
0.890098
0.894463
0.898325
0.902009
0.832816
0.833871
0.834966
0.835926
0.836907
0.838014
0.83924
0.840563
0.841984
0.843519
0.845181
0.846981
0.848927
0.851032
0.853308
0.855768
0.858425
0.861291
0.864377
0.867694
0.871248
0.875038
0.879058
0.883285
0.887679
0.89217
0.896647
0.900941
0.904734
0.908044
0.83634
0.837437
0.83857
0.839608
0.84068
0.841872
0.84318
0.844586
0.846093
0.847716
0.849467
0.851355
0.853391
0.855586
0.857951
0.860499
0.863242
0.866191
0.869356
0.872743
0.876358
0.880196
0.884244
0.888476
0.892844
0.897267
0.901628
0.905731
0.909305
0.912067
0.839524
0.840644
0.841796
0.84289
0.844031
0.845284
0.846648
0.84811
0.849673
0.851352
0.853158
0.855101
0.857188
0.859433
0.861845
0.864435
0.867215
0.870195
0.873381
0.876778
0.880388
0.884202
0.888202
0.892354
0.896603
0.900854
0.904979
0.908751
0.911906
0.913924
0.842306
0.843434
0.844588
0.845717
0.846901
0.84819
0.849584
0.851074
0.852665
0.85437
0.856198
0.858158
0.860261
0.862515
0.864931
0.86752
0.870289
0.873248
0.876402
0.879751
0.883294
0.887016
0.890895
0.894888
0.898927
0.902904
0.906673
0.909971
0.91255
0.913765
0.844651
0.84577
0.846913
0.848055
0.849259
0.85056
0.851958
0.853449
0.855039
0.856738
0.858556
0.860501
0.862582
0.864808
0.867188
0.869731
0.872445
0.875334
0.878403
0.88165
0.885066
0.888634
0.892322
0.896078
0.899824
0.903433
0.906749
0.909466
0.911397
0.911426
0.846547
0.847646
0.848764
0.849899
0.8511
0.852389
0.853768
0.855235
0.856796
0.858461
0.860238
0.862135
0.86416
0.866321
0.868627
0.871084
0.873698
0.876472
0.879407
0.882498
0.885732
0.889084
0.892517
0.895967
0.899344
0.902503
0.905278
0.907293
0.908517
0.906848
0.848012
0.849079
0.850162
0.851273
0.852449
0.853705
0.855041
0.85646
0.857968
0.859571
0.861279
0.863098
0.865035
0.867098
0.869293
0.871626
0.8741
0.876716
0.879473
0.882359
0.885359
0.888441
0.891557
0.894634
0.89757
0.900194
0.90234
0.903519
0.90401
0.900427
0.849088
0.850113
0.851151
0.852223
0.853355
0.854558
0.855833
0.857182
0.858612
0.860129
0.861741
0.863454
0.865273
0.867205
0.869256
0.871428
0.873724
0.876143
0.878677
0.881314
0.88403
0.886787
0.889529
0.892168
0.894589
0.896593
0.898021
0.898232
0.897885
0.892282
0.849835
0.850812
0.851798
0.852815
0.853888
0.855022
0.85622
0.857483
0.858818
0.860229
0.861723
0.863306
0.864983
0.866757
0.868633
0.870613
0.872696
0.874878
0.877148
0.879488
0.881869
0.884245
0.88655
0.888682
0.890513
0.891805
0.892414
0.891494
0.890133
0.882052
0.850334
0.851258
0.852181
0.85313
0.854127
0.855178
0.856282
0.857441
0.858661
0.859946
0.861301
0.862731
0.864239
0.865829
0.867502
0.869259
0.871095
0.873003
0.87497
0.876972
0.878972
0.880917
0.882728
0.884287
0.885448
0.885929
0.885601
0.88336
0.88082
0.869777
0.850667
0.851535
0.852385
0.853257
0.854175
0.85514
0.856146
0.857194
0.85829
0.859439
0.860644
0.861907
0.86323
0.864614
0.866061
0.867566
0.869124
0.870723
0.872345
0.873962
0.87553
0.876984
0.878234
0.879141
0.879541
0.879094
0.877698
0.873935
0.870071
0.855606
0.850978
0.851745
0.85246
0.853224
0.854049
0.85491
0.855808
0.856736
0.857693
0.858686
0.859719
0.860795
0.861914
0.863076
0.864276
0.865506
0.866758
0.86802
0.869266
0.870461
0.871553
0.872467
0.873098
0.873285
0.872842
0.87136
0.868783
0.863287
0.858027
0.839582
0.85155
0.852112
0.852596
0.85326
0.854032
0.854802
0.855585
0.856404
0.857245
0.858104
0.858986
0.859867
0.860764
0.861695
0.862636
0.863567
0.864483
0.86537
0.866196
0.866916
0.86747
0.867769
0.867692
0.86705
0.865637
0.862965
0.859063
0.851475
0.844905
0.821651
0.852157
0.852215
0.852391
0.852945
0.853663
0.854366
0.855015
0.855653
0.856307
0.856983
0.85768
0.858379
0.859065
0.859738
0.860391
0.861009
0.861575
0.862067
0.86245
0.862672
0.862661
0.862315
0.861493
0.859977
0.857542
0.853576
0.848405
0.83805
0.830984
0.801435
0.779897
0.755976
0.728377
0.698333
0.666196
0.63137
0.593615
0.553543
0.512093
0.470068
0.428963
0.388828
0.35088
0.319698
0.300296
0.295073
0.303032
0.320289
0.344011
0.373369
0.408729
0.446484
0.482514
0.51049
0.524996
0.528382
0.527457
0.526184
0.51986
0.508892
0.816965
0.79643
0.771897
0.745351
0.716437
0.684645
0.649066
0.610049
0.567834
0.522758
0.475942
0.428549
0.382141
0.341108
0.314115
0.305412
0.313064
0.33267
0.36006
0.393117
0.430662
0.46996
0.503581
0.525173
0.532984
0.531324
0.529729
0.527153
0.515378
0.499625
0.823808
0.805554
0.783441
0.758284
0.730201
0.698511
0.663064
0.624493
0.582798
0.538382
0.491711
0.444339
0.397836
0.356058
0.3284
0.319968
0.328725
0.3504
0.379891
0.414098
0.450246
0.485572
0.513488
0.528065
0.530342
0.526639
0.522905
0.51648
0.501509
0.487767
0.838118
0.821993
0.801989
0.779525
0.753865
0.723687
0.689037
0.65019
0.607308
0.561076
0.512597
0.463562
0.415826
0.373313
0.344782
0.335415
0.344279
0.367017
0.397617
0.432014
0.466717
0.497797
0.5192
0.528787
0.529116
0.525769
0.522253
0.517095
0.509971
0.511879
0.844765
0.831076
0.813758
0.793822
0.770621
0.742901
0.710237
0.672691
0.630399
0.583864
0.534239
0.483408
0.433821
0.389728
0.359529
0.348958
0.358037
0.381826
0.413331
0.447544
0.48028
0.507037
0.523472
0.52967
0.529524
0.527883
0.527548
0.529238
0.536916
0.55533
0.850422
0.838889
0.823697
0.805752
0.784359
0.75841
0.727279
0.69085
0.649201
0.602712
0.552412
0.500266
0.449166
0.403711
0.372283
0.361048
0.370637
0.395445
0.427547
0.461132
0.491509
0.514253
0.526704
0.530693
0.530947
0.531989
0.536525
0.546498
0.56493
0.59285
0.854144
0.844386
0.831353
0.815503
0.796109
0.772089
0.742658
0.707455
0.666431
0.619924
0.568957
0.515592
0.463072
0.416377
0.383993
0.372297
0.382384
0.408049
0.44047
0.47311
0.500951
0.520018
0.529258
0.531983
0.533448
0.537911
0.547902
0.564831
0.589081
0.61879
0.856734
0.848608
0.83743
0.823464
0.805967
0.783874
0.756286
0.722587
0.682504
0.636243
0.584788
0.530286
0.47631
0.428289
0.394934
0.382795
0.393374
0.419818
0.452355
0.483786
0.508973
0.524652
0.531326
0.533603
0.537001
0.545309
0.560369
0.581769
0.607814
0.634742
0.858444
0.851721
0.842197
0.829947
0.814215
0.793947
0.768163
0.736053
0.697113
0.651362
0.599667
0.5442
0.488817
0.439432
0.405121
0.392635
0.403765
0.430914
0.463346
0.493321
0.515774
0.528344
0.533039
0.53559
0.541463
0.553616
0.57283
0.596657
0.621968
0.643424
0.85953
0.854025
0.845964
0.835259
0.821158
0.802622
0.778591
0.748083
0.710377
0.665288
0.613532
0.557257
0.500558
0.449837
0.414639
0.401925
0.41365
0.441405
0.473524
0.501842
0.521522
0.531237
0.534492
0.53796
0.546618
0.562512
0.584709
0.609183
0.632151
0.644583
0.860166
0.855711
0.848929
0.839612
0.827012
0.810117
0.787792
0.758898
0.722503
0.678198
0.626522
0.569568
0.511629
0.459594
0.423567
0.41072
0.423068
0.45134
0.482964
0.509459
0.526361
0.533377
0.535816
0.540701
0.552324
0.571596
0.595923
0.619684
0.638366
0.639451
0.860474
0.856928
0.851273
0.843183
0.83195
0.816594
0.795912
0.768627
0.733605
0.690199
0.638737
0.581218
0.522102
0.46876
0.431939
0.419048
0.432058
0.460769
0.491736
0.51625
0.530365
0.53478
0.537163
0.543776
0.558507
0.580736
0.606263
0.628147
0.640579
0.631132
0.860542
0.857784
0.853114
0.846117
0.836127
0.8222
0.803085
0.777381
0.743768
0.701353
0.650224
0.592249
0.532015
0.477367
0.439785
0.426944
0.440657
0.469738
0.499896
0.522289
0.53346
0.535808
0.538485
0.547114
0.564896
0.589632
0.615225
0.633587
0.638453
0.619117
0.860434
0.858358
0.854553
0.848535
0.839675
0.827067
0.809433
0.785271
0.753082
0.711728
0.661035
0.602701
0.541402
0.485449
0.447138
0.43444
0.448903
0.478287
0.507496
0.527652
0.535591
0.536897
0.539783
0.550575
0.571297
0.597806
0.621989
0.635114
0.630888
0.602571
0.860194
0.858712
0.855667
0.850519
0.842697
0.831302
0.815062
0.792393
0.76163
0.721392
0.671225
0.612619
0.550305
0.493039
0.454028
0.44157
0.456827
0.486454
0.514582
0.532352
0.537157
0.537678
0.540901
0.55409
0.57758
0.604871
0.626179
0.632075
0.61714
0.581699
0.859855
0.858891
0.856519
0.85216
0.845268
0.834991
0.820063
0.798832
0.769486
0.730405
0.680843
0.622046
0.55876
0.500169
0.460485
0.448361
0.464461
0.494277
0.521182
0.536215
0.538641
0.537928
0.541866
0.557788
0.583677
0.610581
0.627327
0.624182
0.598441
0.560009
0.859441
0.858929
0.857152
0.853504
0.847461
0.838213
0.824514
0.804661
0.776713
0.738821
0.689931
0.631017
0.566798
0.50687
0.466534
0.454829
0.471831
0.501797
0.527325
0.539003
0.540098
0.537838
0.543011
0.561955
0.589607
0.615104
0.624933
0.612072
0.579675
0.545297
0.85897
0.858851
0.857602
0.854598
0.849336
0.841034
0.828481
0.809945
0.783371
0.746688
0.69853
0.639565
0.574449
0.513163
0.472198
0.460993
0.478968
0.509029
0.533066
0.541532
0.540944
0.537451
0.544652
0.566747
0.595385
0.617699
0.618799
0.598018
0.566069
0.541527
0.858459
0.858678
0.857897
0.855475
0.850937
0.843513
0.832026
0.814743
0.789511
0.75405
0.706675
0.64772
0.581739
0.519078
0.477526
0.466877
0.485907
0.515962
0.538192
0.544281
0.54105
0.537053
0.547175
0.572337
0.601413
0.61744
0.610074
0.584969
0.558628
0.546578
0.857919
0.858428
0.858061
0.856168
0.852279
0.845692
0.835201
0.819106
0.795182
0.760948
0.714401
0.655513
0.588688
0.524658
0.482478
0.47248
0.492684
0.522643
0.542115
0.546865
0.540748
0.537271
0.550946
0.578933
0.606103
0.614615
0.60035
0.575002
0.557269
0.553549
0.857359
0.858112
0.858111
0.856704
0.853433
0.847601
0.838045
0.823081
0.800426
0.767419
0.721737
0.662967
0.595326
0.529885
0.487059
0.477887
0.499325
0.529162
0.545781
0.548727
0.540188
0.538531
0.556195
0.586064
0.60862
0.609575
0.591042
0.568652
0.559206
0.560794
0.856781
0.85774
0.858062
0.857098
0.854399
0.849274
0.840597
0.826708
0.805282
0.773496
0.728712
0.670108
0.601661
0.534826
0.491271
0.483035
0.505797
0.53515
0.54989
0.549626
0.539766
0.541031
0.562844
0.592257
0.609284
0.603169
0.583056
0.565456
0.562545
0.565097
0.856196
0.857322
0.857927
0.857368
0.8552
0.850738
0.842888
0.830021
0.809785
0.779212
0.735353
0.676957
0.607725
0.539416
0.495125
0.488036
0.512141
0.53977
0.553762
0.549794
0.53998
0.545159
0.569939
0.597124
0.608057
0.596656
0.576891
0.564523
0.565928
0.566481
0.855609
0.856869
0.857717
0.857526
0.855854
0.852016
0.844946
0.833051
0.813965
0.784592
0.741684
0.683541
0.613529
0.543749
0.498678
0.492811
0.518357
0.544129
0.556463
0.549366
0.540848
0.549912
0.576616
0.600694
0.605382
0.590599
0.572545
0.565003
0.568542
0.566421
0.855025
0.856391
0.85744
0.857586
0.856374
0.853124
0.846795
0.835825
0.81785
0.789663
0.74772
0.68986
0.619082
0.547745
0.501887
0.497423
0.524114
0.54889
0.557561
0.54868
0.54211
0.555079
0.582589
0.602786
0.601795
0.585196
0.569592
0.566281
0.570044
0.565992
0.854462
0.855898
0.857108
0.857555
0.856773
0.854076
0.848451
0.838363
0.821467
0.794461
0.753518
0.69599
0.624444
0.551559
0.504904
0.501774
0.528655
0.553131
0.557626
0.547922
0.543691
0.56016
0.587777
0.603662
0.597697
0.580529
0.56771
0.567307
0.57068
0.565318
0.853947
0.855404
0.856732
0.857443
0.85705
0.854891
0.849944
0.84069
0.824808
0.798925
0.75896
0.701779
0.62949
0.554836
0.50724
0.505838
0.532889
0.555926
0.557261
0.547237
0.545772
0.565044
0.592092
0.603451
0.59365
0.576763
0.566838
0.569029
0.570803
0.564578
0.853482
0.854907
0.856337
0.857287
0.857224
0.855521
0.851259
0.842873
0.828075
0.803405
0.76448
0.707731
0.634839
0.558964
0.510167
0.509785
0.536839
0.557067
0.556869
0.546905
0.54801
0.569554
0.595499
0.602402
0.58989
0.573675
0.566621
0.57042
0.570378
0.562827
0.853091
0.854397
0.85591
0.857119
0.857411
0.856103
0.852282
0.844505
0.830494
0.806756
0.768592
0.71191
0.638021
0.560212
0.511196
0.512155
0.539456
0.557371
0.55599
0.54595
0.549578
0.573815
0.598414
0.601436
0.585969
0.570704
0.566377
0.571513
0.569231
0.560264
0.852817
0.853833
0.855255
0.856622
0.857338
0.856698
0.853764
0.847096
0.834477
0.812394
0.775954
0.720333
0.645751
0.565734
0.514612
0.514274
0.541205
0.557969
0.555491
0.546758
0.553496
0.57924
0.600385
0.597677
0.58097
0.569011
0.567808
0.572131
0.566671
0.555938
0.417284
0.406291
0.383769
0.370179
0.373981
0.398907
0.448848
0.502756
0.549389
0.588503
0.619486
0.643634
0.662702
0.677876
0.690037
0.699992
0.708402
0.715763
0.722437
0.728687
0.734718
0.74061
0.746591
0.752493
0.758833
0.764929
0.772118
0.778555
0.787843
0.790505
0.381426
0.358453
0.332908
0.325192
0.340622
0.371574
0.417999
0.47595
0.532497
0.579355
0.614884
0.641706
0.662514
0.678831
0.691639
0.701826
0.710162
0.717241
0.723513
0.72929
0.73482
0.740203
0.745644
0.751027
0.756689
0.762164
0.768203
0.773397
0.77994
0.784161
0.340377
0.310604
0.285834
0.283635
0.304753
0.339966
0.384389
0.442125
0.506008
0.561948
0.605146
0.637112
0.660959
0.67912
0.693048
0.703843
0.712381
0.71934
0.725267
0.730568
0.735543
0.740372
0.745224
0.750117
0.755185
0.760297
0.765713
0.771052
0.776962
0.783041
0.310696
0.280214
0.257644
0.252848
0.271854
0.309032
0.35526
0.413322
0.481058
0.546212
0.598595
0.637011
0.664611
0.684676
0.699391
0.710387
0.718768
0.725314
0.730654
0.735266
0.739508
0.743629
0.747812
0.75215
0.756726
0.761533
0.766637
0.771969
0.777548
0.783276
0.304878
0.272667
0.248144
0.238489
0.252133
0.287184
0.333436
0.390728
0.459223
0.530038
0.591369
0.637881
0.670804
0.69342
0.708995
0.719942
0.727773
0.733528
0.737952
0.741577
0.744803
0.747927
0.751159
0.754632
0.758428
0.762571
0.767052
0.771833
0.776871
0.782132
0.322387
0.286355
0.255911
0.240116
0.246939
0.276806
0.319717
0.374628
0.441454
0.514375
0.582534
0.637643
0.677422
0.704143
0.72149
0.732557
0.739602
0.744168
0.747245
0.749483
0.751338
0.753135
0.755108
0.757413
0.76015
0.76337
0.767088
0.771192
0.775715
0.780619
0.362186
0.319216
0.281296
0.257061
0.255252
0.276359
0.314396
0.366027
0.430197
0.502759
0.574759
0.636981
0.6844
0.717024
0.737589
0.749532
0.7559
0.758925
0.760089
0.760338
0.760265
0.760248
0.76054
0.76131
0.762666
0.764665
0.767328
0.770661
0.774604
0.778965
0.421791
0.369056
0.322645
0.288477
0.27603
0.286889
0.317158
0.363806
0.424815
0.495907
0.569213
0.636347
0.690957
0.730584
0.756202
0.77067
0.777288
0.778941
0.77783
0.775456
0.772751
0.770244
0.768256
0.766946
0.766445
0.766799
0.76804
0.770154
0.773135
0.776876
0.48943
0.429789
0.374281
0.329686
0.305912
0.305528
0.326497
0.366273
0.422327
0.49036
0.563292
0.633179
0.693418
0.740211
0.772649
0.792074
0.801166
0.802897
0.800054
0.794892
0.788947
0.783224
0.778227
0.774156
0.771263
0.769439
0.7688
0.769354
0.77101
0.773718
0.550619
0.491635
0.428877
0.374273
0.339099
0.327092
0.33767
0.369108
0.41837
0.481367
0.551912
0.622631
0.686684
0.739437
0.779097
0.805716
0.820451
0.825456
0.823398
0.816969
0.808347
0.799263
0.790507
0.783194
0.777264
0.772382
0.769313
0.767608
0.7679
0.769105
0.596596
0.543134
0.476998
0.414241
0.367634
0.343389
0.341854
0.363434
0.404312
0.460266
0.526233
0.595882
0.662667
0.721181
0.767927
0.801672
0.823122
0.834086
0.836468
0.832108
0.823403
0.812609
0.80128
0.790688
0.781378
0.773491
0.767536
0.763586
0.761505
0.760586
0.613249
0.570522
0.505386
0.43688
0.379414
0.342892
0.329634
0.338488
0.36834
0.415631
0.475343
0.541807
0.609626
0.673311
0.728153
0.771016
0.800889
0.818947
0.827202
0.827501
0.82205
0.813354
0.803243
0.792712
0.782427
0.772793
0.764192
0.757234
0.752191
0.749404
0.595374
0.566165
0.504214
0.432196
0.365381
0.315971
0.290603
0.288898
0.308758
0.346087
0.397463
0.458802
0.525596
0.592614
0.654538
0.706631
0.746043
0.772653
0.787664
0.792522
0.789729
0.782503
0.773653
0.765002
0.757183
0.750457
0.743949
0.738648
0.73432
0.730654
0.556851
0.536417
0.478052
0.403704
0.329887
0.270675
0.233541
0.221091
0.231034
0.259271
0.301946
0.355839
0.417746
0.483981
0.549573
0.608948
0.65763
0.693399
0.716153
0.727523
0.7296
0.725717
0.718931
0.711221
0.703584
0.696547
0.6911
0.686402
0.683568
0.683363
0.50884
0.500918
0.441491
0.365615
0.285744
0.218262
0.171163
0.147835
0.147379
0.165966
0.198885
0.242935
0.295866
0.356902
0.422154
0.486145
0.543441
0.590041
0.623985
0.645724
0.65764
0.662584
0.663652
0.662861
0.661189
0.658913
0.65601
0.652374
0.647841
0.643404
0.481787
0.479873
0.417834
0.336787
0.249521
0.173314
0.115591
0.0800295
0.0675877
0.0757826
0.0991835
0.133182
0.175459
0.227587
0.28808
0.352909
0.41671
0.474335
0.522
0.558456
0.583943
0.601817
0.613646
0.621383
0.626263
0.628946
0.62991
0.629564
0.628175
0.626053
0.504
0.485786
0.418457
0.330722
0.23442
0.147741
0.0779673
0.0287071
0.00202574
-0.00217273
0.0117412
0.0366619
0.0697734
0.111914
0.164184
0.225451
0.291846
0.357681
0.417931
0.469646
0.51102
0.542484
0.565407
0.581495
0.592374
0.599354
0.603426
0.605271
0.605502
0.604473
0.569394
0.530963
0.447384
0.352566
0.24867
0.15024
0.0674601
0.00429885
-0.0372002
-0.0559
-0.052293
-0.0355591
-0.00970274
0.0236507
0.0662581
0.120171
0.183984
0.253326
0.322315
0.385814
0.440531
0.484353
0.517093
0.540418
0.556376
0.566908
0.57356
0.577404
0.57924
0.579494
0.646219
0.603611
0.512836
0.409541
0.299588
0.19
0.0933727
0.0156291
-0.0411754
-0.0752252
-0.0859786
-0.0782221
-0.0586809
-0.0322867
0.00169007
0.0473225
0.105659
0.173902
0.246623
0.316843
0.37989
0.433541
0.474185
0.503153
0.522952
0.536036
0.544395
0.549393
0.552031
0.55278
0.690137
0.665988
0.592993
0.493354
0.382953
0.268855
0.16252
0.0722533
0.00166964
-0.0472404
-0.0728547
-0.0769329
-0.0661844
-0.0470991
-0.0211452
0.0158297
0.0668815
0.130818
0.203284
0.277145
0.344345
0.402214
0.446783