/*--------------------------------*- C++ -*----------------------------------*\
  =========                 |
  \\      /  F ield         | OpenFOAM: The Open Source CFD Toolbox
   \\    /   O peration     | Website:  https://openfoam.org
    \\  /    A nd           | Version:  11
     \\/     M anipulation  |
\*---------------------------------------------------------------------------*/
FoamFile
{
    format      ascii;
    class       surfaceScalarField;
    location    "4";
    object      phi;
}
// * * * * * * * * * * * * * * * * * * * * * * * * * * * * * * * * * * * * * //

dimensions      [0 3 -1 0 0 0 0];

internalField   nonuniform List<scalar> 
24840
(
1.92422e-05
5.90943e-09
1.92346e-05
7.57739e-09
1.92285e-05
6.16121e-09
1.92233e-05
5.17398e-09
1.92191e-05
4.17738e-09
1.92159e-05
3.2053e-09
1.92137e-05
2.23536e-09
1.92126e-05
1.11523e-09
1.92128e-05
-2.33453e-10
1.92147e-05
-1.91815e-09
1.92187e-05
-3.98966e-09
1.92253e-05
-6.62447e-09
1.92353e-05
-9.94885e-09
1.92494e-05
-1.41263e-08
1.92687e-05
-1.92457e-08
1.92942e-05
-2.55575e-08
1.93274e-05
-3.31906e-08
1.93696e-05
-4.21432e-08
1.94224e-05
-5.28064e-08
1.94879e-05
-6.55296e-08
1.95683e-05
-8.04168e-08
1.96661e-05
-9.78255e-08
1.97844e-05
-1.18252e-07
1.99265e-05
-1.42148e-07
2.00964e-05
-1.699e-07
2.02981e-05
-2.01628e-07
2.05363e-05
-2.38213e-07
2.08125e-05
-2.76262e-07
2.11437e-05
-3.31156e-07
-3.30397e-07
2.14741e-05
1.92529e-05
1.1081e-09
1.92591e-05
1.412e-09
1.92663e-05
-1.03793e-09
1.92752e-05
-3.75457e-09
1.92849e-05
-5.53962e-09
1.92952e-05
-7.0484e-09
1.93062e-05
-8.76954e-09
1.93181e-05
-1.08211e-08
1.93312e-05
-1.3322e-08
1.93457e-05
-1.64076e-08
1.9362e-05
-2.02397e-08
1.93804e-05
-2.50415e-08
1.94015e-05
-3.10602e-08
1.94259e-05
-3.85461e-08
1.94545e-05
-4.77836e-08
1.94879e-05
-5.90192e-08
1.95274e-05
-7.26468e-08
1.95746e-05
-8.93252e-08
1.9631e-05
-1.09282e-07
1.96983e-05
-1.32817e-07
1.97788e-05
-1.60919e-07
1.98757e-05
-1.94705e-07
1.99924e-05
-2.34914e-07
2.01321e-05
-2.81883e-07
2.02982e-05
-3.35979e-07
2.04942e-05
-3.97636e-07
2.07239e-05
-4.67979e-07
2.09919e-05
-5.44195e-07
2.13016e-05
-6.40921e-07
-6.75078e-07
2.16463e-05
1.92506e-05
-1.34293e-09
1.92559e-05
-3.93997e-09
1.92625e-05
-7.57513e-09
1.92701e-05
-1.13696e-08
1.9279e-05
-1.44308e-08
1.92889e-05
-1.70098e-08
1.92998e-05
-1.96362e-08
1.93116e-05
-2.26152e-08
1.93244e-05
-2.61564e-08
1.93385e-05
-3.04932e-08
1.93542e-05
-3.589e-08
1.93718e-05
-4.26712e-08
1.9392e-05
-5.12125e-08
1.94153e-05
-6.19149e-08
1.94428e-05
-7.52123e-08
1.94753e-05
-9.15662e-08
1.95142e-05
-1.11531e-07
1.95607e-05
-1.35829e-07
1.96165e-05
-1.65066e-07
1.96835e-05
-1.9985e-07
1.97638e-05
-2.41205e-07
1.98595e-05
-2.90433e-07
1.99733e-05
-3.48687e-07
2.01083e-05
-4.16866e-07
2.02682e-05
-4.95898e-07
2.04572e-05
-5.86648e-07
2.068e-05
-6.90781e-07
2.09409e-05
-8.05128e-07
2.1246e-05
-9.46028e-07
-1.0306e-06
2.16016e-05
1.925e-05
-3.17323e-09
1.92546e-05
-8.57198e-09
1.92608e-05
-1.37444e-08
1.9268e-05
-1.86177e-08
1.92764e-05
-2.28026e-08
1.92858e-05
-2.64407e-08
1.92962e-05
-3.00083e-08
1.93075e-05
-3.39104e-08
1.93198e-05
-3.84635e-08
1.93333e-05
-4.39959e-08
1.93483e-05
-5.08712e-08
1.93651e-05
-5.95191e-08
1.93843e-05
-7.04365e-08
1.94066e-05
-8.41737e-08
1.94327e-05
-1.01328e-07
1.94637e-05
-1.22544e-07
1.95007e-05
-1.48534e-07
1.9545e-05
-1.80114e-07
1.9598e-05
-2.18123e-07
1.96617e-05
-2.63507e-07
1.9738e-05
-3.17511e-07
1.98292e-05
-3.81593e-07
1.99377e-05
-4.57201e-07
2.00666e-05
-5.45771e-07
2.02196e-05
-6.48908e-07
2.04011e-05
-7.68136e-07
2.0616e-05
-9.05738e-07
2.08702e-05
-1.05929e-06
2.1169e-05
-1.2448e-06
-1.38628e-06
2.15247e-05
1.92496e-05
-4.64048e-09
1.92535e-05
-1.24986e-08
1.92591e-05
-1.9353e-08
1.92659e-05
-2.54241e-08
1.92738e-05
-3.06868e-08
1.92827e-05
-3.53301e-08
1.92925e-05
-3.98083e-08
1.93032e-05
-4.45975e-08
1.93148e-05
-5.01047e-08
1.93276e-05
-5.67469e-08
1.93417e-05
-6.49958e-08
1.93576e-05
-7.53927e-08
1.93757e-05
-8.85484e-08
1.93967e-05
-1.05137e-07
1.94212e-05
-1.25891e-07
1.94503e-05
-1.51605e-07
1.94849e-05
-1.83143e-07
1.95263e-05
-2.2147e-07
1.95758e-05
-2.67647e-07
1.96351e-05
-3.22872e-07
1.97062e-05
-3.88582e-07
1.97911e-05
-4.66467e-07
1.98923e-05
-5.58385e-07
2.00129e-05
-6.66346e-07
2.01566e-05
-7.9261e-07
2.03279e-05
-9.39452e-07
2.0532e-05
-1.10991e-06
2.07757e-05
-1.30295e-06
2.10645e-05
-1.53361e-06
-1.73536e-06
2.14136e-05
1.92494e-05
-5.88899e-09
1.92528e-05
-1.59383e-08
1.92579e-05
-2.44625e-08
1.92643e-05
-3.17645e-08
1.92716e-05
-3.80505e-08
1.92799e-05
-4.36183e-08
1.92891e-05
-4.89394e-08
1.9299e-05
-5.45435e-08
1.93098e-05
-6.09333e-08
1.93217e-05
-6.86113e-08
1.93348e-05
-7.81296e-08
1.93496e-05
-9.01184e-08
1.93663e-05
-1.05294e-07
1.93856e-05
-1.24453e-07
1.94082e-05
-1.48461e-07
1.94348e-05
-1.78249e-07
1.94665e-05
-2.1482e-07
1.95043e-05
-2.59281e-07
1.95495e-05
-3.12864e-07
1.96036e-05
-3.76978e-07
1.96683e-05
-4.53289e-07
1.97456e-05
-5.43768e-07
1.98379e-05
-6.50675e-07
1.99482e-05
-7.7657e-07
2.008e-05
-9.24413e-07
2.02379e-05
-1.09739e-06
2.04275e-05
-1.2995e-06
2.06562e-05
-1.53161e-06
2.09304e-05
-1.80785e-06
-2.07352e-06
2.12685e-05
1.92492e-05
-6.98808e-09
1.92523e-05
-1.89825e-08
1.92569e-05
-2.90643e-08
1.92627e-05
-3.75577e-08
1.92694e-05
-4.48042e-08
1.9277e-05
-5.12115e-08
1.92854e-05
-5.73007e-08
1.92945e-05
-6.36515e-08
1.93044e-05
-7.08409e-08
1.93152e-05
-7.94464e-08
1.93272e-05
-9.00922e-08
1.93406e-05
-1.0349e-07
1.93557e-05
-1.20453e-07
1.93732e-05
-1.41886e-07
1.93935e-05
-1.68769e-07
1.94174e-05
-2.02148e-07
1.94457e-05
-2.43143e-07
1.94794e-05
-2.92986e-07
1.95196e-05
-3.53063e-07
1.95676e-05
-4.24966e-07
1.96249e-05
-5.10583e-07
1.96933e-05
-6.12159e-07
1.97749e-05
-7.32349e-07
1.98726e-05
-8.74276e-07
1.99899e-05
-1.04165e-06
2.01312e-05
-1.23867e-06
2.03022e-05
-1.47053e-06
2.0511e-05
-1.74039e-06
2.07649e-05
-2.06181e-06
-2.3946e-06
2.1086e-05
1.92491e-05
-7.95911e-09
1.92518e-05
-2.16697e-08
1.92559e-05
-3.3161e-08
1.92611e-05
-4.27638e-08
1.92672e-05
-5.08989e-08
1.9274e-05
-5.80632e-08
1.92816e-05
-6.4834e-08
1.92898e-05
-7.18418e-08
1.92987e-05
-7.97306e-08
1.93084e-05
-8.91449e-08
1.9319e-05
-1.00766e-07
1.93309e-05
-1.15369e-07
1.93443e-05
-1.33851e-07
1.93596e-05
-1.57214e-07
1.93774e-05
-1.86537e-07
1.93982e-05
-2.2296e-07
1.94228e-05
-2.677e-07
1.94519e-05
-3.2209e-07
1.94864e-05
-3.87637e-07
1.95276e-05
-4.66087e-07
1.95765e-05
-5.59517e-07
1.96348e-05
-6.70431e-07
1.97043e-05
-8.01857e-07
1.97875e-05
-9.5746e-07
1.98875e-05
-1.14171e-06
2.00087e-05
-1.35989e-06
2.01568e-05
-1.61856e-06
2.034e-05
-1.92361e-06
2.05666e-05
-2.2884e-06
-2.69001e-06
2.0862e-05
1.9249e-05
-8.80828e-09
1.92513e-05
-2.40164e-08
1.92549e-05
-3.67532e-08
1.92595e-05
-4.73534e-08
1.92649e-05
-5.62871e-08
1.9271e-05
-6.41162e-08
1.92776e-05
-7.14726e-08
1.92848e-05
-7.90392e-08
1.92926e-05
-8.75185e-08
1.9301e-05
-9.76076e-08
1.93103e-05
-1.10031e-07
1.93206e-05
-1.25616e-07
1.9332e-05
-1.45331e-07
1.93451e-05
-1.70259e-07
1.93601e-05
-2.01558e-07
1.93776e-05
-2.40437e-07
1.93981e-05
-2.88182e-07
1.94222e-05
-3.46202e-07
1.94506e-05
-4.1609e-07
1.94842e-05
-4.99707e-07
1.9524e-05
-5.99281e-07
1.95711e-05
-7.17527e-07
1.9627e-05
-8.57797e-07
1.96938e-05
-1.02424e-06
1.97742e-05
-1.22206e-06
1.98719e-05
-1.45764e-06
1.99923e-05
-1.73898e-06
2.01437e-05
-2.07501e-06
2.03346e-05
-2.47929e-06
-2.94862e-06
2.05932e-05
1.92489e-05
-9.53645e-09
1.92509e-05
-2.60266e-08
1.9254e-05
-3.98355e-08
1.92579e-05
-5.13025e-08
1.92625e-05
-6.0929e-08
1.92678e-05
-6.93238e-08
1.92734e-05
-7.71662e-08
1.92796e-05
-8.51874e-08
1.92862e-05
-9.41396e-08
1.92934e-05
-1.0476e-07
1.93011e-05
-1.17806e-07
1.93097e-05
-1.3414e-07
1.93191e-05
-1.54788e-07
1.93298e-05
-1.80895e-07
1.93419e-05
-2.13676e-07
1.93558e-05
-2.54387e-07
1.9372e-05
-3.04356e-07
1.93908e-05
-3.6503e-07
1.94128e-05
-4.38055e-07
1.94384e-05
-5.25354e-07
1.94684e-05
-6.29251e-07
1.95035e-05
-7.52609e-07
1.95447e-05
-8.99018e-07
1.95935e-05
-1.07302e-06
1.96519e-05
-1.28044e-06
1.97229e-05
-1.52869e-06
1.98111e-05
-1.8272e-06
1.99241e-05
-2.18799e-06
2.007e-05
-2.62514e-06
-3.15684e-06
2.02782e-05
1.92487e-05
-1.01425e-08
1.92504e-05
-2.76984e-08
1.9253e-05
-4.24006e-08
1.92563e-05
-5.45925e-08
1.92601e-05
-6.4796e-08
1.92645e-05
-7.36519e-08
1.92692e-05
-8.18765e-08
1.92742e-05
-9.02431e-08
1.92796e-05
-9.95453e-08
1.92854e-05
-1.10549e-07
1.92916e-05
-1.24029e-07
1.92984e-05
-1.40873e-07
1.93057e-05
-1.62145e-07
1.93139e-05
-1.89037e-07
1.9323e-05
-2.22796e-07
1.93333e-05
-2.64698e-07
1.9345e-05
-3.16081e-07
1.93584e-05
-3.784e-07
1.93737e-05
-4.53304e-07
1.9391e-05
-5.42728e-07
1.94108e-05
-6.49018e-07
1.94333e-05
-7.75099e-07
1.9459e-05
-9.24686e-07
1.94885e-05
-1.10257e-06
1.95231e-05
-1.31503e-06
1.95647e-05
-1.57027e-06
1.96164e-05
-1.87898e-06
1.96845e-05
-2.25605e-06
1.97757e-05
-2.71629e-06
-3.29926e-06
1.99181e-05
1.92486e-05
-1.06248e-08
1.92499e-05
-2.90286e-08
1.9252e-05
-4.44411e-08
1.92546e-05
-5.72089e-08
1.92577e-05
-6.78669e-08
1.92611e-05
-7.70757e-08
1.92648e-05
-8.55777e-08
1.92687e-05
-9.41796e-08
1.92729e-05
-1.03707e-07
1.92773e-05
-1.14942e-07
1.92819e-05
-1.28666e-07
1.92868e-05
-1.45781e-07
1.92921e-05
-1.67372e-07
1.92977e-05
-1.94654e-07
1.93038e-05
-2.28884e-07
1.93104e-05
-2.71333e-07
1.93176e-05
-3.23317e-07
1.93255e-05
-3.86261e-07
1.9334e-05
-4.6177e-07
1.9343e-05
-5.51729e-07
1.93524e-05
-6.58429e-07
1.9362e-05
-7.84745e-07
1.93717e-05
-9.34377e-07
1.93813e-05
-1.11217e-06
1.93909e-05
-1.3246e-06
1.9401e-05
-1.58034e-06
1.94129e-05
-1.89095e-06
1.94304e-05
-2.27355e-06
1.94577e-05
-2.7436e-06
-3.35998e-06
1.95185e-05
1.92485e-05
-1.09823e-08
1.92495e-05
-3.00145e-08
1.9251e-05
-4.59521e-08
1.92529e-05
-5.91434e-08
1.92552e-05
-7.013e-08
1.92577e-05
-7.95815e-08
1.92604e-05
-8.82563e-08
1.92632e-05
-9.69844e-08
1.92661e-05
-1.06612e-07
1.92691e-05
-1.17929e-07
1.92721e-05
-1.31712e-07
1.92752e-05
-1.48863e-07
1.92783e-05
-1.70474e-07
1.92814e-05
-1.97762e-07
1.92845e-05
-2.31968e-07
1.92875e-05
-2.74331e-07
1.92903e-05
-3.26119e-07
1.92927e-05
-3.88686e-07
1.92945e-05
-4.63547e-07
1.92952e-05
-5.5247e-07
1.92944e-05
-6.57604e-07
1.92913e-05
-7.81656e-07
1.92851e-05
-9.28143e-07
1.92746e-05
-1.10174e-06
1.92588e-05
-1.30877e-06
1.92364e-05
-1.55795e-06
1.92065e-05
-1.86107e-06
1.91695e-05
-2.23648e-06
1.91257e-05
-2.69985e-06
-3.32471e-06
1.90904e-05
1.92484e-05
-1.12144e-08
1.9249e-05
-3.06555e-08
1.925e-05
-4.69334e-08
1.92512e-05
-6.03949e-08
1.92527e-05
-7.15826e-08
1.92543e-05
-8.11667e-08
1.92559e-05
-8.99113e-08
1.92576e-05
-9.86596e-08
1.92593e-05
-1.08268e-07
1.92609e-05
-1.19522e-07
1.92623e-05
-1.33185e-07
1.92636e-05
-1.50149e-07
1.92646e-05
-1.71495e-07
1.92653e-05
-1.98421e-07
1.92655e-05
-2.32132e-07
1.92649e-05
-2.73809e-07
1.92635e-05
-3.24641e-07
1.92606e-05
-3.85877e-07
1.9256e-05
-4.58895e-07
1.92488e-05
-5.45282e-07
1.92382e-05
-6.46955e-07
1.92228e-05
-7.6633e-07
1.92013e-05
-9.06564e-07
1.91714e-05
-1.07189e-06
1.91308e-05
-1.26815e-06
1.90763e-05
-1.50349e-06
1.90044e-05
-1.78917e-06
1.89114e-05
-2.1434e-06
1.87927e-05
-2.58118e-06
-3.1835e-06
1.86515e-05
1.92482e-05
-1.13211e-08
1.92485e-05
-3.09551e-08
1.9249e-05
-4.73891e-08
1.92496e-05
-6.09682e-08
1.92502e-05
-7.22308e-08
1.92509e-05
-8.18396e-08
1.92515e-05
-9.05548e-08
1.92521e-05
-9.92216e-08
1.92525e-05
-1.08695e-07
1.92527e-05
-1.19749e-07
1.92527e-05
-1.33127e-07
1.92522e-05
-1.49696e-07
1.92513e-05
-1.70513e-07
1.92496e-05
-1.96737e-07
1.9247e-05
-2.29516e-07
1.92431e-05
-2.69951e-07
1.92376e-05
-3.19126e-07
1.92299e-05
-3.78154e-07
1.92192e-05
-4.48231e-07
1.92046e-05
-5.30705e-07
1.91848e-05
-6.2718e-07
1.91582e-05
-7.3966e-07
1.91224e-05
-8.7077e-07
1.90745e-05
-1.02405e-06
1.90108e-05
-1.20444e-06
1.89263e-05
-1.41895e-06
1.88145e-05
-1.67741e-06
1.86674e-05
-1.99625e-06
1.84748e-05
-2.38861e-06
-2.93379e-06
1.82251e-05
1.92481e-05
-1.13051e-08
1.92481e-05
-3.09165e-08
1.9248e-05
-4.7329e-08
1.92479e-05
-6.08764e-08
1.92478e-05
-7.20898e-08
1.92476e-05
-8.16197e-08
1.92472e-05
-9.02118e-08
1.92467e-05
-9.87004e-08
1.92459e-05
-1.0793e-07
1.92448e-05
-1.18658e-07
1.92433e-05
-1.31599e-07
1.92412e-05
-1.47588e-07
1.92383e-05
-1.67639e-07
1.92345e-05
-1.92855e-07
1.92292e-05
-2.24308e-07
1.92223e-05
-2.63003e-07
1.92131e-05
-3.09898e-07
1.92009e-05
-3.65943e-07
1.91847e-05
-4.32115e-07
1.91635e-05
-5.09476e-07
1.91356e-05
-5.99244e-07
1.90988e-05
-7.02913e-07
1.90505e-05
-8.22417e-07
1.89868e-05
-9.60374e-07
1.89028e-05
-1.12046e-06
1.87918e-05
-1.30798e-06
1.86449e-05
-1.53044e-06
1.84495e-05
-1.80084e-06
1.81899e-05
-2.12909e-06
-2.58294e-06
1.78391e-05
1.9248e-05
-1.11692e-08
1.92476e-05
-3.05521e-08
1.92471e-05
-4.67679e-08
1.92463e-05
-6.0139e-08
1.92454e-05
-7.11827e-08
1.92443e-05
-8.05327e-08
1.9243e-05
-8.89146e-08
1.92415e-05
-9.71396e-08
1.92396e-05
-1.06028e-07
1.92372e-05
-1.16313e-07
1.92343e-05
-1.28682e-07
1.92307e-05
-1.43928e-07
1.9226e-05
-1.63008e-07
1.92201e-05
-1.8695e-07
1.92126e-05
-2.16738e-07
1.92028e-05
-2.53265e-07
1.91903e-05
-2.97349e-07
1.91741e-05
-3.49757e-07
1.91532e-05
-4.11225e-07
1.91262e-05
-4.82491e-07
1.90913e-05
-5.64338e-07
1.90461e-05
-6.57672e-07
1.89873e-05
-7.63623e-07
1.89106e-05
-8.83702e-07
1.88102e-05
-1.02003e-06
1.86779e-05
-1.17575e-06
1.85028e-05
-1.35531e-06
1.82688e-05
-1.56685e-06
1.79555e-05
-1.81577e-06
-2.14935e-06
1.75219e-05
1.92479e-05
-1.0918e-08
1.92472e-05
-2.98742e-08
1.92462e-05
-4.57282e-08
1.92448e-05
-5.87853e-08
1.92432e-05
-6.95425e-08
1.92413e-05
-7.86142e-08
1.9239e-05
-8.67053e-08
1.92365e-05
-9.45929e-08
1.92335e-05
-1.03056e-07
1.923e-05
-1.12796e-07
1.92258e-05
-1.24471e-07
1.92207e-05
-1.38834e-07
1.92145e-05
-1.56772e-07
1.92067e-05
-1.79222e-07
1.91971e-05
-2.07063e-07
1.91849e-05
-2.41072e-07
1.91694e-05
-2.81919e-07
1.91499e-05
-3.30177e-07
1.9125e-05
-3.86328e-07
1.90932e-05
-4.50768e-07
1.90527e-05
-5.23821e-07
1.90008e-05
-6.05764e-07
1.8934e-05
-6.96857e-07
1.88477e-05
-7.974e-07
1.87355e-05
-9.07798e-07
1.85885e-05
-1.02872e-06
1.83943e-05
-1.1611e-06
1.81347e-05
-1.30726e-06
1.77861e-05
-1.46723e-06
-1.6615e-06
1.72983e-05
1.92478e-05
-1.05579e-08
1.92468e-05
-2.89013e-08
1.92453e-05
-4.42381e-08
1.92434e-05
-5.68494e-08
1.9241e-05
-6.72097e-08
1.92383e-05
-7.59135e-08
1.92353e-05
-8.36387e-08
1.92318e-05
-9.11184e-08
1.92278e-05
-9.90823e-08
1.92232e-05
-1.08192e-07
1.92178e-05
-1.19078e-07
1.92114e-05
-1.32445e-07
1.92038e-05
-1.49102e-07
1.91944e-05
-1.69884e-07
1.91829e-05
-1.95561e-07
1.91686e-05
-2.26786e-07
1.91508e-05
-2.64079e-07
1.91284e-05
-3.07822e-07
1.91004e-05
-3.58241e-07
1.9065e-05
-4.15393e-07
1.90203e-05
-4.79147e-07
1.89637e-05
-5.4915e-07
1.88916e-05
-6.24792e-07
1.87994e-05
-7.05144e-07
1.86804e-05
-7.88859e-07
1.85258e-05
-8.74061e-07
1.83227e-05
-9.58069e-07
1.80526e-05
-1.03709e-06
1.7691e-05
-1.10563e-06
-1.1551e-06
1.71846e-05
1.92477e-05
-1.00972e-08
1.92464e-05
-2.76567e-08
1.92445e-05
-4.23329e-08
1.9242e-05
-5.43754e-08
1.92391e-05
-6.42346e-08
1.92356e-05
-7.24855e-08
1.92318e-05
-7.97732e-08
1.92274e-05
-8.67805e-08
1.92225e-05
-9.41837e-08
1.9217e-05
-1.02602e-07
1.92105e-05
-1.12626e-07
1.9203e-05
-1.24909e-07
1.9194e-05
-1.40175e-07
1.91833e-05
-1.59157e-07
1.91703e-05
-1.82513e-07
1.91542e-05
-2.10771e-07
1.91345e-05
-2.44307e-07
1.911e-05
-2.83317e-07
1.90795e-05
-3.2779e-07
1.90416e-05
-3.77467e-07
1.89942e-05
-4.31789e-07
1.89349e-05
-4.8982e-07
1.88602e-05
-5.50137e-07
1.87658e-05
-6.10667e-07
1.86453e-05
-6.68428e-07
1.84904e-05
-7.19169e-07
1.82892e-05
-7.56788e-07
1.80239e-05
-7.7184e-07
1.76723e-05
-7.53973e-07
-6.67691e-07
1.71849e-05
1.92476e-05
-9.54637e-09
1.92461e-05
-2.61701e-08
1.92438e-05
-4.00559e-08
1.92409e-05
-5.14148e-08
1.92373e-05
-6.06737e-08
1.92332e-05
-6.839e-08
1.92286e-05
-7.51743e-08
1.92235e-05
-8.16541e-08
1.92177e-05
-8.84475e-08
1.92113e-05
-9.61257e-08
1.92039e-05
-1.05237e-07
1.91953e-05
-1.1637e-07
1.91853e-05
-1.30168e-07
1.91734e-05
-1.47263e-07
1.91591e-05
-1.68199e-07
1.91417e-05
-1.93388e-07
1.91205e-05
-2.23069e-07
1.90945e-05
-2.57272e-07
1.90624e-05
-2.95774e-07
1.9023e-05
-3.38043e-07
1.89744e-05
-3.83152e-07
1.89142e-05
-4.29666e-07
1.88396e-05
-4.75465e-07
1.87464e-05
-5.17503e-07
1.86294e-05
-5.51417e-07
1.84812e-05
-5.70977e-07
1.82916e-05
-5.67209e-07
1.80458e-05
-5.26047e-07
1.77251e-05
-4.33245e-07
-2.32985e-07
1.72904e-05
1.92475e-05
-8.91903e-09
1.92458e-05
-2.44794e-08
1.92432e-05
-3.74604e-08
1.92398e-05
-4.80266e-08
1.92357e-05
-5.65881e-08
1.9231e-05
-6.36929e-08
1.92258e-05
-6.99149e-08
1.922e-05
-7.58204e-08
1.92135e-05
-8.19643e-08
1.92062e-05
-8.88662e-08
1.9198e-05
-9.70258e-08
1.91886e-05
-1.0697e-07
1.91777e-05
-1.19257e-07
1.91648e-05
-1.34417e-07
1.91495e-05
-1.52891e-07
1.91311e-05
-1.74979e-07
1.91089e-05
-2.008e-07
1.90818e-05
-2.30246e-07
1.9049e-05
-2.62922e-07
1.9009e-05
-2.98077e-07
1.89604e-05
-3.345e-07
1.89011e-05
-3.7037e-07
1.88286e-05
-4.03045e-07
1.87399e-05
-4.28747e-07
1.86306e-05
-4.42092e-07
1.8495e-05
-4.35419e-07
1.83256e-05
-3.97764e-07
1.81115e-05
-3.12018e-07
1.78391e-05
-1.60823e-07
1.24199e-07
1.74819e-05
1.92474e-05
-8.23278e-09
1.92456e-05
-2.26351e-08
1.92428e-05
-3.46125e-08
1.9239e-05
-4.42776e-08
1.92345e-05
-5.20441e-08
1.92292e-05
-5.84641e-08
1.92234e-05
-6.40704e-08
1.92169e-05
-6.93605e-08
1.92098e-05
-7.48233e-08
1.92018e-05
-8.09254e-08
1.91929e-05
-8.81146e-08
1.91828e-05
-9.68512e-08
1.91712e-05
-1.07608e-07
1.91576e-05
-1.20822e-07
1.91415e-05
-1.36835e-07
1.91224e-05
-1.55851e-07
1.90995e-05
-1.7789e-07
1.9072e-05
-2.02734e-07
1.90389e-05
-2.29865e-07
1.89992e-05
-2.58382e-07
1.89516e-05
-2.86887e-07
1.88945e-05
-3.13317e-07
1.88262e-05
-3.34705e-07
1.87443e-05
-3.46861e-07
1.8646e-05
-3.43785e-07
1.85276e-05
-3.17001e-07
1.83843e-05
-2.54489e-07
1.82106e-05
-1.38259e-07
1.7997e-05
5.27608e-08
3.85562e-07
1.77356e-05
1.92474e-05
-7.5128e-09
1.92455e-05
-2.07064e-08
1.92425e-05
-3.15928e-08
1.92384e-05
-4.02404e-08
1.92335e-05
-4.71127e-08
1.92278e-05
-5.2779e-08
1.92215e-05
-5.7718e-08
1.92145e-05
-6.23528e-08
1.92067e-05
-6.71082e-08
1.91982e-05
-7.23966e-08
1.91887e-05
-7.86095e-08
1.9178e-05
-8.61379e-08
1.91658e-05
-9.53718e-08
1.91516e-05
-1.06659e-07
1.9135e-05
-1.20252e-07
1.91154e-05
-1.36273e-07
1.90922e-05
-1.54665e-07
1.90646e-05
-1.75138e-07
1.90318e-05
-1.97102e-07
1.8993e-05
-2.19586e-07
1.89473e-05
-2.4111e-07
1.88935e-05
-2.59521e-07
1.88305e-05
-2.71753e-07
1.87572e-05
-2.73493e-07
1.8672e-05
-2.58624e-07
1.85736e-05
-2.18589e-07
1.84605e-05
-1.41404e-07
1.83304e-05
-8.13293e-09
1.81825e-05
2.00612e-07
5.46605e-07
1.80215e-05
1.92474e-05
-6.80169e-09
1.92455e-05
-1.87942e-08
1.92424e-05
-2.84916e-08
1.92382e-05
-3.59859e-08
1.92329e-05
-4.18702e-08
1.92269e-05
-4.67256e-08
1.92201e-05
-5.09465e-08
1.92126e-05
-5.48835e-08
1.92044e-05
-5.89094e-08
1.91954e-05
-6.33813e-08
1.91854e-05
-6.86239e-08
1.91742e-05
-7.49537e-08
1.91615e-05
-8.26851e-08
1.9147e-05
-9.20853e-08
1.913e-05
-1.03327e-07
1.91102e-05
-1.16464e-07
1.9087e-05
-1.31388e-07
1.90596e-05
-1.47771e-07
1.90275e-05
-1.65007e-07
1.899e-05
-1.82128e-07
1.89466e-05
-1.97684e-07
1.88967e-05
-2.09586e-07
1.88398e-05
-2.1489e-07
1.87758e-05
-2.09445e-07
1.87047e-05
-1.87532e-07
1.86274e-05
-1.41274e-07
1.85447e-05
-5.87691e-08
1.846e-05
7.65744e-08
1.83769e-05
2.83764e-07
6.11438e-07
1.8312e-05
1.92475e-05
-6.17938e-09
1.92458e-05
-1.70756e-08
1.92427e-05
-2.54083e-08
1.92383e-05
-3.15643e-08
1.92328e-05
-3.63661e-08
1.92264e-05
-4.03551e-08
1.92193e-05
-4.38138e-08
1.92114e-05
-4.70287e-08
1.92028e-05
-5.03127e-08
1.91934e-05
-5.39626e-08
1.9183e-05
-5.82421e-08
1.91715e-05
-6.33977e-08
1.91585e-05
-6.96692e-08
1.91436e-05
-7.72453e-08
1.91265e-05
-8.62213e-08
1.91066e-05
-9.6596e-08
1.90835e-05
-1.08237e-07
1.90565e-05
-1.20825e-07
1.90253e-05
-1.33788e-07
1.89894e-05
-1.46233e-07
1.89486e-05
-1.56835e-07
1.89027e-05
-1.63706e-07
1.8852e-05
-1.6422e-07
1.87973e-05
-1.54696e-07
1.87399e-05
-1.30191e-07
1.86828e-05
-8.41167e-08
1.86296e-05
-5.56277e-09
1.85872e-05
1.18922e-07
1.85634e-05
3.07593e-07
5.90787e-07
1.85841e-05
1.92477e-05
-5.78643e-09
1.92465e-05
-1.58041e-08
1.92436e-05
-2.25049e-08
1.92391e-05
-2.7108e-08
1.92335e-05
-3.07223e-08
1.92269e-05
-3.37609e-08
1.92194e-05
-3.63836e-08
1.92113e-05
-3.88412e-08
1.92023e-05
-4.13793e-08
1.91926e-05
-4.42233e-08
1.91819e-05
-4.75645e-08
1.91701e-05
-5.15742e-08
1.91568e-05
-5.64269e-08
1.91418e-05
-6.224e-08
1.91247e-05
-6.90493e-08
1.91049e-05
-7.68075e-08
1.9082e-05
-8.53657e-08
1.90556e-05
-9.44413e-08
1.90254e-05
-1.03553e-07
1.89911e-05
-1.11946e-07
1.89528e-05
-1.18519e-07
1.89108e-05
-1.21711e-07
1.88659e-05
-1.19348e-07
1.88197e-05
-1.08461e-07
1.87746e-05
-8.51418e-08
1.87353e-05
-4.47579e-08
1.87079e-05
2.1772e-08
1.87019e-05
1.24906e-07
1.87285e-05
2.81069e-07
4.99714e-07
1.88195e-05
1.92484e-05
-6.0448e-09
1.92476e-05
-1.5014e-08
1.92449e-05
-1.97568e-08
1.92404e-05
-2.26787e-08
1.92347e-05
-2.50456e-08
1.9228e-05
-2.70253e-08
1.92204e-05
-2.87482e-08
1.9212e-05
-3.04237e-08
1.92028e-05
-3.22126e-08
1.91928e-05
-3.42569e-08
1.91819e-05
-3.6685e-08
1.917e-05
-3.95932e-08
1.91566e-05
-4.30707e-08
1.91415e-05
-4.71469e-08
1.91243e-05
-5.1836e-08
1.91046e-05
-5.71014e-08
1.9082e-05
-6.27916e-08
1.90562e-05
-6.86443e-08
1.9027e-05
-7.42808e-08
1.89942e-05
-7.91564e-08
1.89581e-05
-8.2478e-08
1.89195e-05
-8.30818e-08
1.88795e-05
-7.93882e-08
1.88404e-05
-6.93167e-08
1.88057e-05
-5.04318e-08
1.87812e-05
-2.02423e-08
1.87754e-05
2.75832e-08
1.87978e-05
1.02489e-07
1.88627e-05
2.16148e-07
3.56689e-07
1.90057e-05
1.92512e-05
-9.14155e-09
1.92508e-05
-1.45907e-08
1.92476e-05
-1.65414e-08
1.92429e-05
-1.80077e-08
1.92371e-05
-1.92259e-08
1.92303e-05
-2.02382e-08
1.92227e-05
-2.1143e-08
1.92143e-05
-2.20204e-08
1.9205e-05
-2.29452e-08
1.91948e-05
-2.39959e-08
1.91833e-05
-2.52487e-08
1.91705e-05
-2.67599e-08
1.9156e-05
-2.85775e-08
1.91396e-05
-3.07061e-08
1.91209e-05
-3.31608e-08
1.90997e-05
-3.59221e-08
1.90758e-05
-3.88856e-08
1.90491e-05
-4.18879e-08
1.90195e-05
-4.47125e-08
1.89874e-05
-4.7056e-08
1.89534e-05
-4.84953e-08
1.89187e-05
-4.83818e-08
1.88851e-05
-4.57723e-08
1.88553e-05
-3.94909e-08
1.88326e-05
-2.77432e-08
1.88207e-05
-8.3202e-09
1.88243e-05
2.3962e-08
1.88604e-05
6.64075e-08
1.89482e-05
1.28259e-07
1.89987e-07
1.91149e-05
1.9239e-05
1.92244e-05
1.92079e-05
1.91899e-05
1.91706e-05
1.91504e-05
1.91292e-05
1.91072e-05
1.90843e-05
1.90603e-05
1.9035e-05
1.90083e-05
1.89797e-05
1.8949e-05
1.89158e-05
1.88799e-05
1.8841e-05
1.87991e-05
1.87544e-05
1.87074e-05
1.86589e-05
1.86105e-05
1.85647e-05
1.85252e-05
1.84975e-05
1.84892e-05
1.85131e-05
1.85795e-05
1.87078e-05
1.88978e-05
2.10467e-05
-9.94444e-06
1.03718e-05
2.06042e-05
-1.00487e-05
1.04912e-05
2.01344e-05
-1.01441e-05
1.06139e-05
1.96358e-05
-1.02283e-05
1.07269e-05
1.9115e-05
-1.03099e-05
1.08308e-05
1.85777e-05
-1.03927e-05
1.09299e-05
1.80284e-05
-1.04773e-05
1.10267e-05
1.74694e-05
-1.05648e-05
1.11238e-05
1.69026e-05
-1.0656e-05
1.12229e-05
1.63286e-05
-1.07516e-05
1.13256e-05
1.57473e-05
-1.08518e-05
1.14331e-05
1.51583e-05
-1.09571e-05
1.15461e-05
1.45608e-05
-1.1068e-05
1.16654e-05
1.39542e-05
-1.11853e-05
1.17919e-05
1.33377e-05
-1.13103e-05
1.19268e-05
1.27102e-05
-1.14442e-05
1.20716e-05
1.20706e-05
-1.15886e-05
1.22283e-05
1.14171e-05
-1.17456e-05
1.23991e-05
1.07475e-05
-1.19172e-05
1.25868e-05
1.00588e-05
-1.21061e-05
1.27948e-05
9.34732e-06
-1.23157e-05
1.30272e-05
8.60787e-06
-1.25498e-05
1.32892e-05
7.83374e-06
-1.28131e-05
1.35872e-05
7.0157e-06
-1.31119e-05
1.393e-05
6.14125e-06
-1.34518e-05
1.43263e-05
5.19253e-06
-1.38462e-05
1.47949e-05
4.14866e-06
-1.42913e-05
1.53351e-05
2.95244e-06
-1.4837e-05
1.60332e-05
1.64502e-06
-1.53613e-05
1.66687e-05
-1.63769e-05
1.80219e-05
2.11794e-05
-9.47751e-06
2.0679e-05
-9.54832e-06
2.01561e-05
-9.62116e-06
1.96207e-05
-9.69298e-06
1.90773e-05
-9.76653e-06
1.85278e-05
-9.84318e-06
1.79733e-05
-9.92279e-06
1.74137e-05
-1.00052e-05
1.68485e-05
-1.00908e-05
1.62766e-05
-1.01798e-05
1.56973e-05
-1.02725e-05
1.51097e-05
-1.03695e-05
1.45131e-05
-1.04714e-05
1.39069e-05
-1.05792e-05
1.32903e-05
-1.06937e-05
1.26624e-05
-1.08162e-05
1.20217e-05
-1.09479e-05
1.13664e-05
-1.10903e-05
1.06942e-05
-1.12449e-05
1.00019e-05
-1.14139e-05
9.28588e-06
-1.15996e-05
8.54095e-06
-1.18048e-05
7.76054e-06
-1.20326e-05
6.93579e-06
-1.22872e-05
6.05513e-06
-1.25712e-05
5.10248e-06
-1.28935e-05
4.05664e-06
-1.32454e-05
2.88567e-06
-1.3666e-05
1.57971e-06
-1.40553e-05
-1.47972e-05
2.10974e-05
-8.9733e-06
2.05808e-05
-9.0318e-06
2.00541e-05
-9.09443e-06
1.9522e-05
-9.16083e-06
1.89854e-05
-9.22999e-06
1.84435e-05
-9.30123e-06
1.78951e-05
-9.37444e-06
1.73397e-05
-9.44984e-06
1.67767e-05
-9.5278e-06
1.62057e-05
-9.60877e-06
1.56264e-05
-9.69318e-06
1.50385e-05
-9.78157e-06
1.44416e-05
-9.87453e-06
1.38352e-05
-9.97271e-06
1.32182e-05
-1.00768e-05
1.25896e-05
-1.01876e-05
1.19478e-05
-1.03061e-05
1.12909e-05
-1.04333e-05
1.06165e-05
-1.05705e-05
9.92148e-06
-1.07189e-05
9.20212e-06
-1.08803e-05
8.45343e-06
-1.10561e-05
7.66906e-06
-1.12483e-05
6.84063e-06
-1.14588e-05
5.95743e-06
-1.1688e-05
5.00476e-06
-1.19409e-05
3.96397e-06
-1.22046e-05
2.81059e-06
-1.25127e-05
1.51618e-06
-1.27609e-05
-1.3281e-05
2.10139e-05
-8.46257e-06
2.04958e-05
-8.51372e-06
1.99701e-05
-8.56865e-06
1.94382e-05
-8.62893e-06
1.89003e-05
-8.69218e-06
1.83559e-05
-8.75682e-06
1.78045e-05
-8.82298e-06
1.72459e-05
-8.89126e-06
1.66802e-05
-8.96206e-06
1.61071e-05
-9.03568e-06
1.55263e-05
-9.11241e-06
1.49373e-05
-9.19261e-06
1.43395e-05
-9.2767e-06
1.37319e-05
-9.36513e-06
1.31135e-05
-9.45842e-06
1.2483e-05
-9.55715e-06
1.18389e-05
-9.66198e-06
1.11791e-05
-9.7736e-06
1.05014e-05
-9.89279e-06
9.8028e-06
-1.00203e-05
9.0795e-06
-1.0157e-05
8.32679e-06
-1.03034e-05
7.53868e-06
-1.04602e-05
6.70746e-06
-1.06275e-05
5.8235e-06
-1.0804e-05
4.87373e-06
-1.09911e-05
3.84277e-06
-1.11737e-05
2.70936e-06
-1.13792e-05
1.44403e-06
-1.14956e-05
-1.1837e-05
2.08978e-05
-7.94679e-06
2.03758e-05
-7.99172e-06
1.9847e-05
-8.03985e-06
1.93122e-05
-8.0941e-06
1.87716e-05
-8.15157e-06
1.82248e-05
-8.2101e-06
1.76717e-05
-8.26985e-06
1.7112e-05
-8.33153e-06
1.65454e-05
-8.39546e-06
1.59715e-05
-8.46176e-06
1.53897e-05
-8.53064e-06
1.47994e-05
-8.60235e-06
1.41999e-05
-8.67721e-06
1.35904e-05
-8.75555e-06
1.29697e-05
-8.83772e-06
1.23366e-05
-8.92406e-06
1.16896e-05
-9.01497e-06
1.10267e-05
-9.11077e-06
1.03458e-05
-9.21181e-06
9.64373e-06
-9.3183e-06
8.91712e-06
-9.43035e-06
8.16149e-06
-9.5478e-06
7.37136e-06
-9.67004e-06
6.53982e-06
-9.79601e-06
5.65843e-06
-9.92261e-06
4.71591e-06
-1.00486e-05
3.69984e-06
-1.01576e-05
2.59124e-06
-1.02706e-05
1.36679e-06
-1.02711e-05
-1.04702e-05
2.07486e-05
-7.42688e-06
2.02232e-05
-7.4663e-06
1.96917e-05
-7.5083e-06
1.91544e-05
-7.55684e-06
1.86115e-05
-7.60866e-06
1.80626e-05
-7.66121e-06
1.75074e-05
-7.71463e-06
1.69455e-05
-7.76966e-06
1.63767e-05
-7.82659e-06
1.58004e-05
-7.88546e-06
1.52161e-05
-7.94636e-06
1.46232e-05
-8.00949e-06
1.40211e-05
-8.07505e-06
1.34087e-05
-8.14322e-06
1.27852e-05
-8.21417e-06
1.21491e-05
-8.28802e-06
1.14991e-05
-8.3649e-06
1.08331e-05
-8.44483e-06
1.01491e-05
-8.52775e-06
9.44419e-06
-8.61342e-06
8.71521e-06
-8.70137e-06
7.95811e-06
-8.79071e-06
7.16803e-06
-8.87996e-06
6.33893e-06
-8.96691e-06
5.46366e-06
-9.04734e-06
4.5328e-06
-9.11773e-06
3.5367e-06
-9.16151e-06
2.45907e-06
-9.19301e-06
1.28512e-06
-9.0972e-06
-9.18505e-06
2.0562e-05
-6.90283e-06
2.00328e-05
-6.93718e-06
1.9498e-05
-6.97347e-06
1.89576e-05
-7.01646e-06
1.84117e-05
-7.06269e-06
1.78598e-05
-7.10934e-06
1.73017e-05
-7.15649e-06
1.67369e-05
-7.20492e-06
1.61652e-05
-7.2549e-06
1.55861e-05
-7.30636e-06
1.49991e-05
-7.35932e-06
1.44035e-05
-7.41387e-06
1.37985e-05
-7.4701e-06
1.31833e-05
-7.52805e-06
1.25569e-05
-7.58774e-06
1.1918e-05
-7.6491e-06
1.12651e-05
-7.71202e-06
1.05966e-05
-7.77626e-06
9.91025e-06
-7.84143e-06
9.20371e-06
-7.90689e-06
8.47401e-06
-7.97167e-06
7.71762e-06
-8.03432e-06
6.93035e-06
-8.09268e-06
6.10713e-06
-8.14369e-06
5.24214e-06
-8.18234e-06
4.32785e-06
-8.20344e-06
3.35722e-06
-8.19087e-06
2.31707e-06
-8.15286e-06
1.20127e-06
-7.98139e-06
-7.98379e-06
2.03336e-05
-6.37445e-06
1.98005e-05
-6.40409e-06
1.92621e-05
-6.43507e-06
1.87183e-05
-6.47267e-06
1.8169e-05
-6.51338e-06
1.76139e-05
-6.5542e-06
1.70526e-05
-6.59517e-06
1.64847e-05
-6.63709e-06
1.591e-05
-6.68016e-06
1.53279e-05
-6.72426e-06
1.47379e-05
-6.7693e-06
1.41393e-05
-6.8153e-06
1.35315e-05
-6.86226e-06
1.29135e-05
-6.9101e-06
1.22844e-05
-6.95867e-06
1.16431e-05
-7.00777e-06
1.09882e-05
-7.05708e-06
1.0318e-05
-7.10612e-06
9.63083e-06
-7.15423e-06
8.9244e-06
-7.20046e-06
8.19619e-06
-7.24346e-06
7.44322e-06
-7.28135e-06
6.66203e-06
-7.31149e-06
5.84857e-06
-7.33023e-06
4.99832e-06
-7.3321e-06
4.10567e-06
-7.31079e-06
3.16598e-06
-7.25118e-06
2.16936e-06
-7.15625e-06
1.11731e-06
-6.92934e-06
-6.86648e-06
2.00604e-05
-5.84161e-06
1.95232e-05
-5.86688e-06
1.8981e-05
-5.89292e-06
1.84337e-05
-5.9253e-06
1.78809e-05
-5.96056e-06
1.73223e-05
-5.99566e-06
1.67577e-05
-6.03058e-06
1.61867e-05
-6.06608e-06
1.56089e-05
-6.10236e-06
1.50239e-05
-6.1392e-06
1.4431e-05
-6.17648e-06
1.38298e-05
-6.21411e-06
1.32196e-05
-6.25201e-06
1.25995e-05
-6.29e-06
1.19686e-05
-6.32782e-06
1.1326e-05
-6.3651e-06
1.06703e-05
-6.40139e-06
1.00002e-05
-6.43601e-06
9.31404e-06
-6.4681e-06
8.61005e-06
-6.49646e-06
7.88608e-06
-6.51949e-06
7.13973e-06
-6.53501e-06
6.36831e-06
-6.54007e-06
5.56877e-06
-6.53069e-06
4.73788e-06
-6.50121e-06
3.87182e-06
-6.44473e-06
2.96814e-06
-6.3475e-06
2.02012e-06
-6.20824e-06
1.03533e-06
-5.94454e-06
-5.83115e-06
1.97409e-05
-5.30435e-06
1.91997e-05
-5.32561e-06
1.86538e-05
-5.34711e-06
1.8103e-05
-5.37446e-06
1.75468e-05
-5.40439e-06
1.69851e-05
-5.43391e-06
1.64175e-05
-5.46296e-06
1.58436e-05
-5.49224e-06
1.52632e-05
-5.52192e-06
1.46757e-05
-5.55175e-06
1.40808e-05
-5.58151e-06
1.34777e-05
-5.61109e-06
1.2866e-05
-5.6403e-06
1.22449e-05
-5.66888e-06
1.16136e-05
-5.69649e-06
1.09711e-05
-5.72265e-06
1.03165e-05
-5.74676e-06
9.64852e-06
-5.76804e-06
8.96587e-06
-5.78546e-06
8.26707e-06
-5.79766e-06
7.55048e-06