/*--------------------------------*- C++ -*----------------------------------*\
  =========                 |
  \\      /  F ield         | OpenFOAM: The Open Source CFD Toolbox
   \\    /   O peration     | Website:  https://openfoam.org
    \\  /    A nd           | Version:  11
     \\/     M anipulation  |
\*---------------------------------------------------------------------------*/
FoamFile
{
    format      ascii;
    class       surfaceScalarField;
    location    "4";
    object      phi;
}
// * * * * * * * * * * * * * * * * * * * * * * * * * * * * * * * * * * * * * //

dimensions      [0 3 -1 0 0 0 0];

internalField   nonuniform List<scalar> 
24840
(
1.53201e-05
1.32008e-08
1.53025e-05
1.76763e-08
1.52864e-05
1.60728e-08
1.5271e-05
1.53356e-08
1.5256e-05
1.49967e-08
1.52416e-05
1.4439e-08
1.5228e-05
1.35921e-08
1.52155e-05
1.25162e-08
1.52043e-05
1.123e-08
1.51946e-05
9.6573e-09
1.5187e-05
7.57879e-09
1.5182e-05
5.05117e-09
1.518e-05
1.96904e-09
1.51819e-05
-1.895e-09
1.51886e-05
-6.6983e-09
1.52013e-05
-1.26693e-08
1.52213e-05
-2.00552e-08
1.52505e-05
-2.91803e-08
1.52909e-05
-4.03699e-08
1.53455e-05
-5.46189e-08
1.5417e-05
-7.15433e-08
1.55089e-05
-9.18178e-08
1.56266e-05
-1.17736e-07
1.57765e-05
-1.49881e-07
1.5966e-05
-1.89515e-07
1.62042e-05
-2.38204e-07
1.65024e-05
-2.98164e-07
1.68695e-05
-3.67184e-07
1.73395e-05
-4.69996e-07
-4.92907e-07
1.78325e-05
1.53394e-05
7.18107e-09
1.53438e-05
1.32753e-08
1.53479e-05
1.19502e-08
1.5352e-05
1.12024e-08
1.53565e-05
1.05452e-08
1.53615e-05
9.40828e-09
1.53673e-05
7.7592e-09
1.53741e-05
5.69126e-09
1.53821e-05
3.24345e-09
1.53915e-05
2.64724e-10
1.54028e-05
-3.66031e-09
1.54162e-05
-8.38028e-09
1.54324e-05
-1.41996e-08
1.54519e-05
-2.14101e-08
1.54755e-05
-3.03199e-08
1.55041e-05
-4.12778e-08
1.55388e-05
-5.47424e-08
1.55807e-05
-7.11272e-08
1.56318e-05
-9.14682e-08
1.56932e-05
-1.16018e-07
1.57689e-05
-1.47212e-07
1.58641e-05
-1.86994e-07
1.59818e-05
-2.35448e-07
1.6127e-05
-2.95097e-07
1.63062e-05
-3.68718e-07
1.65275e-05
-4.59463e-07
1.68008e-05
-5.71502e-07
1.71392e-05
-7.05579e-07
1.75562e-05
-8.86961e-07
-1.00317e-06
1.80664e-05
1.53363e-05
4.25308e-09
1.53403e-05
9.26359e-09
1.53435e-05
8.74724e-09
1.53472e-05
7.44531e-09
1.53515e-05
6.26008e-09
1.53563e-05
4.6284e-09
1.53618e-05
2.24263e-09
1.53683e-05
-7.77258e-10
1.53758e-05
-4.28823e-09
1.53848e-05
-8.70239e-09
1.53953e-05
-1.42224e-08
1.5408e-05
-2.10011e-08
1.54231e-05
-2.93838e-08
1.54415e-05
-3.97744e-08
1.54638e-05
-5.26386e-08
1.54911e-05
-6.85201e-08
1.55244e-05
-8.80893e-08
1.55654e-05
-1.12122e-07
1.56157e-05
-1.41794e-07
1.5678e-05
-1.78254e-07
1.57544e-05
-2.23637e-07
1.58478e-05
-2.80369e-07
1.59627e-05
-3.50337e-07
1.61042e-05
-4.36626e-07
1.62788e-05
-5.43293e-07
1.64943e-05
-6.75007e-07
1.67611e-05
-8.38281e-07
1.70905e-05
-1.03503e-06
1.7499e-05
-1.29546e-06
-1.51368e-06
1.80096e-05
1.53351e-05
2.45499e-09
1.53386e-05
5.81739e-09
1.53417e-05
5.62581e-09
1.53451e-05
4.02229e-09
1.53492e-05
2.20517e-09
1.53538e-05
4.78529e-11
1.53591e-05
-3.10518e-09
1.53653e-05
-6.95893e-09
1.53726e-05
-1.1617e-08
1.53813e-05
-1.73527e-08
1.53915e-05
-2.44556e-08
1.54037e-05
-3.32256e-08
1.54184e-05
-4.40801e-08
1.54362e-05
-5.75388e-08
1.54578e-05
-7.42177e-08
1.54841e-05
-9.48462e-08
1.55163e-05
-1.20309e-07
1.55559e-05
-1.51676e-07
1.56044e-05
-1.90363e-07
1.56642e-05
-2.3804e-07
1.57376e-05
-2.9705e-07
1.58276e-05
-3.70308e-07
1.59381e-05
-4.60878e-07
1.60742e-05
-5.7275e-07
1.62421e-05
-7.11186e-07
1.64495e-05
-8.82417e-07
1.67063e-05
-1.09505e-06
1.70247e-05
-1.35346e-06
1.74189e-05
-1.68958e-06
-2.01365e-06
1.79188e-05
1.53345e-05
1.27373e-09
1.53372e-05
3.11813e-09
1.53401e-05
2.7341e-09
1.53433e-05
8.40017e-10
1.53471e-05
-1.5673e-09
1.53515e-05
-4.42823e-09
1.53567e-05
-8.2219e-09
1.53626e-05
-1.29281e-08
1.53697e-05
-1.86553e-08
1.5378e-05
-2.56488e-08
1.53878e-05
-3.42723e-08
1.53995e-05
-4.49332e-08
1.54135e-05
-5.81393e-08
1.54305e-05
-7.45211e-08
1.54511e-05
-9.48346e-08
1.54763e-05
-1.19981e-07
1.5507e-05
-1.51049e-07
1.55447e-05
-1.89361e-07
1.55909e-05
-2.36594e-07
1.56477e-05
-2.94822e-07
1.57174e-05
-3.66736e-07
1.58028e-05
-4.55727e-07
1.59077e-05
-5.65768e-07
1.60368e-05
-7.01838e-07
1.6196e-05
-8.70368e-07
1.63927e-05
-1.07914e-06
1.66363e-05
-1.33867e-06
1.69393e-05
-1.65648e-06
1.73145e-05
-2.06471e-06
-2.49297e-06
1.77938e-05
1.53342e-05
4.33199e-10
1.53363e-05
9.57272e-10
1.5339e-05
4.88611e-11
1.5342e-05
-2.18037e-09
1.53456e-05
-5.11876e-09
1.53498e-05
-8.64418e-09
1.53547e-05
-1.30912e-08
1.53604e-05
-1.86049e-08
1.5367e-05
-2.53215e-08
1.53749e-05
-3.35044e-08
1.53842e-05
-4.35677e-08
1.53952e-05
-5.60075e-08
1.54085e-05
-7.14236e-08
1.54246e-05
-9.05509e-08
1.5444e-05
-1.14274e-07
1.54677e-05
-1.43653e-07
1.54966e-05
-1.79962e-07
1.5532e-05
-2.24752e-07
1.55753e-05
-2.79957e-07
1.56285e-05
-3.47988e-07
1.56937e-05
-4.31906e-07
1.57735e-05
-5.35579e-07
1.58715e-05
-6.63738e-07
1.5992e-05
-8.22298e-07
1.61404e-05
-1.01882e-06
1.63239e-05
-1.26259e-06
1.65512e-05
-1.56598e-06
1.68345e-05
-1.93983e-06
1.71858e-05
-2.41605e-06
-2.94541e-06
1.76383e-05
1.5334e-05
-2.16711e-10
1.53358e-05
-8.19025e-10
1.53382e-05
-2.357e-09
1.5341e-05
-4.99056e-09
1.53443e-05
-8.42022e-09
1.53482e-05
-1.25644e-08
1.53528e-05
-1.76651e-08
1.53581e-05
-2.39363e-08
1.53643e-05
-3.15678e-08
1.53717e-05
-4.08579e-08
1.53804e-05
-5.22611e-08
1.53907e-05
-6.63477e-08
1.54031e-05
-8.3805e-08
1.5418e-05
-1.05466e-07
1.54361e-05
-1.32333e-07
1.5458e-05
-1.65608e-07
1.54848e-05
-2.06736e-07
1.55175e-05
-2.57471e-07
1.55576e-05
-3.1998e-07
1.56065e-05
-3.9697e-07
1.56665e-05
-4.91854e-07
1.57399e-05
-6.08946e-07
1.58298e-05
-7.53632e-07
1.59401e-05
-9.32676e-07
1.6076e-05
-1.1547e-06
1.62438e-05
-1.4304e-06
1.64517e-05
-1.77391e-06
1.67113e-05
-2.19941e-06
1.70338e-05
-2.73857e-06
-3.36441e-06
1.74528e-05
1.53339e-05
-7.4957e-10
1.53353e-05
-2.30091e-09
1.53375e-05
-4.49625e-09
1.53401e-05
-7.57834e-09
1.53431e-05
-1.14772e-08
1.53468e-05
-1.61872e-08
1.5351e-05
-2.19088e-08
1.53559e-05
-2.88828e-08
1.53617e-05
-3.735e-08
1.53685e-05
-4.76484e-08
1.53765e-05
-6.02719e-08
1.5386e-05
-7.5854e-08
1.53974e-05
-9.51605e-08
1.5411e-05
-1.19114e-07
1.54275e-05
-1.48823e-07
1.54475e-05
-1.85615e-07
1.54719e-05
-2.31086e-07
1.55016e-05
-2.87166e-07
1.55378e-05
-3.5623e-07
1.55821e-05
-4.41239e-07
1.56362e-05
-5.4592e-07
1.57022e-05
-6.74989e-07
1.5783e-05
-8.34392e-07
1.58819e-05
-1.03163e-06
1.60035e-05
-1.27627e-06
1.61534e-05
-1.58032e-06
1.6339e-05
-1.95952e-06
1.65709e-05
-2.43132e-06
1.68596e-05
-3.02719e-06
-3.74299e-06
1.72381e-05
1.53338e-05
-1.19233e-09
1.5335e-05
-3.55851e-09
1.53369e-05
-6.38583e-09
1.53393e-05
-9.9327e-09
1.53421e-05
-1.42774e-08
1.53454e-05
-1.94987e-08
1.53493e-05
-2.57909e-08
1.53538e-05
-3.34047e-08
1.53591e-05
-4.26198e-08
1.53652e-05
-5.38148e-08
1.53725e-05
-6.75231e-08
1.53811e-05
-8.44319e-08
1.53913e-05
-1.05376e-07
1.54035e-05
-1.31357e-07
1.54183e-05
-1.63576e-07
1.54361e-05
-2.0347e-07
1.54578e-05
-2.52761e-07
1.54842e-05
-3.13531e-07
1.55163e-05
-3.88329e-07
1.55554e-05
-4.80329e-07
1.5603e-05
-5.93526e-07
1.56609e-05
-7.32977e-07
1.57316e-05
-9.05089e-07
1.5818e-05
-1.11798e-06
1.59237e-05
-1.38203e-06
1.60538e-05
-1.71035e-06
1.62144e-05
-2.12015e-06
1.6415e-05
-2.63189e-06
1.66647e-05
-3.27692e-06
-4.07378e-06
1.69955e-05
1.53337e-05
-1.564e-09
1.53348e-05
-4.63729e-09
1.53364e-05
-8.0459e-09
1.53386e-05
-1.20465e-08
1.53411e-05
-1.68088e-08
1.53441e-05
-2.24867e-08
1.53476e-05
-2.92873e-08
1.53516e-05
-3.74672e-08
1.53563e-05
-4.73353e-08
1.53618e-05
-5.93072e-08
1.53683e-05
-7.39535e-08
1.53758e-05
-9.20068e-08
1.53848e-05
-1.1436e-07
1.53956e-05
-1.42082e-07
1.54084e-05
-1.76453e-07
1.5424e-05
-2.18999e-07
1.54427e-05
-2.71548e-07
1.54655e-05
-3.363e-07
1.54931e-05
-4.15949e-07
1.55266e-05
-5.13838e-07
1.55673e-05
-6.34174e-07
1.56166e-05
-7.82284e-07
1.56764e-05
-9.64933e-07
1.57492e-05
-1.19071e-06
1.58378e-05
-1.47065e-06
1.59462e-05
-1.81876e-06
1.60795e-05
-2.25344e-06
1.62454e-05
-2.7978e-06
1.64515e-05
-3.48305e-06
-4.34935e-06
1.67271e-05
1.53336e-05
-1.88011e-09
1.53346e-05
-5.56446e-09
1.5336e-05
-9.49505e-09
1.53379e-05
-1.39199e-08
1.53402e-05
-1.90635e-08
1.53428e-05
-2.51401e-08
1.53459e-05
-3.23781e-08
1.53495e-05
-4.10414e-08
1.53536e-05
-5.14605e-08
1.53584e-05
-6.40821e-08
1.53639e-05
-7.95095e-08
1.53704e-05
-9.85133e-08
1.53781e-05
-1.22033e-07
1.53872e-05
-1.51192e-07
1.53981e-05
-1.87332e-07
1.54111e-05
-2.32052e-07
1.54269e-05
-2.8726e-07
1.54458e-05
-3.5525e-07
1.54687e-05
-4.38819e-07
1.54963e-05
-5.41436e-07
1.55296e-05
-6.67461e-07
1.55697e-05
-8.22409e-07
1.5618e-05
-1.01329e-06
1.56764e-05
-1.24904e-06
1.57468e-05
-1.5411e-06
1.58322e-05
-1.90414e-06
1.59362e-05
-2.35744e-06
1.60646e-05
-2.9262e-06
1.62229e-05
-3.64137e-06
-4.56263e-06
1.64362e-05
1.53336e-05
-2.1501e-09
1.53344e-05
-6.35889e-09
1.53357e-05
-1.07495e-08
1.53373e-05
-1.55563e-08
1.53393e-05
-2.10365e-08
1.53416e-05
-2.74502e-08
1.53442e-05
-3.50492e-08
1.53473e-05
-4.41065e-08
1.53508e-05
-5.49681e-08
1.53548e-05
-6.81051e-08
1.53595e-05
-8.41481e-08
1.53649e-05
-1.03898e-07
1.53712e-05
-1.28328e-07
1.53786e-05
-1.58604e-07
1.53873e-05
-1.96115e-07
1.53978e-05
-2.4251e-07
1.54103e-05
-2.99755e-07
1.54253e-05
-3.70205e-07
1.54432e-05
-4.56728e-07
1.54646e-05
-5.6287e-07
1.54902e-05
-6.93079e-07
1.55208e-05
-8.52978e-07
1.55572e-05
-1.04971e-06
1.56005e-05
-1.29236e-06
1.56521e-05
-1.59262e-06
1.57134e-05
-1.96549e-06
1.57867e-05
-2.43069e-06
1.58754e-05
-3.01491e-06
1.59824e-05
-3.74844e-06
-4.70739e-06
1.61272e-05
1.53336e-05
-2.37968e-09
1.53342e-05
-7.03518e-09
1.53353e-05
-1.1823e-08
1.53367e-05
-1.69614e-08
1.53384e-05
-2.27263e-08
1.53404e-05
-2.94115e-08
1.53426e-05
-3.72907e-08
1.53451e-05
-4.66469e-08
1.5348e-05
-5.7837e-08
1.53513e-05
-7.13498e-08
1.5355e-05
-8.78366e-08
1.53592e-05
-1.08119e-07
1.5364e-05
-1.33196e-07
1.53697e-05
-1.6426e-07
1.53763e-05
-2.02728e-07
1.53841e-05
-2.50284e-07
1.53933e-05
-3.08925e-07
1.54041e-05
-3.81041e-07
1.54169e-05
-4.6953e-07
1.5432e-05
-5.77967e-07
1.54497e-05
-7.10826e-07
1.54705e-05
-8.73751e-07
1.54947e-05
-1.0739e-06
1.55227e-05
-1.32035e-06
1.55548e-05
-1.62479e-06
1.55916e-05
-2.00221e-06
1.56332e-05
-2.47235e-06
1.56808e-05
-3.06252e-06
1.57343e-05
-3.80193e-06
-4.77884e-06
1.58058e-05
1.53335e-05
-2.57304e-09
1.53341e-05
-7.6052e-09
1.5335e-05
-1.27282e-08
1.53362e-05
-1.81429e-08
1.53376e-05
-2.41346e-08
1.53392e-05
-3.10217e-08
1.5341e-05
-3.90974e-08
1.5343e-05
-4.86533e-08
1.53452e-05
-6.00536e-08
1.53477e-05
-7.37984e-08
1.53504e-05
-9.05522e-08
1.53534e-05
-1.1115e-07
1.53568e-05
-1.36602e-07
1.53607e-05
-1.68116e-07
1.53651e-05
-2.07122e-07
1.53701e-05
-2.55317e-07
1.53759e-05
-3.14705e-07
1.53825e-05
-3.87682e-07
1.53901e-05
-4.77139e-07
1.53988e-05
-5.86633e-07
1.54086e-05
-7.20603e-07
1.54195e-05
-8.84625e-07
1.54313e-05
-1.08575e-06
1.54439e-05
-1.3329e-06
1.54566e-05
-1.63749e-06
1.54686e-05
-2.0142e-06
1.54784e-05
-2.48222e-06
1.54845e-05
-3.0686e-06
1.54834e-05
-3.80081e-06
-4.77423e-06
1.54788e-05
1.53335e-05
-2.73387e-09
1.5334e-05
-8.07943e-09
1.53347e-05
-1.34776e-08
1.53357e-05
-1.91102e-08
1.53368e-05
-2.52662e-08
1.53381e-05
-3.22825e-08
1.53394e-05
-4.04682e-08
1.53409e-05
-5.0122e-08
1.53425e-05
-6.16113e-08
1.53441e-05
-7.54415e-08
1.53458e-05
-9.2283e-08
1.53477e-05
-1.12975e-07
1.53496e-05
-1.38529e-07
1.53516e-05
-1.70153e-07
1.53538e-05
-2.09275e-07
1.53561e-05
-2.57583e-07
1.53584e-05
-3.17069e-07
1.53608e-05
-3.90101e-07
1.53632e-05
-4.79532e-07
1.53655e-05
-5.88856e-07
1.53673e-05
-7.22412e-07
1.53683e-05
-8.85632e-07
1.53679e-05
-1.08535e-06
1.53651e-05
-1.33015e-06
1.53586e-05
-1.63099e-06
1.53462e-05
-2.00182e-06
1.53248e-05
-2.4608e-06
1.529e-05
-3.03377e-06
1.52348e-05
-3.74567e-06
-4.69334e-06
1.5154e-05
1.53335e-05
-2.8658e-09
1.53339e-05
-8.46818e-09
1.53345e-05
-1.40843e-08
1.53352e-05
-1.98748e-08
1.53361e-05
-2.61292e-08
1.5337e-05
-3.31991e-08
1.53379e-05
-4.1407e-08
1.53389e-05
-5.10552e-08
1.53398e-05
-6.25106e-08
1.53406e-05
-7.62784e-08
1.53414e-05
-9.30279e-08
1.5342e-05
-1.13593e-07
1.53424e-05
-1.38976e-07
1.53426e-05
-1.70371e-07
1.53425e-05
-2.09187e-07
1.53421e-05
-2.57087e-07
1.5341e-05
-3.16027e-07
1.53392e-05
-3.88321e-07
1.53365e-05
-4.7675e-07
1.53323e-05
-5.847e-07
1.53262e-05
-7.16359e-07
1.53175e-05
-8.76937e-07
1.53051e-05
-1.07294e-06
1.52875e-05
-1.3125e-06
1.52623e-05
-1.60583e-06
1.52264e-05
-1.96591e-06
1.5175e-05
-2.40932e-06
1.51009e-05
-2.95975e-06
1.49941e-05
-3.63882e-06
-4.53893e-06
1.48397e-05
1.53334e-05
-2.97279e-09
1.53338e-05
-8.78271e-09
1.53342e-05
-1.45631e-08
1.53348e-05
-2.04505e-08
1.53354e-05
-2.67343e-08
1.5336e-05
-3.37806e-08
1.53365e-05
-4.19219e-08
1.53369e-05
-5.14607e-08
1.53372e-05
-6.27591e-08
1.53372e-05
-7.63172e-08
1.5337e-05
-9.27961e-08
1.53364e-05
-1.13015e-07
1.53354e-05
-1.37957e-07
1.53338e-05
-1.68788e-07
1.53315e-05
-2.06885e-07
1.53283e-05
-2.53867e-07
1.53239e-05
-3.11629e-07
1.5318e-05
-3.82412e-07
1.53101e-05
-4.6889e-07
1.52997e-05
-5.74305e-07
1.5286e-05
-7.02642e-07
1.52679e-05
-8.58826e-07
1.52439e-05
-1.04895e-06
1.52119e-05
-1.28054e-06
1.5169e-05
-1.56293e-06
1.51109e-05
-1.90779e-06
1.50313e-05
-2.3297e-06
1.49209e-05
-2.84935e-06
1.47663e-05
-3.4843e-06
-4.31687e-06
1.45443e-05
1.53334e-05
-3.05953e-09
1.53337e-05
-9.03624e-09
1.5334e-05
-1.49312e-08
1.53344e-05
-2.08535e-08
1.53348e-05
-2.70953e-08
1.53351e-05
-3.40393e-08
1.53352e-05
-4.20258e-08
1.53351e-05
-5.1352e-08
1.53347e-05
-6.23712e-08
1.53339e-05
-7.55743e-08
1.53327e-05
-9.16074e-08
1.5331e-05
-1.11266e-07
1.53285e-05
-1.35503e-07
1.53252e-05
-1.65444e-07
1.53207e-05
-2.0242e-07
1.53148e-05
-2.47986e-07
1.53072e-05
-3.03963e-07
1.52973e-05
-3.72489e-07
1.52845e-05
-4.56105e-07
1.5268e-05
-5.57879e-07
1.5247e-05
-6.81549e-07
1.52198e-05
-8.31697e-07
1.51848e-05
-1.01393e-06
1.51393e-05
-1.23507e-06
1.50798e-05
-1.50343e-06
1.50012e-05
-1.82914e-06
1.48959e-05
-2.22445e-06
1.47529e-05
-2.70635e-06
1.45564e-05
-3.28774e-06
-4.03603e-06
1.42755e-05
1.53334e-05
-3.13186e-09
1.53336e-05
-9.24517e-09
1.53339e-05
-1.52094e-08
1.53341e-05
-2.11027e-08
1.53343e-05
-2.72282e-08
1.53342e-05
-3.39914e-08
1.53339e-05
-4.17361e-08
1.53333e-05
-5.07479e-08
1.53323e-05
-6.13679e-08
1.53308e-05
-7.40743e-08
1.53287e-05
-8.94915e-08
1.53258e-05
-1.08383e-07
1.5322e-05
-1.31659e-07
1.53169e-05
-1.60396e-07
1.53104e-05
-1.95863e-07
1.53019e-05
-2.39538e-07
1.52911e-05
-2.93147e-07
1.52773e-05
-3.58706e-07
1.52598e-05
-4.38602e-07
1.52376e-05
-5.35695e-07
1.52095e-05
-6.53444e-07
1.51739e-05
-7.96048e-07
1.51285e-05
-9.6857e-07
1.50705e-05
-1.17707e-06
1.49958e-05
-1.42871e-06
1.48987e-05
-1.73199e-06
1.47708e-05
-2.09658e-06
1.45998e-05
-2.53531e-06
1.43681e-05
-3.05611e-06
-3.70784e-06
1.40399e-05
1.53334e-05
-3.19753e-09
1.53336e-05
-9.43067e-09
1.53338e-05
-1.54226e-08
1.53339e-05
-2.12193e-08
1.53338e-05
-2.71518e-08
1.53335e-05
-3.36562e-08
1.53328e-05
-4.10742e-08
1.53318e-05
-4.9672e-08
1.53302e-05
-5.97764e-08
1.53279e-05
-7.18498e-08
1.53249e-05
-8.64882e-08
1.5321e-05
-1.04413e-07
1.53158e-05
-1.26485e-07
1.53091e-05
-1.53719e-07
1.53006e-05
-1.87309e-07
1.52897e-05
-2.28643e-07
1.52759e-05
-2.79334e-07
1.52584e-05
-3.4126e-07
1.52364e-05
-4.16632e-07
1.52088e-05
-5.08081e-07
1.51741e-05
-6.18761e-07
1.51306e-05
-7.52457e-07
1.50756e-05
-9.13659e-07
1.50062e-05
-1.10762e-06
1.49178e-05
-1.34034e-06
1.48044e-05
-1.61858e-06
1.46573e-05
-1.94942e-06
1.44633e-05
-2.34133e-06
1.42044e-05
-2.79728e-06
-3.34549e-06
1.38421e-05
1.53334e-05
-3.26728e-09
1.53336e-05
-9.62077e-09
1.53338e-05
-1.56015e-08
1.53338e-05
-2.12278e-08
1.53335e-05
-2.6886e-08
1.53329e-05
-3.30548e-08
1.53319e-05
-4.00652e-08
1.53304e-05
-4.81537e-08
1.53282e-05
-5.76313e-08
1.53253e-05
-6.89415e-08
1.53215e-05
-8.26451e-08
1.53165e-05
-9.94152e-08
1.53101e-05
-1.20053e-07
1.53018e-05
-1.45503e-07
1.52914e-05
-1.76872e-07
1.52782e-05
-2.15444e-07
1.52616e-05
-2.62705e-07
1.52407e-05
-3.20381e-07
1.52146e-05
-3.9049e-07
1.51819e-05
-4.75415e-07
1.51411e-05
-5.77991e-07
1.50902e-05
-7.0157e-07
1.50266e-05
-8.50059e-07
1.49469e-05
-1.0279e-06
1.48465e-05
-1.23994e-06
1.47192e-05
-1.49127e-06
1.45562e-05
-1.78645e-06
1.43446e-05
-2.12973e-06
1.40668e-05
-2.51947e-06
-2.963e-06
1.36844e-05
1.53334e-05
-3.35666e-09
1.53337e-05
-9.85495e-09
1.53338e-05
-1.57822e-08
1.53338e-05
-2.11441e-08
1.53333e-05
-2.6451e-08
1.53325e-05
-3.22253e-08
1.53312e-05
-3.87442e-08
1.53292e-05
-4.62218e-08
1.53266e-05
-5.49649e-08
1.5323e-05
-6.53916e-08
1.53184e-05
-7.80181e-08
1.53124e-05
-9.34606e-08
1.53048e-05
-1.12452e-07
1.52952e-05
-1.35859e-07
1.5283e-05
-1.64688e-07
1.52677e-05
-2.00108e-07
1.52484e-05
-2.43469e-07
1.52244e-05
-2.96329e-07
1.51944e-05
-3.60501e-07
1.51571e-05
-4.38113e-07
1.51108e-05
-5.31666e-07
1.50533e-05
-6.4408e-07
1.49819e-05
-7.78683e-07
1.48931e-05
-9.39137e-07
1.47824e-05
-1.1292e-06
1.46435e-05
-1.35242e-06
1.44682e-05
-1.61112e-06
1.42442e-05
-1.9057e-06
1.39554e-05
-2.23072e-06
-2.57411e-06
1.35665e-05
1.53335e-05
-3.48968e-09
1.53338e-05
-1.01889e-08
1.5334e-05
-1.60055e-08
1.53339e-05
-2.10005e-08
1.53333e-05
-2.58751e-08
1.53323e-05
-3.11811e-08
1.53306e-05
-3.7134e-08
1.53283e-05
-4.39171e-08
1.53252e-05
-5.18292e-08
1.53211e-05
-6.12606e-08
1.53157e-05
-7.2677e-08
1.53089e-05
-8.663e-08
1.53002e-05
-1.03779e-07
1.52893e-05
-1.24903e-07
1.52755e-05
-1.50902e-07
1.52582e-05
-1.82819e-07
1.52366e-05
-2.21854e-07
1.52096e-05
-2.6939e-07
1.51762e-05
-3.27026e-07
1.51347e-05
-3.96625e-07
1.50834e-05
-4.80357e-07
1.502e-05
-5.80713e-07
1.49418e-05
-7.00467e-07
1.48452e-05
-8.42554e-07
1.47258e-05
-1.00976e-06
1.45776e-05
-1.20429e-06
1.43931e-05
-1.42662e-06
1.41614e-05
-1.674e-06
1.38689e-05
-1.93822e-06
-2.19114e-06
1.3486e-05
1.53335e-05
-3.70617e-09
1.53341e-05
-1.07017e-08
1.53344e-05
-1.63152e-08
1.53342e-05
-2.08129e-08
1.53335e-05
-2.5186e-08
1.53323e-05
-2.9962e-08
1.53304e-05
-3.52681e-08
1.53278e-05
-4.12721e-08
1.53242e-05
-4.8266e-08
1.53195e-05
-5.66026e-08
1.53136e-05
-6.66906e-08
1.53059e-05
-7.90097e-08
1.52963e-05
-9.41423e-08
1.52842e-05
-1.12772e-07
1.52689e-05
-1.35682e-07
1.52499e-05
-1.6378e-07
1.52262e-05
-1.98112e-07
1.51967e-05
-2.39875e-07
1.51601e-05
-2.9045e-07
1.51149e-05
-3.51431e-07
1.50592e-05
-4.2466e-07
1.49907e-05
-5.12214e-07
1.49066e-05
-6.16351e-07
1.48034e-05
-7.39351e-07
1.46768e-05
-8.83177e-07
1.45214e-05
-1.04894e-06
1.43306e-05
-1.23577e-06
1.40952e-05
-1.43861e-06
1.38049e-05
-1.64789e-06
-1.82397e-06
1.34377e-05
1.53337e-05
-4.07982e-09
1.53345e-05
-1.15049e-08
1.53349e-05
-1.67388e-08
1.53347e-05
-2.05996e-08
1.5334e-05
-2.4426e-08
1.53326e-05
-2.86107e-08
1.53305e-05
-3.31885e-08
1.53276e-05
-3.83352e-08
1.53237e-05
-4.43316e-08
1.53185e-05
-5.14829e-08
1.5312e-05
-6.01378e-08
1.53037e-05
-7.06954e-08
1.52932e-05
-8.36588e-08
1.528e-05
-9.96086e-08
1.52635e-05
-1.19204e-07
1.5243e-05
-1.43212e-07
1.52174e-05
-1.72513e-07
1.51856e-05
-2.08115e-07
1.51463e-05
-2.51175e-07
1.50979e-05
-3.03023e-07
1.50385e-05
-3.65178e-07
1.49656e-05
-4.39327e-07
1.48765e-05
-5.27253e-07
1.47678e-05
-6.30666e-07
1.46355e-05
-7.50865e-07
1.44747e-05
-8.88149e-07
1.42798e-05
-1.04087e-06
1.40438e-05
-1.20258e-06
1.37598e-05
-1.3639e-06
-1.47936e-06
1.34151e-05
1.5334e-05
-4.75597e-09
1.53353e-05
-1.27664e-08
1.53358e-05
-1.72663e-08
1.53356e-05
-2.03641e-08
1.53348e-05
-2.36182e-08
1.53333e-05
-2.71412e-08
1.5331e-05
-3.09162e-08
1.53278e-05
-3.5146e-08
1.53236e-05
-4.00818e-08
1.53181e-05
-4.59717e-08
1.5311e-05
-5.31062e-08
1.53021e-05
-6.17909e-08
1.52909e-05
-7.24588e-08
1.52769e-05
-8.55729e-08
1.52593e-05
-1.01662e-07
1.52375e-05
-1.21347e-07
1.52103e-05
-1.45341e-07
1.51767e-05
-1.74458e-07
1.51351e-05
-2.0963e-07
1.5084e-05
-2.51925e-07
1.50214e-05
-3.02547e-07
1.49449e-05
-3.62817e-07
1.48517e-05
-4.34093e-07
1.47386e-05
-5.17604e-07
1.46019e-05
-6.14153e-07
1.44373e-05
-7.23501e-07
1.42402e-05
-8.43796e-07
1.40056e-05
-9.68e-07
1.37307e-05
-1.08892e-06
-1.15985e-06
1.34112e-05
1.53346e-05
-5.99541e-09
1.53365e-05
-1.47201e-08
1.53372e-05
-1.79051e-08
1.5337e-05
-2.01933e-08
1.53362e-05
-2.28281e-08
1.53346e-05
-2.5582e-08
1.53322e-05
-2.84826e-08
1.53288e-05
-3.17445e-08
1.53243e-05
-3.55625e-08
1.53184e-05
-4.01281e-08
1.5311e-05
-4.56802e-08
1.53016e-05
-5.23937e-08
1.52898e-05
-6.06721e-08
1.52751e-05
-7.08298e-08
1.52567e-05
-8.32655e-08
1.52338e-05
-9.84502e-08
1.52054e-05
-1.16922e-07
1.51702e-05
-1.39299e-07
1.51269e-05
-1.66293e-07
1.50737e-05
-1.98714e-07
1.50086e-05
-2.3747e-07
1.49293e-05
-2.83538e-07
1.48331e-05
-3.37901e-07
1.47169e-05
-4.014e-07
1.45773e-05
-4.74504e-07
1.44105e-05
-5.56707e-07
1.42132e-05
-6.46539e-07
1.39818e-05
-7.3659e-07
1.37178e-05
-8.24901e-07
-8.6468e-07
1.34226e-05
1.53356e-05
-8.26569e-09
1.53382e-05
-1.73068e-08
1.53389e-05
-1.85707e-08
1.53389e-05
-2.02168e-08
1.53381e-05
-2.20971e-08
1.53365e-05
-2.39627e-08
1.5334e-05
-2.59445e-08
1.53304e-05
-2.82049e-08
1.53257e-05
-3.08569e-08
1.53197e-05
-3.40371e-08
1.53119e-05
-3.79761e-08
1.53022e-05
-4.26298e-08
1.529e-05
-4.84473e-08
1.52747e-05
-5.5546e-08
1.52556e-05
-6.4207e-08
1.52319e-05
-7.47518e-08
1.52025e-05
-8.75445e-08
1.51663e-05
-1.03008e-07
1.51216e-05
-1.21636e-07
1.50669e-05
-1.43991e-07
1.50001e-05
-1.70704e-07
1.4919e-05
-2.02453e-07
1.4821e-05
-2.39905e-07
1.47032e-05
-2.83619e-07
1.45626e-05
-3.33868e-07
1.43961e-05
-3.9016e-07
1.42013e-05
-4.51764e-07
1.39753e-05
-5.1058e-07
1.37214e-05
-5.71012e-07
-5.8187e-07
1.34386e-05
1.53392e-05
-1.41174e-08
1.53418e-05
-1.98939e-08
1.53422e-05
-1.90254e-08
1.53418e-05
-1.97875e-08
1.53406e-05
-2.08776e-08
1.53385e-05
-2.18553e-08
1.53354e-05
-2.28698e-08
1.53312e-05
-2.4037e-08
1.53258e-05
-2.54092e-08
1.53188e-05
-2.70564e-08
1.531e-05
-2.91301e-08
1.52988e-05
-3.15287e-08
1.5285e-05
-3.45904e-08
1.52678e-05
-3.83313e-08
1.52465e-05
-4.2912e-08
1.52202e-05
-4.85115e-08
1.5188e-05
-5.53309e-08
1.51486e-05
-6.36074e-08
1.51006e-05
-7.36175e-08
1.50423e-05
-8.56784e-08
1.49717e-05
-1.00142e-07
1.48867e-05
-1.17381e-07
1.47845e-05
-1.3775e-07
1.46624e-05
-1.61517e-07
1.45173e-05
-1.88739e-07
1.43461e-05
-2.18947e-07
1.41449e-05
-2.50616e-07
1.39143e-05
-2.79979e-07
1.36517e-05
-3.08418e-07
-2.60072e-07
1.33299e-05
1.53192e-05
1.52993e-05
1.52803e-05
1.52605e-05
1.52396e-05
1.52178e-05
1.51949e-05
1.51709e-05
1.51455e-05
1.51184e-05
1.50893e-05
1.50577e-05
1.50232e-05
1.49848e-05
1.49419e-05
1.48934e-05
1.48381e-05
1.47745e-05
1.47008e-05
1.46152e-05
1.4515e-05
1.43976e-05
1.42599e-05
1.40984e-05
1.39096e-05
1.36907e-05
1.34401e-05
1.31601e-05
1.28517e-05
1.25916e-05
1.75987e-05
-8.20171e-06
8.43546e-06
1.73763e-05
-8.35769e-06
8.5801e-06
1.71143e-05
-8.50933e-06
8.77131e-06
1.68152e-05
-8.64958e-06
8.9487e-06
1.64862e-05
-8.78893e-06
9.11792e-06
1.61346e-05
-8.93261e-06
9.28425e-06
1.57647e-05
-9.08235e-06
9.45222e-06
1.53793e-05
-9.23915e-06
9.62459e-06
1.49797e-05
-9.40388e-06
9.80346e-06
1.45662e-05
-9.577e-06
9.99044e-06
1.41384e-05
-9.75871e-06
1.01866e-05
1.36951e-05
-9.94922e-06
1.03925e-05
1.32354e-05
-1.0149e-05
1.06088e-05
1.27581e-05
-1.03591e-05
1.08364e-05
1.22622e-05
-1.05805e-05
1.10764e-05
1.17465e-05
-1.08151e-05
1.13307e-05
1.12097e-05
-1.10646e-05
1.16014e-05
1.06501e-05
-1.13315e-05
1.18911e-05
1.00654e-05
-1.16186e-05
1.22033e-05
9.45285e-06
-1.19294e-05
1.2542e-05
8.80882e-06
-1.22684e-05
1.29124e-05
8.12868e-06
-1.2641e-05
1.33211e-05
7.40638e-06
-1.30539e-05
1.37762e-05
6.634e-06
-1.35161e-05
1.42885e-05
5.80035e-06
-1.4038e-05
1.48716e-05
4.8912e-06
-1.46357e-05
1.55448e-05
3.89685e-06
-1.53207e-05
1.6315e-05
2.72405e-06
-1.6157e-05
1.73298e-05
1.54227e-06
-1.69677e-05
1.81494e-05
-1.85146e-05
2.00569e-05
1.78004e-05
-7.93564e-06
1.74939e-05
-8.05122e-06
1.7158e-05
-8.1734e-06
1.68049e-05
-8.2965e-06
1.644e-05
-8.42401e-06
1.60656e-05
-8.55822e-06
1.56824e-05
-8.69913e-06
1.52897e-05
-8.84648e-06
1.48862e-05
-9.00039e-06
1.44703e-05
-9.16106e-06
1.40404e-05
-9.32881e-06
1.35953e-05
-9.50414e-06
1.31341e-05
-9.68782e-06
1.26558e-05
-9.88084e-06
1.21597e-05
-1.00844e-05
1.16444e-05
-1.02998e-05
1.11087e-05
-1.05288e-05
1.05505e-05
-1.07733e-05
9.96773e-06
-1.10358e-05
9.35738e-06
-1.13191e-05
8.71586e-06
-1.16269e-05
8.03852e-06
-1.19636e-05
7.31937e-06
-1.23347e-05
6.55057e-06
-1.27473e-05
5.72181e-06
-1.32092e-05
4.81978e-06
-1.37336e-05
3.82674e-06
-1.43276e-05
2.70246e-06
-1.50327e-05
1.49204e-06
-1.57573e-05
-1.70226e-05
1.76943e-05
-7.62041e-06
1.73632e-05
-7.72015e-06
1.70188e-05
-7.82897e-06
1.66664e-05
-7.94403e-06
1.63067e-05
-8.06432e-06
1.59382e-05
-8.18973e-06
1.55592e-05
-8.3202e-06
1.51686e-05
-8.45585e-06
1.47652e-05
-8.59701e-06
1.43483e-05
-8.74413e-06
1.39172e-05
-8.89772e-06
1.34714e-05
-9.05837e-06
1.30104e-05
-9.22676e-06
1.25332e-05
-9.40369e-06
1.20389e-05
-9.59009e-06
1.15262e-05
-9.78709e-06
1.09934e-05
-9.99604e-06
1.04387e-05
-1.02186e-05
9.85955e-06
-1.04567e-05
9.25318e-06
-1.07127e-05
8.61585e-06
-1.09896e-05
7.94292e-06
-1.12907e-05
7.22845e-06
-1.16203e-05
6.46478e-06
-1.19837e-05
5.64205e-06
-1.23865e-05
4.74719e-06
-1.28388e-05
3.76318e-06
-1.33436e-05
2.66328e-06
-1.39328e-05
1.44838e-06
-1.45424e-05
-1.55742e-05
1.75925e-05
-7.29412e-06
1.72569e-05
-7.38454e-06
1.6911e-05
-7.483e-06
1.6556e-05
-7.58902e-06
1.61918e-05
-7.70021e-06
1.58175e-05
-7.81542e-06
1.54322e-05
-7.93491e-06
1.50356e-05
-8.05917e-06
1.46271e-05
-8.1886e-06
1.42065e-05
-8.32352e-06
1.37731e-05
-8.46431e-06
1.33262e-05
-8.61142e-06
1.28648e-05
-8.76538e-06
1.2388e-05
-8.92685e-06
1.18945e-05
-9.09661e-06
1.1383e-05
-9.27559e-06
1.08518e-05
-9.46491e-06
1.02991e-05
-9.66586e-06
9.72246e-06
-9.88001e-06
9.11891e-06
-1.01092e-05
8.48483e-06
-1.03555e-05
7.81565e-06
-1.06215e-05
7.10562e-06
-1.09102e-05
6.34742e-06
-1.12255e-05
5.53172e-06
-1.15708e-05
4.64633e-06
-1.19534e-05
3.6757e-06
-1.2373e-05
2.59854e-06
-1.28557e-05
1.39961e-06
-1.33434e-05
-1.41746e-05
1.7459e-05
-6.95935e-06
1.71162e-05
-7.04167e-06
1.6764e-05
-7.1309e-06
1.64032e-05
-7.22814e-06
1.60335e-05
-7.33056e-06
1.56545e-05
-7.43642e-06
1.52656e-05
-7.54596e-06
1.48662e-05
-7.65981e-06
1.44559e-05
-7.77829e-06
1.4034e-05
-7.90159e-06
1.35997e-05
-8.03001e-06
1.31522e-05
-8.16394e-06
1.26907e-05
-8.30385e-06
1.22141e-05
-8.45027e-06
1.17213e-05
-8.60384e-06
1.1211e-05
-8.76529e-06
1.06816e-05
-8.93546e-06
1.0131e-05
-9.11531e-06
9.55697e-06
-9.30598e-06
8.95656e-06
-9.50875e-06
8.3262e-06
-9.72512e-06
7.66148e-06
-9.95679e-06
6.95692e-06
-1.02057e-05
6.20559e-06
-1.04741e-05
5.39883e-06
-1.0764e-05
4.52544e-06
-1.108e-05
3.5715e-06
-1.14191e-05
2.51808e-06
-1.18023e-05
1.34596e-06
-1.21713e-05
-1.28286e-05
1.72967e-05
-6.61774e-06
1.69478e-05
-6.69277e-06
1.65906e-05
-6.77373e-06
1.62253e-05
-6.86279e-06
1.58515e-05
-6.95684e-06
1.54689e-05
-7.05376e-06
1.50767e-05
-7.15377e-06
1.46745e-05
-7.25757e-06
1.42616e-05
-7.36545e-06
1.38376e-05
-7.47754e-06
1.34016e-05
-7.59408e-06
1.29531e-05
-7.71537e-06
1.2491e-05
-7.84178e-06
1.20145e-05
-7.97373e-06
1.15223e-05
-8.11165e-06
1.1013e-05
-8.25607e-06
1.04852e-05
-8.40758e-06
9.93668e-06
-8.56683e-06
9.36528e-06
-8.73457e-06
8.76814e-06
-8.9116e-06
8.14182e-06
-9.0988e-06
7.48215e-06
-9.29712e-06
6.78395e-06
-9.50748e-06
6.04082e-06
-9.73101e-06
5.24484e-06
-9.96806e-06
4.38586e-06
-1.0221e-05
3.45155e-06
-1.04848e-05
2.42519e-06
-1.07759e-05
1.28807e-06
-1.10342e-05
-1.15405e-05
1.71051e-05
-6.27003e-06
1.67507e-05
-6.33835e-06
1.63887e-05
-6.41171e-06
1.60189e-05
-6.49301e-06
1.56411e-05
-6.579e-06
1.52547e-05
-6.66737e-06
1.48592e-05
-6.75831e-06
1.44542e-05
-6.85254e-06
1.40391e-05
-6.95033e-06
1.36133e-05
-7.05175e-06
1.31761e-05
-7.15693e-06
1.27268e-05
-7.26609e-06
1.22646e-05
-7.3795e-06
1.17883e-05
-7.49743e-06
1.12968e-05
-7.62018e-06
1.07888e-05
-7.74807e-06
1.02627e-05
-7.88146e-06
9.71655e-06
-8.0207e-06
9.14816e-06
-8.16619e-06
8.55483e-06
-8.31827e-06
7.93331e-06
-8.47728e-06
7.27967e-06
-8.64348e-06
6.58914e-06
-8.81696e-06
5.85587e-06
-8.99774e-06
5.07273e-06
-9.18492e-06
4.23067e-06
-9.37895e-06
3.31899e-06
-9.57309e-06
2.32304e-06
-9.77995e-06
1.2264e-06
-9.93754e-06
-1.03141e-05
1.68849e-05
-5.91676e-06
1.65254e-05
-5.9789e-06
1.6159e-05
-6.04524e-06
1.57851e-05
-6.11918e-06
1.54036e-05
-6.19748e-06
1.50139e-05
-6.27771e-06
1.46157e-05
-6.36002e-06
1.42083e-05
-6.44514e-06
1.37912e-05
-6.5333e-06
1.3364e-05
-6.62449e-06
1.29258e-05
-6.71875e-06
1.24759e-05
-6.81624e-06
1.20136e-05
-6.91712e-06
1.15377e-05
-7.02154e-06
1.10471e-05
-7.12964e-06
1.05406e-05
-7.24156e-06
1.00166e-05
-7.35744e-06
9.47326e-06
-7.47736e-06
8.90846e-06
-7.60139e-06
8.31966e-06
-7.72947e-06
7.70384e-06
-7.86146e-06
7.05738e-06
-7.99702e-06
6.37595e-06
-8.13552e-06
5.65427e-06
-8.27606e-06
4.88604e-06
-8.41669e-06
4.06334e-06
-8.55625e-06
3.17708e-06
-8.68683e-06
2.21459e-06
-8.81745e-06
1.16264e-06
-8.88558e-06
-9.1515e-06
1.66372e-05
-5.55849e-06
1.62733e-05
-5.61491e-06
1.59028e-05
-5.67475e-06
1.55253e-05
-5.74173e-06
1.51405e-05
-5.81269e-06
1.4748e-05
-5.88517e-06
1.43472e-05
-5.95928e-06
1.39378e-05
-6.03571e-06
1.35192e-05
-6.11467e-06
1.30908e-05
-6.19606e-06
1.26519e-05
-6.27988e-06
1.22018e-05
-6.36618e-06
1.17397e-05
-6.45503e-06
1.12647e-05
-6.54647e-06
1.07755e-05
-6.64048e-06
1.0271e-05
-6.73705e-06
9.74962e-06
-6.83609e-06
9.20974e-06
-6.93747e-06
8.6493e-06
-7.04095e-06
8.06597e-06
-7.14614e-06
7.45696e-06
-7.25246e-06
6.81901e-06
-7.35907e-06
6.14821e-06
-7.46473e-06
5.43992e-06
-7.56777e-06
4.68866e-06
-7.66543e-06
3.88761e-06
-7.7552e-06
3.02927e-06
-7.82849e-06
2.10282e-06
-7.891e-06
1.09866e-06
-7.88142e-06
-8.05285e-06
1.63644e-05
-5.19577e-06
1.59964e-05
-5.24692e-06
1.56224e-05
-5.30076e-06
1.52419e-05
-5.36117e-06
1.48543e-05
-5.42512e-06
1.44593e-05
-5.49023e-06
1.40566e-05
-5.55654e-06
1.36456e-05
-5.62472e-06
1.32259e-05
-5.6949e-06
1.27967e-05
-5.76695e-06
1.23577e-05
-5.84079e-06
1.19079e-05
-5.91639e-06
1.14466e-05
-5.99373e-06
1.09728e-05
-6.07273e-06
1.04856e-05
-6.15326e-06
9.98371e-06
-6.23515e-06
9.46574e-06
-6.31813e-06
8.93011e-06
-6.40185e-06
8.37497e-06
-6.48581e-06
7.79817e-06
-6.56934e-06
7.1972e-06
-6.65148e-06