/*--------------------------------*- C++ -*----------------------------------*\
  =========                 |
  \\      /  F ield         | OpenFOAM: The Open Source CFD Toolbox
   \\    /   O peration     | Website:  https://openfoam.org
    \\  /    A nd           | Version:  11
     \\/     M anipulation  |
\*---------------------------------------------------------------------------*/
FoamFile
{
    format      ascii;
    class       surfaceScalarField;
    location    "4";
    object      phi;
}
// * * * * * * * * * * * * * * * * * * * * * * * * * * * * * * * * * * * * * //

dimensions      [0 3 -1 0 0 0 0];

internalField   nonuniform List<scalar> 
24840
(
1.57972e-05
1.37965e-08
1.57785e-05
1.86548e-08
1.5761e-05
1.74668e-08
1.57437e-05
1.73609e-08
1.5726e-05
1.76412e-08
1.57083e-05
1.77055e-08
1.56907e-05
1.76426e-08
1.56732e-05
1.75441e-08
1.56557e-05
1.74132e-08
1.56385e-05
1.72383e-08
1.56215e-05
1.70117e-08
1.56048e-05
1.6725e-08
1.55884e-05
1.63612e-08
1.55725e-05
1.58985e-08
1.55572e-05
1.53158e-08
1.55426e-05
1.45837e-08
1.55289e-05
1.36852e-08
1.55163e-05
1.26182e-08
1.5505e-05
1.1295e-08
1.54954e-05
9.61671e-09
1.54879e-05
7.48762e-09
1.5483e-05
4.91821e-09
1.54812e-05
1.75733e-09
1.54835e-05
-2.28936e-09
1.5491e-05
-7.46257e-09
1.55049e-05
-1.39122e-08
1.55276e-05
-2.26661e-08
1.55615e-05
-3.39787e-08
1.56163e-05
-5.47738e-08
-1.25563e-07
1.57419e-05
1.5817e-05
7.71336e-09
1.58206e-05
1.51161e-08
1.5823e-05
1.50445e-08
1.58251e-05
1.53024e-08
1.5827e-05
1.57091e-08
1.58289e-05
1.57848e-08
1.58309e-05
1.56747e-08
1.58329e-05
1.54972e-08
1.58351e-05
1.52497e-08
1.58374e-05
1.4918e-08
1.58399e-05
1.4488e-08
1.58427e-05
1.39432e-08
1.58458e-05
1.3249e-08
1.58494e-05
1.23627e-08
1.58534e-05
1.12497e-08
1.58582e-05
9.85041e-09
1.58637e-05
8.14958e-09
1.58702e-05
6.11811e-09
1.58779e-05
3.6038e-09
1.5887e-05
4.89389e-10
1.5898e-05
-3.48756e-09
1.59112e-05
-8.27354e-09
1.59272e-05
-1.42153e-08
1.59466e-05
-2.16887e-08
1.59701e-05
-3.09498e-08
1.59991e-05
-4.29172e-08
1.60338e-05
-5.7386e-08
1.60787e-05
-7.89088e-08
1.61271e-05
-1.03135e-07
-1.33915e-07
1.61354e-05
1.58136e-05
5.06714e-09
1.58169e-05
1.1839e-08
1.58188e-05
1.30936e-08
1.58209e-05
1.32837e-08
1.58228e-05
1.37242e-08
1.58248e-05
1.38419e-08
1.58268e-05
1.36764e-08
1.58289e-05
1.33901e-08
1.58311e-05
1.30157e-08
1.58335e-05
1.25448e-08
1.5836e-05
1.19476e-08
1.58388e-05
1.11941e-08
1.58418e-05
1.02329e-08
1.58452e-05
8.98992e-09
1.5849e-05
7.39908e-09
1.58535e-05
5.40688e-09
1.58587e-05
2.948e-09
1.58648e-05
-4.82877e-12
1.5872e-05
-3.62711e-09
1.58806e-05
-8.11233e-09
1.58908e-05
-1.36828e-08
1.59031e-05
-2.05084e-08
1.59178e-05
-2.89787e-08
1.59357e-05
-3.95842e-08
1.59576e-05
-5.28233e-08
1.59843e-05
-6.96269e-08
1.60176e-05
-9.06512e-08
1.60562e-05
-1.17529e-07
1.61044e-05
-1.51376e-07
-1.79609e-07
1.61501e-05
1.58125e-05
3.55778e-09
1.58152e-05
9.14447e-09
1.58171e-05
1.11589e-08
1.58189e-05
1.1534e-08
1.58207e-05
1.18753e-08
1.58226e-05
1.19634e-08
1.58245e-05
1.1747e-08
1.58266e-05
1.13516e-08
1.58287e-05
1.08456e-08
1.5831e-05
1.02343e-08
1.58335e-05
9.47242e-09
1.58362e-05
8.51511e-09
1.58391e-05
7.28355e-09
1.58424e-05
5.68152e-09
1.58462e-05
3.63542e-09
1.58505e-05
1.10434e-09
1.58556e-05
-2.09517e-09
1.58615e-05
-5.93487e-09
1.58685e-05
-1.06355e-08
1.58768e-05
-1.64066e-08
1.58866e-05
-2.35247e-08
1.58984e-05
-3.22936e-08
1.59126e-05
-4.31769e-08
1.59298e-05
-5.67796e-08
1.59508e-05
-7.3798e-08
1.59764e-05
-9.52064e-08
1.60078e-05
-1.2205e-07
1.60454e-05
-1.5515e-07
1.60922e-05
-1.98148e-07
-2.35661e-07
1.61482e-05
1.58119e-05
2.63157e-09
1.58139e-05
7.15595e-09
1.58157e-05
9.37031e-09
1.58172e-05
9.9542e-09
1.5819e-05
1.01615e-08
1.58208e-05
1.01561e-08
1.58227e-05
9.86521e-09
1.58246e-05
9.36088e-09
1.58268e-05
8.72796e-09
1.5829e-05
7.98013e-09
1.58314e-05
7.0634e-09
1.5834e-05
5.91217e-09
1.58369e-05
4.42114e-09
1.58401e-05
2.46243e-09
1.58438e-05
-1.89264e-11
1.5848e-05
-3.09921e-09
1.58528e-05
-6.95377e-09
1.58585e-05
-1.1629e-08
1.58652e-05
-1.73331e-08
1.58731e-05
-2.43205e-08
1.58825e-05
-3.2915e-08
1.58937e-05
-4.35154e-08
1.59072e-05
-5.66714e-08
1.59235e-05
-7.3092e-08
1.59434e-05
-9.36323e-08
1.59675e-05
-1.1936e-07
1.59971e-05
-1.51628e-07
1.60332e-05
-1.91228e-07
1.60777e-05
-2.42639e-07
-2.92668e-07
1.61347e-05
1.58116e-05
2.02346e-09
1.58131e-05
5.66004e-09
1.58147e-05
7.76303e-09
1.58162e-05
8.44798e-09
1.58178e-05
8.55667e-09
1.58195e-05
8.42529e-09
1.58213e-05
8.03608e-09
1.58233e-05
7.42631e-09
1.58253e-05
6.67289e-09
1.58275e-05
5.79061e-09
1.58299e-05
4.72013e-09
1.58324e-05
3.37237e-09
1.58352e-05
1.6496e-09
1.58383e-05
-6.23742e-10
1.58418e-05
-3.50494e-09
1.58458e-05
-7.10865e-09
1.58504e-05
-1.15844e-08
1.58558e-05
-1.70388e-08
1.58622e-05
-2.36799e-08
1.58696e-05
-3.17988e-08
1.58785e-05
-4.1766e-08
1.5889e-05
-5.40578e-08
1.59017e-05
-6.93068e-08
1.59169e-05
-8.83207e-08
1.59353e-05
-1.12094e-07
1.59578e-05
-1.41829e-07
1.59853e-05
-1.79124e-07
1.60191e-05
-2.2503e-07
1.60609e-05
-2.84383e-07
-3.47246e-07
1.61154e-05
1.58114e-05
1.58986e-09
1.58126e-05
4.50309e-09
1.5814e-05
6.35416e-09
1.58154e-05
7.03392e-09
1.58169e-05
7.0595e-09
1.58185e-05
6.7901e-09
1.58203e-05
6.28141e-09
1.58221e-05
5.56219e-09
1.58241e-05
4.69196e-09
1.58262e-05
3.683e-09
1.58285e-05
2.47012e-09
1.58309e-05
9.38659e-10
1.58336e-05
-1.01509e-09
1.58365e-05
-3.57454e-09
1.58398e-05
-6.83168e-09
1.58436e-05
-1.09085e-08
1.5848e-05
-1.59568e-08
1.58531e-05
-2.21193e-08
1.5859e-05
-2.96161e-08
1.5866e-05
-3.87649e-08
1.58742e-05
-4.99816e-08
1.5884e-05
-6.38078e-08
1.58956e-05
-8.09512e-08
1.59096e-05
-1.02309e-07
1.59265e-05
-1.28996e-07
1.5947e-05
-1.6236e-07
1.59721e-05
-2.0421e-07
1.60031e-05
-2.5599e-07
1.60413e-05
-3.2264e-07
-3.9757e-07
1.60917e-05
1.58113e-05
1.25926e-09
1.58122e-05
3.58127e-09
1.58134e-05
5.12775e-09
1.58148e-05
5.7173e-09
1.58162e-05
5.64837e-09
1.58177e-05
5.23876e-09
1.58194e-05
4.59906e-09
1.58212e-05
3.76678e-09
1.58231e-05
2.78393e-09
1.58251e-05
1.65369e-09
1.58273e-05
3.06355e-10
1.58296e-05
-1.38621e-09
1.58322e-05
-3.5536e-09
1.5835e-05
-6.37101e-09
1.58381e-05
-9.96679e-09
1.58417e-05
-1.44692e-08
1.58457e-05
-2.00352e-08
1.58504e-05
-2.68314e-08
1.58559e-05
-3.50935e-08
1.58623e-05
-4.51614e-08
1.58698e-05
-5.749e-08
1.58787e-05
-7.26744e-08
1.58892e-05
-9.14864e-08
1.59018e-05
-1.14903e-07
1.5917e-05
-1.44144e-07
1.59353e-05
-1.80696e-07
1.59577e-05
-2.26554e-07
1.59852e-05
-2.83577e-07
1.60193e-05
-3.5669e-07
-4.42515e-07
1.60642e-05
1.58112e-05
9.93883e-10
1.5812e-05
2.82238e-09
1.58131e-05
4.05296e-09
1.58143e-05
4.49508e-09
1.58156e-05
4.31327e-09
1.58171e-05
3.7669e-09
1.58187e-05
2.99445e-09
1.58204e-05
2.04817e-09
1.58222e-05
9.58443e-10
1.58242e-05
-2.8329e-10
1.58262e-05
-1.75459e-09
1.58284e-05
-3.59162e-09
1.58308e-05
-5.94721e-09
1.58335e-05
-8.99656e-09
1.58364e-05
-1.28904e-08
1.58397e-05
-1.77676e-08
1.58434e-05
-2.37889e-08
1.58477e-05
-3.11382e-08
1.58527e-05
-4.00664e-08
1.58585e-05
-5.09319e-08
1.58652e-05
-6.42205e-08
1.58731e-05
-8.05709e-08
1.58824e-05
-1.00808e-07
1.58935e-05
-1.25974e-07
1.59067e-05
-1.57376e-07
1.59227e-05
-1.96621e-07
1.5942e-05
-2.45857e-07
1.59657e-05
-3.07333e-07
1.59949e-05
-3.85873e-07
-4.81152e-07
1.60335e-05
1.58112e-05
7.71669e-10
1.58118e-05
2.17701e-09
1.58128e-05
3.0988e-09
1.58139e-05
3.36033e-09
1.58152e-05
3.04873e-09
1.58166e-05
2.3691e-09
1.58181e-05
1.4673e-09
1.58198e-05
4.0892e-10
1.58215e-05
-7.81689e-10
1.58233e-05
-2.12479e-09
1.58253e-05
-3.70646e-09
1.58274e-05
-5.67146e-09
1.58296e-05
-8.18884e-09
1.5832e-05
-1.14395e-08
1.58347e-05
-1.55881e-08
1.58378e-05
-2.07844e-08
1.58412e-05
-2.71934e-08
1.5845e-05
-3.50105e-08
1.58495e-05
-4.4499e-08
1.58546e-05
-5.6032e-08
1.58605e-05
-7.01189e-08
1.58673e-05
-8.74307e-08
1.58754e-05
-1.08832e-07
1.58848e-05
-1.35415e-07
1.5896e-05
-1.68552e-07
1.59093e-05
-2.09944e-07
1.59253e-05
-2.61854e-07
1.59448e-05
-3.26863e-07
1.59686e-05
-4.09638e-07
-5.12665e-07
1.60001e-05
1.58112e-05
5.78712e-10
1.58117e-05
1.61127e-09
1.58126e-05
2.23823e-09
1.58136e-05
2.30256e-09
1.58148e-05
1.84889e-09
1.58162e-05
1.0391e-09
1.58176e-05
1.48107e-11
1.58192e-05
-1.14974e-09
1.58208e-05
-2.43306e-09
1.58226e-05
-3.86569e-09
1.58244e-05
-5.54264e-09
1.58264e-05
-7.61665e-09
1.58284e-05
-1.02686e-08
1.58307e-05
-1.36866e-08
1.58331e-05
-1.80448e-08
1.58359e-05
-2.35019e-08
1.58389e-05
-3.02267e-08
1.58423e-05
-3.84218e-08
1.58462e-05
-4.83596e-08
1.58506e-05
-6.04236e-08
1.58556e-05
-7.51386e-08
1.58613e-05
-9.31974e-08
1.5868e-05
-1.15491e-07
1.58757e-05
-1.43142e-07
1.58847e-05
-1.77564e-07
1.58953e-05
-2.2052e-07
1.59078e-05
-2.7434e-07
1.59228e-05
-3.41862e-07
1.59407e-05
-4.27536e-07
-5.36325e-07
1.59644e-05
1.58111e-05
4.05492e-10
1.58117e-05
1.10101e-09
1.58124e-05
1.44828e-09
1.58134e-05
1.30957e-09
1.58146e-05
7.07523e-10
1.58158e-05
-2.2818e-10
1.58172e-05
-1.36602e-09
1.58187e-05
-2.62789e-09
1.58203e-05
-3.99383e-09
1.58219e-05
-5.50288e-09
1.58236e-05
-7.25873e-09
1.58254e-05
-9.42124e-09
1.58273e-05
-1.21799e-08
1.58294e-05
-1.57292e-08
1.58316e-05
-2.02499e-08
1.5834e-05
-2.59073e-08
1.58366e-05
-3.2873e-08
1.58396e-05
-4.13533e-08
1.58428e-05
-5.1626e-08
1.58465e-05
-6.40799e-08
1.58506e-05
-7.92479e-08
1.58552e-05
-9.78333e-08
1.58605e-05
-1.20739e-07
1.58664e-05
-1.49099e-07
1.58732e-05
-1.84342e-07
1.58809e-05
-2.28252e-07
1.58898e-05
-2.83178e-07
1.59e-05
-3.52117e-07
1.59117e-05
-4.39244e-07
-5.51566e-07
1.5927e-05
1.58111e-05
2.4492e-10
1.58116e-05
6.28292e-10
1.58123e-05
7.09297e-10
1.58133e-05
3.68579e-10
1.58144e-05
-3.81739e-10
1.58156e-05
-1.43697e-09
1.58169e-05
-2.67826e-09
1.58183e-05
-4.02696e-09
1.58198e-05
-5.464e-09
1.58213e-05
-7.03525e-09
1.58229e-05
-8.85231e-09
1.58245e-05
-1.10813e-08
1.58263e-05
-1.39175e-08
1.58281e-05
-1.75603e-08
1.58301e-05
-2.21947e-08
1.58321e-05
-2.79902e-08
1.58344e-05
-3.51197e-08
1.58368e-05
-4.37908e-08
1.58395e-05
-5.42819e-08
1.58424e-05
-6.69826e-08
1.58456e-05
-8.2426e-08
1.5849e-05
-1.01315e-07
1.58529e-05
-1.2455e-07
1.5857e-05
-1.53257e-07
1.58615e-05
-1.88849e-07
1.58664e-05
-2.33096e-07
1.58715e-05
-2.88303e-07
1.58769e-05
-3.57524e-07
1.58822e-05
-4.44592e-07
-5.58009e-07
1.58887e-05
1.58111e-05
9.11888e-11
1.58116e-05
1.79804e-10
1.58123e-05
5.92521e-12
1.58132e-05
-5.3202e-10
1.58142e-05
-1.42696e-09
1.58154e-05
-2.59385e-09
1.58166e-05
-3.9267e-09
1.58179e-05
-5.34925e-09
1.58193e-05
-6.84398e-09
1.58208e-05
-8.46223e-09
1.58222e-05
-1.03221e-08
1.58237e-05
-1.25943e-08
1.58253e-05
-1.54781e-08
1.58269e-05
-1.91754e-08
1.58286e-05
-2.38738e-08
1.58303e-05
-2.97444e-08
1.58322e-05
-3.69601e-08
1.58341e-05
-4.57264e-08
1.58362e-05
-5.63193e-08
1.58383e-05
-6.91236e-08
1.58405e-05
-8.46653e-08
1.58429e-05
-1.03637e-07
1.58452e-05
-1.2692e-07
1.58476e-05
-1.55615e-07
1.58498e-05
-1.91093e-07
1.58518e-05
-2.35062e-07
1.58532e-05
-2.8973e-07
1.58538e-05
-3.58095e-07
1.58528e-05
-4.43578e-07
-5.55539e-07
1.58503e-05
1.58111e-05
-6.04296e-11
1.58116e-05
-2.54521e-10
1.58122e-05
-6.74955e-10
1.58131e-05
-1.40486e-09
1.58141e-05
-2.43826e-09
1.58152e-05
-3.70622e-09
1.58164e-05
-5.11636e-09
1.58177e-05
-6.59771e-09
1.5819e-05
-8.13516e-09
1.58203e-05
-9.7842e-09
1.58216e-05
-1.16676e-08
1.5823e-05
-1.39593e-08
1.58244e-05
-1.686e-08
1.58258e-05
-2.05726e-08
1.58272e-05
-2.52849e-08
1.58286e-05
-3.1168e-08
1.583e-05
-3.83922e-08
1.58315e-05
-4.71587e-08
1.58329e-05
-5.77374e-08
1.58343e-05
-7.05036e-08
1.58356e-05
-8.59694e-08
1.58367e-05
-1.04806e-07
1.58377e-05
-1.27866e-07
1.58383e-05
-1.56202e-07
1.58383e-05
-1.91116e-07
1.58375e-05
-2.34218e-07
1.58353e-05
-2.8756e-07
1.58312e-05
-3.53967e-07
1.5824e-05
-4.36387e-07
-5.44338e-07
1.58128e-05
1.58111e-05
-2.11181e-10
1.58115e-05
-6.84586e-10
1.58122e-05
-1.34887e-09
1.58131e-05
-2.26438e-09
1.58141e-05
-3.42558e-09
1.58151e-05
-4.78043e-09
1.58163e-05
-6.2521e-09
1.58175e-05
-7.77621e-09
1.58187e-05
-9.34004e-09
1.58199e-05
-1.10024e-08
1.58211e-05
-1.28895e-08
1.58223e-05
-1.51765e-08
1.58235e-05
-1.80638e-08
1.58247e-05
-2.17528e-08
1.58258e-05
-2.64297e-08
1.58269e-05
-3.22629e-08
1.5828e-05
-3.94185e-08
1.58289e-05
-4.80915e-08
1.58297e-05
-5.85421e-08
1.58303e-05
-7.11322e-08
1.58307e-05
-8.63534e-08
1.58308e-05
-1.04848e-07
1.58303e-05
-1.27424e-07
1.58292e-05
-1.55072e-07
1.58271e-05
-1.89e-07
1.58235e-05
-2.30686e-07
1.58179e-05
-2.8197e-07
1.58094e-05
-3.45401e-07
1.57964e-05
-4.23393e-07
-5.24917e-07
1.5777e-05
1.58111e-05
-3.62191e-10
1.58116e-05
-1.12293e-09
1.58122e-05
-2.03139e-09
1.58131e-05
-3.12347e-09
1.58141e-05
-4.39781e-09
1.58151e-05
-5.8232e-09
1.58162e-05
-7.33978e-09
1.58173e-05
-8.88947e-09
1.58184e-05
-1.04619e-08
1.58196e-05
-1.21192e-08
1.58207e-05
-1.39898e-08
1.58217e-05
-1.62484e-08
1.58228e-05
-1.90922e-08
1.58237e-05
-2.27193e-08
1.58246e-05
-2.73119e-08
1.58254e-05
-3.30339e-08
1.5826e-05
-4.00458e-08
1.58264e-05
-4.85338e-08
1.58266e-05
-5.87464e-08
1.58265e-05
-7.10277e-08
1.5826e-05
-8.58436e-08
1.5825e-05
-1.03799e-07
1.58232e-05
-1.25648e-07
1.58204e-05
-1.52304e-07
1.58163e-05
-1.84862e-07
1.58103e-05
-2.24635e-07
1.58015e-05
-2.73213e-07
1.57889e-05
-3.32771e-07
1.57706e-05
-4.05156e-07
-4.9812e-07
1.57438e-05
1.58111e-05
-5.18226e-10
1.58116e-05
-1.58227e-09
1.58123e-05
-2.73678e-09
1.58132e-05
-3.99455e-09
1.58141e-05
-5.3643e-09
1.58151e-05
-6.84198e-09
1.58162e-05
-8.38581e-09
1.58172e-05
-9.94284e-09
1.58183e-05
-1.15052e-08
1.58193e-05
-1.31385e-08
1.58203e-05
-1.49725e-08
1.58212e-05
-1.71789e-08
1.58221e-05
-1.99498e-08
1.58228e-05
-2.34772e-08
1.58235e-05
-2.79378e-08
1.58239e-05
-3.34894e-08
1.58242e-05
-4.02846e-08
1.58241e-05
-4.85e-08
1.58237e-05
-5.83696e-08
1.58229e-05
-7.02166e-08
1.58216e-05
-8.44762e-08
1.58195e-05
-1.0171e-07
1.58164e-05
-1.22609e-07
1.58121e-05
-1.47999e-07
1.58061e-05
-1.78847e-07
1.57978e-05
-2.16278e-07
1.57861e-05
-2.61602e-07
1.57699e-05
-3.1655e-07
1.57472e-05
-3.82389e-07
-4.65091e-07
1.57141e-05
1.58111e-05
-6.85604e-10
1.58116e-05
-2.07578e-09
1.58124e-05
-3.48165e-09
1.58133e-05
-4.89115e-09
1.58142e-05
-6.33449e-09
1.58152e-05
-7.84449e-09
1.58163e-05
-9.3972e-09
1.58173e-05
-1.09423e-08
1.58182e-05
-1.24749e-08
1.58191e-05
-1.4065e-08
1.582e-05
-1.58424e-08
1.58208e-05
-1.79734e-08
1.58215e-05
-2.06424e-08
1.58221e-05
-2.40338e-08
1.58224e-05
-2.83165e-08
1.58226e-05
-3.36406e-08
1.58225e-05
-4.015e-08
1.5822e-05
-4.80094e-08
1.5821e-05
-5.74371e-08
1.58196e-05
-6.87325e-08
1.58174e-05
-8.22965e-08
1.58143e-05
-9.86416e-08
1.58101e-05
-1.18392e-07
1.58044e-05
-1.42276e-07
1.57966e-05
-1.71123e-07
1.57862e-05
-2.05858e-07
1.57721e-05
-2.47498e-07
1.57528e-05
-2.97286e-07
1.57264e-05
-3.55928e-07
-4.27219e-07
1.56885e-05
1.58112e-05
-8.7156e-10
1.58117e-05
-2.62094e-09
1.58125e-05
-4.2857e-09
1.58134e-05
-5.82718e-09
1.58144e-05
-7.31762e-09
1.58154e-05
-8.83891e-09
1.58164e-05
-1.03814e-08
1.58174e-05
-1.18939e-08
1.58183e-05
-1.33764e-08
1.58191e-05
-1.49044e-08
1.58199e-05
-1.66055e-08
1.58205e-05
-1.86385e-08
1.58211e-05
-2.1178e-08
1.58214e-05
-2.43983e-08
1.58216e-05
-2.84593e-08
1.58214e-05
-3.3502e-08
1.58209e-05
-3.96599e-08
1.582e-05
-4.70854e-08
1.58186e-05
-5.59792e-08
1.58164e-05
-6.6615e-08
1.58135e-05
-7.93565e-08
1.58095e-05
-9.46647e-08
1.58042e-05
-1.13092e-07
1.57972e-05
-1.35265e-07
1.5788e-05
-1.61873e-07
1.57757e-05
-1.9364e-07
1.57595e-05
-2.31289e-07
1.57378e-05
-2.75568e-07
1.57086e-05
-3.2668e-07
-3.86024e-07
1.56674e-05
1.58112e-05
-1.08605e-09
1.58118e-05
-3.24163e-09
1.58127e-05
-5.17233e-09
1.58137e-05
-6.81638e-09
1.58147e-05
-8.32258e-09
1.58157e-05
-9.83402e-09
1.58166e-05
-1.13463e-08
1.58176e-05
-1.2804e-08
1.58184e-05
-1.42156e-08
1.58192e-05
-1.56627e-08
1.58198e-05
-1.72688e-08
1.58204e-05
-1.91822e-08
1.58207e-05
-2.15659e-08
1.58209e-05
-2.45823e-08
1.58209e-05
-2.83804e-08
1.58204e-05
-3.30913e-08
1.58196e-05
-3.88367e-08
1.58183e-05
-4.57559e-08
1.58163e-05
-5.40313e-08
1.58136e-05
-6.39095e-08
1.581e-05
-7.57153e-08
1.58052e-05
-8.98564e-08
1.57989e-05
-1.06811e-07
1.57907e-05
-1.27107e-07
1.57802e-05
-1.51293e-07
1.57664e-05
-1.79897e-07
1.57485e-05
-2.13371e-07
1.57249e-05
-2.5199e-07
1.56938e-05
-2.95554e-07
-3.43102e-07
1.56509e-05
1.58112e-05
-1.34371e-09
1.5812e-05
-3.97217e-09
1.5813e-05
-6.1692e-09
1.5814e-05
-7.87086e-09
1.5815e-05
-9.35767e-09
1.5816e-05
-1.08395e-08
1.5817e-05
-1.23e-08
1.58179e-05
-1.36789e-08
1.58187e-05
-1.49984e-08
1.58193e-05
-1.63467e-08
1.58199e-05
-1.78398e-08
1.58203e-05
-1.9613e-08
1.58206e-05
-2.18162e-08
1.58206e-05
-2.45975e-08
1.58203e-05
-2.80945e-08
1.58197e-05
-3.2427e-08
1.58185e-05
-3.77038e-08
1.58168e-05
-4.40507e-08
1.58144e-05
-5.16317e-08
1.58112e-05
-6.06652e-08
1.58069e-05
-7.14357e-08
1.58013e-05
-8.42981e-08
1.57942e-05
-9.96587e-08
1.5785e-05
-1.17946e-07
1.57733e-05
-1.39577e-07
1.57583e-05
-1.64901e-07
1.57391e-05
-1.94128e-07
1.57142e-05
-2.27121e-07
1.56821e-05
-2.63405e-07
-2.99891e-07
1.56388e-05
1.58113e-05
-1.66695e-09
1.58122e-05
-4.86302e-09
1.58133e-05
-7.30791e-09
1.58144e-05
-8.99964e-09
1.58155e-05
-1.04311e-08
1.58165e-05
-1.18651e-08
1.58175e-05
-1.32497e-08
1.58183e-05
-1.45245e-08
1.58191e-05
-1.57324e-08
1.58197e-05
-1.69653e-08
1.58202e-05
-1.83286e-08
1.58205e-05
-1.99422e-08
1.58206e-05
-2.19406e-08
1.58205e-05
-2.44613e-08
1.582e-05
-2.76242e-08
1.58191e-05
-3.15326e-08
1.58177e-05
-3.62888e-08
1.58157e-05
-4.20046e-08
1.58129e-05
-4.88236e-08
1.58091e-05
-5.69353e-08
1.58043e-05
-6.65843e-08
1.57981e-05
-7.80748e-08
1.57901e-05
-9.17438e-08
1.57801e-05
-1.07925e-07
1.57675e-05
-1.26917e-07
1.57515e-05
-1.48908e-07
1.57313e-05
-1.73915e-07
1.57056e-05
-2.01455e-07
1.56732e-05
-2.30963e-07
-2.57658e-07
1.56309e-05
1.58114e-05
-2.09339e-09
1.58125e-05
-5.98693e-09
1.58138e-05
-8.61954e-09
1.5815e-05
-1.02096e-08
1.58162e-05
-1.15559e-08
1.58172e-05
-1.29218e-08
1.58182e-05
-1.41987e-08
1.5819e-05
-1.53423e-08
1.58197e-05
-1.64204e-08
1.58202e-05
-1.75228e-08
1.58206e-05
-1.87409e-08
1.58209e-05
-2.01781e-08
1.58209e-05
-2.1953e-08
1.58206e-05
-2.41854e-08
1.582e-05
-2.69809e-08
1.58189e-05
-3.04302e-08
1.58172e-05
-3.46215e-08
1.58149e-05
-3.96533e-08
1.58117e-05
-4.56515e-08
1.58075e-05
-5.27761e-08
1.58022e-05
-6.12307e-08
1.57954e-05
-7.12739e-08
1.57868e-05
-8.31768e-08
1.57761e-05
-9.71854e-08
1.57626e-05
-1.13495e-07
1.57459e-05
-1.32156e-07
1.5725e-05
-1.53043e-07
1.5699e-05
-1.75399e-07
1.56668e-05
-1.9879e-07
-2.1725e-07
1.56264e-05
1.58116e-05
-2.69421e-09
1.5813e-05
-7.4488e-09
1.58145e-05
-1.01186e-08
1.58158e-05
-1.15024e-08
1.5817e-05
-1.27539e-08
1.58181e-05
-1.40276e-08
1.58191e-05
-1.51585e-08
1.58199e-05
-1.61442e-08
1.58205e-05
-1.70749e-08
1.5821e-05
-1.80314e-08
1.58214e-05
-1.90895e-08
1.58216e-05
-2.03351e-08
1.58215e-05
-2.18685e-08
1.58211e-05
-2.37905e-08
1.58203e-05
-2.61909e-08
1.5819e-05
-2.91467e-08
1.58171e-05
-3.27332e-08
1.58145e-05
-3.70345e-08
1.5811e-05
-4.21615e-08
1.58065e-05
-4.82432e-08
1.58007e-05
-5.54422e-08
1.57934e-05
-6.39793e-08
1.57843e-05
-7.40632e-08
1.5773e-05
-8.58603e-08
1.57589e-05
-9.94803e-08
1.57416e-05
-1.14857e-07
1.57204e-05
-1.31777e-07
1.56942e-05
-1.49241e-07
1.56627e-05
-1.67232e-07
-1.79073e-07
1.56245e-05
1.58119e-05
-3.61107e-09
1.58138e-05
-9.40661e-09
1.58155e-05
-1.17864e-08
1.58169e-05
-1.28703e-08
1.58182e-05
-1.40282e-08
1.58193e-05
-1.51697e-08
1.58203e-05
-1.61168e-08
1.5821e-05
-1.69276e-08
1.58217e-05
-1.76992e-08
1.58221e-05
-1.84968e-08
1.58224e-05
-1.93829e-08
1.58225e-05
-2.04239e-08
1.58223e-05
-2.17011e-08
1.58218e-05
-2.32943e-08
1.58209e-05
-2.52766e-08
1.58195e-05
-2.77101e-08
1.58174e-05
-3.06583e-08
1.58146e-05
-3.41903e-08
1.58108e-05
-3.84064e-08
1.5806e-05
-4.33995e-08
1.57998e-05
-4.92929e-08
1.57921e-05
-5.62802e-08
1.57826e-05
-6.45088e-08
1.57708e-05
-7.40765e-08
1.57563e-05
-8.50278e-08
1.57387e-05
-9.71992e-08
1.57172e-05
-1.10334e-07
1.56912e-05
-1.23177e-07
1.56605e-05
-1.36518e-07
-1.42442e-07
1.56238e-05
1.58125e-05
-5.10887e-09
1.58151e-05
-1.20548e-08
1.58169e-05
-1.36139e-08
1.58185e-05
-1.43919e-08
1.58199e-05
-1.54275e-08
1.5821e-05
-1.63528e-08
1.5822e-05
-1.70728e-08
1.58228e-05
-1.76948e-08
1.58234e-05
-1.82945e-08
1.58238e-05
-1.892e-08
1.5824e-05
-1.9626e-08
1.58241e-05
-2.04541e-08
1.58238e-05
-2.14646e-08
1.58232e-05
-2.27151e-08
1.58222e-05
-2.42613e-08
1.58207e-05
-2.61482e-08
1.58184e-05
-2.84295e-08
1.58154e-05
-3.11575e-08
1.58114e-05
-3.44353e-08
1.58063e-05
-3.82985e-08
1.57999e-05
-4.28444e-08
1.57919e-05
-4.82606e-08
1.5782e-05
-5.46193e-08
1.57699e-05
-6.19638e-08
1.57551e-05
-7.02965e-08
1.57373e-05
-7.93881e-08
1.57159e-05
-8.89379e-08
1.569e-05
-9.72488e-08
1.56604e-05
-1.06909e-07
-1.0545e-07
1.56234e-05
1.58136e-05
-7.7296e-09
1.58168e-05
-1.52861e-08
1.58187e-05
-1.5478e-08
1.58205e-05
-1.61616e-08
1.5822e-05
-1.69674e-08
1.58232e-05
-1.75807e-08
1.58242e-05
-1.805e-08
1.5825e-05
-1.84708e-08
1.58256e-05
-1.8885e-08
1.5826e-05
-1.93278e-08
1.58262e-05
-1.9842e-08
1.58262e-05
-2.04487e-08
1.58259e-05
-2.11819e-08
1.58253e-05
-2.20744e-08
1.58242e-05
-2.31691e-08
1.58225e-05
-2.44902e-08
1.58202e-05
-2.60848e-08
1.5817e-05
-2.79744e-08
1.58129e-05
-3.03075e-08
1.58076e-05
-3.30223e-08
1.58009e-05
-3.61708e-08
1.57926e-05
-3.99892e-08
1.57825e-05
-4.44662e-08
1.57701e-05
-4.95994e-08
1.57552e-05
-5.5367e-08
1.57374e-05
-6.1559e-08
1.57162e-05
-6.78197e-08
1.56908e-05
-7.17775e-08
1.56618e-05
-7.79106e-08
-6.22717e-08
1.56186e-05
1.58171e-05
-1.38321e-08
1.58206e-05
-1.87974e-08
1.58228e-05
-1.76768e-08
1.58244e-05
-1.77697e-08
1.58257e-05
-1.8261e-08
1.58267e-05
-1.86033e-08
1.58275e-05
-1.88373e-08
1.58281e-05
-1.90505e-08
1.58285e-05
-1.92658e-08
1.58286e-05
-1.94951e-08
1.58285e-05
-1.97581e-08
1.58282e-05
-2.0069e-08
1.58274e-05
-2.04449e-08
1.58262e-05
-2.09038e-08
1.58245e-05
-2.14718e-08
1.58222e-05
-2.2158e-08
1.58191e-05
-2.29913e-08
1.58151e-05
-2.39732e-08
1.581e-05
-2.5216e-08
1.58037e-05
-2.66417e-08
1.57958e-05
-2.82787e-08
1.57861e-05
-3.03095e-08
1.57743e-05
-3.26998e-08
1.57602e-05
-3.54374e-08
1.57433e-05
-3.85177e-08
1.57235e-05
-4.17701e-08
1.57007e-05
-4.50254e-08
1.56744e-05
-4.5452e-08
1.56413e-05
-4.48657e-08
5.58663e-09
1.55735e-05
1.57971e-05
1.57783e-05
1.57607e-05
1.57429e-05
1.57246e-05
1.5706e-05
1.56872e-05
1.56681e-05
1.56489e-05
1.56294e-05
1.56096e-05
1.55896e-05
1.55691e-05
1.55482e-05
1.55267e-05
1.55046e-05
1.54816e-05
1.54576e-05
1.54324e-05
1.54057e-05
1.53775e-05
1.53472e-05
1.53145e-05
1.5279e-05
1.52405e-05
1.51987e-05
1.51537e-05
1.51083e-05
1.50634e-05
1.5069e-05
1.54501e-05
-9.0242e-06
9.31594e-06
1.51135e-05
-9.10402e-06
9.44068e-06
1.47226e-05
-9.16009e-06
9.55098e-06
1.42872e-05
-9.19099e-06
9.62642e-06
1.38272e-05
-9.21773e-06
9.67771e-06
1.33555e-05
-9.2469e-06
9.71856e-06
1.28778e-05
-9.27857e-06
9.75628e-06
1.23968e-05
-9.31278e-06
9.79381e-06
1.19136e-05
-9.34964e-06
9.83283e-06
1.14284e-05
-9.38903e-06
9.87421e-06
1.0941e-05
-9.43069e-06
9.91813e-06
1.04509e-05
-9.47457e-06
9.96458e-06
9.95821e-06
-9.52092e-06
1.00137e-05
9.46267e-06
-9.57017e-06
1.00657e-05
8.96423e-06
-9.62285e-06
1.01213e-05
8.46273e-06
-9.67962e-06
1.01811e-05
7.95797e-06
-9.74131e-06
1.02461e-05
7.44963e-06
-9.80898e-06
1.03173e-05
6.93729e-06
-9.88408e-06
1.03964e-05
6.42039e-06
-9.96857e-06
1.04855e-05
5.89821e-06
-1.00652e-05
1.05874e-05
5.36936e-06
-1.0178e-05
1.07068e-05
4.8333e-06
-1.03121e-05
1.08482e-05
4.28425e-06
-1.04797e-05
1.10288e-05
3.72798e-06
-1.06836e-05
1.12398e-05
3.13408e-06
-1.09899e-05
1.15838e-05
2.54326e-06
-1.13175e-05
1.19084e-05
1.82747e-06
-1.21208e-05
1.28366e-05
1.10008e-06
-1.26547e-05
1.33821e-05
-1.5767e-05
1.68671e-05
1.57299e-05
-8.61868e-06
1.52774e-05
-8.65156e-06
1.48016e-05
-8.68425e-06
1.43202e-05
-8.70958e-06
1.3839e-05
-8.73657e-06
1.33584e-05
-8.7663e-06
1.28782e-05
-8.79836e-06
1.23979e-05
-8.83247e-06
1.19164e-05
-8.86808e-06
1.14327e-05
-8.90534e-06
1.09465e-05
-8.94448e-06
1.04576e-05
-8.98571e-06
9.9661e-06
-9.0294e-06
9.47187e-06
-9.07594e-06
8.97483e-06
-9.1258e-06
8.47477e-06
-9.17956e-06
7.97144e-06
-9.23797e-06
7.46449e-06
-9.30203e-06
6.95348e-06
-9.37307e-06
6.43782e-06
-9.45291e-06
5.91668e-06
-9.54405e-06
5.38883e-06
-9.65015e-06
4.85299e-06
-9.77628e-06
4.30515e-06
-9.93186e-06
3.74625e-06
-1.01247e-05
3.1555e-06
-1.03992e-05
2.55563e-06
-1.07177e-05
1.84561e-06
-1.14108e-05
1.11169e-06
-1.19208e-05
-1.46553e-05
1.56939e-05
-8.16251e-06
1.52279e-05
-8.18547e-06
1.47567e-05
-8.21314e-06
1.42867e-05
-8.23952e-06
1.38156e-05
-8.26553e-06
1.33431e-05
-8.29377e-06
1.28685e-05
-8.32381e-06
1.23913e-05
-8.35521e-06
1.19113e-05
-8.38806e-06
1.14286e-05
-8.4227e-06
1.09435e-05
-8.45935e-06
1.04559e-05
-8.49817e-06
9.96595e-06
-8.5394e-06
9.47334e-06
-8.58334e-06
8.97796e-06
-8.63042e-06
8.47956e-06
-8.68117e-06
7.97789e-06
-8.7363e-06
7.47259e-06
-8.79673e-06
6.96319e-06
-8.86367e-06
6.44907e-06
-8.93879e-06
5.92937e-06
-9.02435e-06
5.40287e-06
-9.12364e-06
4.86794e-06
-9.24135e-06
4.32139e-06
-9.38531e-06
3.76139e-06
-9.56467e-06
3.17311e-06
-9.81091e-06
2.56664e-06
-1.01112e-05
1.861e-06
-1.07052e-05
1.11832e-06
-1.11781e-05
-1.3537e-05
1.56867e-05
-7.70098e-06
1.52227e-05
-7.72148e-06
1.47546e-05
-7.74503e-06
1.42842e-05
-7.76908e-06
1.38122e-05
-7.79358e-06
1.33382e-05
-7.81972e-06
1.2862e-05
-7.84766e-06
1.23839e-05
-7.87711e-06
1.19039e-05
-7.90809e-06
1.1422e-05
-7.94078e-06
1.0938e-05
-7.97534e-06
1.04518e-05
-8.01191e-06
9.96306e-06
-8.0507e-06
9.47177e-06
-8.09205e-06
8.97769e-06
-8.13635e-06
8.48062e-06
-8.1841e-06
7.98027e-06
-8.23595e-06
7.47626e-06
-8.29272e-06
6.96811e-06
-8.35552e-06
6.45514e-06
-8.42582e-06
5.93647e-06
-8.50568e-06
5.41083e-06
-8.598e-06
4.87644e-06
-8.70696e-06
4.33038e-06
-8.83925e-06
3.76939e-06
-9.00368e-06
3.18208e-06
-9.2236e-06
2.56996e-06
-9.49908e-06
1.86778e-06
-1.0003e-05
1.11741e-06
-1.04277e-05
-1.24196e-05
1.56705e-05
-7.23678e-06
1.52045e-05
-7.25549e-06
1.47358e-05
-7.27633e-06
1.42653e-05
-7.29861e-06
1.37937e-05
-7.32197e-06
1.33207e-05
-7.34669e-06
1.28459e-05
-7.37291e-06
1.23694e-05
-7.40053e-06
1.18908e-05
-7.42956e-06
1.14102e-05
-7.46017e-06
1.09274e-05
-7.4925e-06
1.04422e-05
-7.52675e-06
9.95465e-06
-7.56312e-06
9.46451e-06
-7.60191e-06
8.97162e-06
-7.64346e-06
8.47575e-06
-7.68823e-06
7.97659e-06
-7.73678e-06
7.47374e-06
-7.78987e-06
6.96667e-06
-7.84845e-06
6.45471e-06
-7.91386e-06
5.93691e-06
-7.98788e-06
5.41196e-06
-8.07306e-06
4.878e-06
-8.173e-06
4.33214e-06
-8.29339e-06
3.77043e-06
-8.44198e-06
3.18331e-06
-8.63648e-06
2.56689e-06
-8.88267e-06
1.86717e-06
-9.30325e-06
1.111e-06
-9.67156e-06
-1.13086e-05
1.56504e-05
-6.77176e-06
1.51841e-05
-6.78916e-06
1.4716e-05
-6.80827e-06
1.42465e-05
-6.82906e-06
1.37756e-05
-6.85109e-06
1.33032e-05
-6.87425e-06
1.28289e-05
-6.89867e-06
1.23528e-05
-6.92442e-06
1.18748e-05
-6.95154e-06
1.13948e-05
-6.98015e-06
1.09127e-05
-7.01041e-06
1.04284e-05
-7.04246e-06
9.94175e-06
-7.0765e-06
9.45262e-06
-7.11277e-06
8.96075e-06
-7.1516e-06
8.4659e-06
-7.19337e-06
7.96772e-06
-7.23861e-06
7.46581e-06
-7.28795e-06
6.95962e-06
-7.34226e-06
6.44842e-06
-7.40267e-06
5.93126e-06
-7.47072e-06
5.40677e-06
-7.54856e-06
4.87302e-06
-7.63925e-06
4.32707e-06
-7.74745e-06
3.76468e-06
-7.87958e-06
3.17718e-06
-8.04898e-06
2.55744e-06
-8.26292e-06
1.85975e-06
-8.60557e-06
1.09941e-06
-8.91122e-06
-1.02092e-05
1.56264e-05
-6.30654e-06
1.51601e-05
-6.32279e-06
1.46923e-05
-6.34048e-06
1.42231e-05
-6.35986e-06
1.37525e-05
-6.38048e-06
1.32803e-05
-6.40212e-06
1.28066e-05
-6.4249e-06
1.2331e-05
-6.4489e-06
1.18537e-05
-6.47422e-06
1.13745e-05
-6.50093e-06
1.08933e-05
-6.52915e-06
1.04098e-05
-6.55903e-06
9.92405e-06
-6.59073e-06
9.43577e-06
-6.62449e-06
8.94476e-06
-6.66058e-06
8.45074e-06
-6.69936e-06
7.95338e-06
-6.74124e-06
7.45223e-06
-6.7868e-06
6.94673e-06
-6.83676e-06
6.43613e-06
-6.89207e-06
5.91942e-06
-6.95401e-06
5.39521e-06
-7.02434e-06
4.86149e-06
-7.10554e-06
4.3153e-06
-7.20126e-06
3.75223e-06
-7.31651e-06
3.16412e-06
-7.46087e-06
2.54194e-06
-7.64074e-06
1.84655e-06
-7.91018e-06
1.08342e-06
-8.14808e-06
-9.12579e-06
1.55989e-05
-5.84125e-06
1.51326e-05
-5.85647e-06
1.46651e-05
-5.87292e-06
1.41962e-05
-5.89096e-06
1.37259e-05
-5.91021e-06
1.32542e-05
-5.93039e-06
1.27808e-05
-5.95158e-06
1.23058e-05
-5.97391e-06
1.18291e-05
-5.99745e-06
1.13504e-05
-6.02228e-06
1.08698e-05
-6.0485e-06
1.0387e-05
-6.07623e-06
9.90187e-06
-6.10563e-06
9.41428e-06
-6.1369e-06
8.92396e-06
-6.17027e-06
8.43062e-06
-6.20602e-06
7.93391e-06
-6.24453e-06
7.43335e-06
-6.28625e-06
6.92837e-06
-6.33178e-06
6.41819e-06
-6.38189e-06
5.90177e-06
-6.43758e-06
5.37766e-06
-6.50024e-06
4.84385e-06
-6.57172e-06
4.29731e-06
-6.65472e-06
3.73358e-06
-6.75278e-06
3.1448e-06
-6.87209e-06
2.52096e-06
-7.01691e-06
1.82815e-06
-7.21737e-06
1.06394e-06
-7.38388e-06
-8.06185e-06
1.55683e-05
-5.37596e-06
1.5102e-05
-5.39021e-06
1.46346e-05
-5.40551e-06
1.41659e-05
-5.42228e-06
1.36959e-05
-5.44018e-06
1.32244e-05
-5.45893e-06
1.27514e-05
-5.47859e-06
1.22768e-05
-5.49929e-06
1.18005e-05
-5.52111e-06
1.13223e-05
-5.54411e-06
1.08422e-05
-5.56836e-06
1.03599e-05
-5.59398e-06
9.8754e-06
-5.6211e-06
9.38838e-06
-5.64988e-06
8.89862e-06
-5.6805e-06
8.40582e-06
-5.71322e-06
7.9096e-06
-5.74831e-06
7.40949e-06
-5.78614e-06
6.90488e-06
-5.82717e-06
6.39497e-06
-5.87197e-06
5.87868e-06
-5.9213e-06
5.35457e-06
-5.97612e-06
4.82056e-06
-6.03772e-06
4.27363e-06
-6.10778e-06
3.70929e-06
-6.18845e-06
3.11997e-06
-6.28276e-06
2.49521e-06
-6.39215e-06
1.80537e-06
-6.52753e-06
1.04201e-06
-6.62051e-06
-7.01984e-06
1.55348e-05
-4.91063e-06
1.50685e-05
-4.92397e-06
1.46012e-05
-4.9382e-06
1.41327e-05
-4.95375e-06
1.36628e-05
-4.97033e-06
1.31916e-05
-4.98769e-06
1.27189e-05
-5.00587e-06
1.22446e-05
-5.02499e-06
1.17686e-05
-5.04513e-06
1.12908e-05
-5.06632e-06
1.08111e-05
-5.08863e-06
1.03292e-05
-5.11216e-06
9.84514e-06
-5.137e-06
9.35855e-06
-5.16329e-06
8.86921e-06
-5.19117e-06
8.37682e-06
-5.22082e-06
7.88097e-06
-5.25246e-06
7.38117e-06
-5.28635e-06
6.87681e-06
-5.3228e-06
6.36705e-06
-5.36221e-06
5.8508e-06
-5.40506e-06
5.3266e-06
-5.45191e-06
4.79235e-06
-5.50347e-06
4.24503e-06
-5.56047e-06
3.68021e-06
-5.62363e-06
3.09055e-06
-5.6931e-06