/*--------------------------------*- C++ -*----------------------------------*\
  =========                 |
  \\      /  F ield         | OpenFOAM: The Open Source CFD Toolbox
   \\    /   O peration     | Website:  https://openfoam.org
    \\  /    A nd           | Version:  11
     \\/     M anipulation  |
\*---------------------------------------------------------------------------*/
FoamFile
{
    format      ascii;
    class       volVectorField;
    location    "4";
    object      U;
}
// * * * * * * * * * * * * * * * * * * * * * * * * * * * * * * * * * * * * * //

dimensions      [0 1 -1 0 0 0 0];

internalField   nonuniform List<vector> 
12600
(
(0.412294 5.36432e-05 0)
(0.412229 0.000106936 0)
(0.412119 0.000104677 0)
(0.41199 0.000103853 0)
(0.41188 0.000100902 0)
(0.411799 9.49633e-05 0)
(0.411741 8.77317e-05 0)
(0.411706 7.94202e-05 0)
(0.411695 6.97166e-05 0)
(0.411717 5.70083e-05 0)
(0.411778 3.97138e-05 0)
(0.411889 1.6679e-05 0)
(0.412064 -1.26409e-05 0)
(0.412318 -4.89663e-05 0)
(0.41267 -9.10025e-05 0)
(0.413145 -0.000142811 0)
(0.413768 -0.000207315 0)
(0.414569 -0.000285091 0)
(0.415578 -0.000378735 0)
(0.416838 -0.000491863 0)
(0.418392 -0.000623286 0)
(0.42029 -0.000769536 0)
(0.422591 -0.000931522 0)
(0.425364 -0.00111674 0)
(0.428689 -0.00133469 0)
(0.432651 -0.00158899 0)
(0.437341 -0.00189214 0)
(0.442837 -0.00219368 0)
(0.449286 -0.00271644 0)
(0.457352 -0.00238891 0)
(0.412483 5.98359e-05 0)
(0.412605 9.98652e-05 0)
(0.412762 7.03868e-05 0)
(0.41295 4.27142e-05 0)
(0.413146 2.08038e-05 0)
(0.413354 6.26783e-07 0)
(0.413583 -2.17046e-05 0)
(0.413829 -4.81379e-05 0)
(0.414096 -8.01944e-05 0)
(0.41439 -0.000119519 0)
(0.414718 -0.000168213 0)
(0.415088 -0.000228687 0)
(0.415509 -0.000304482 0)
(0.415995 -0.000399544 0)
(0.416557 -0.000517861 0)
(0.417221 -0.000662658 0)
(0.417994 -0.000836954 0)
(0.418911 -0.00104495 0)
(0.420021 -0.00129179 0)
(0.421338 -0.00158314 0)
(0.422908 -0.00192784 0)
(0.424794 -0.00233876 0)
(0.427067 -0.00282802 0)
(0.4298 -0.00340272 0)
(0.433063 -0.00406751 0)
(0.436924 -0.00482476 0)
(0.441472 -0.00568993 0)
(0.446759 -0.00660878 0)
(0.452989 -0.00784027 0)
(0.459787 -0.00803554 0)
(0.412478 -4.31105e-06 0)
(0.412551 -3.64339e-05 0)
(0.412685 -9.24856e-05 0)
(0.412847 -0.000146959 0)
(0.413024 -0.000186827 0)
(0.413223 -0.000217985 0)
(0.413447 -0.000250923 0)
(0.413691 -0.00029044 0)
(0.413954 -0.000338562 0)
(0.414241 -0.000397875 0)
(0.414559 -0.000471987 0)
(0.414913 -0.000565462 0)
(0.415316 -0.000682915 0)
(0.415779 -0.000828768 0)
(0.416319 -0.00100825 0)
(0.416957 -0.00122692 0)
(0.417716 -0.00149273 0)
(0.418625 -0.00181809 0)
(0.419713 -0.00220968 0)
(0.42102 -0.00267292 0)
(0.422591 -0.00322554 0)
(0.424468 -0.00389145 0)
(0.4267 -0.00468649 0)
(0.42935 -0.00561632 0)
(0.432492 -0.00668715 0)
(0.436213 -0.00790829 0)
(0.440596 -0.00930231 0)
(0.445782 -0.0108228 0)
(0.451747 -0.01272 0)
(0.459096 -0.0136694 0)
(0.412474 -3.63078e-05 0)
(0.412533 -0.000102234 0)
(0.412652 -0.000168469 0)
(0.412804 -0.000232339 0)
(0.412974 -0.00028758 0)
(0.413163 -0.000336581 0)
(0.413375 -0.000385801 0)
(0.413607 -0.000440505 0)
(0.41386 -0.000505176 0)
(0.414136 -0.000584278 0)
(0.41444 -0.000682463 0)
(0.414779 -0.000805504 0)
(0.415163 -0.000960649 0)
(0.415604 -0.00115611 0)
(0.416119 -0.00140064 0)
(0.416726 -0.00170324 0)
(0.417449 -0.00207385 0)
(0.418314 -0.00252399 0)
(0.41935 -0.00306513 0)
(0.420593 -0.00371113 0)
(0.422083 -0.00448031 0)
(0.423868 -0.00539196 0)
(0.425997 -0.00646472 0)
(0.428527 -0.00771857 0)
(0.431529 -0.00917679 0)
(0.435096 -0.0108597 0)
(0.439311 -0.0127989 0)
(0.444343 -0.0149462 0)
(0.450151 -0.0175621 0)
(0.45748 -0.0193573 0)
(0.412471 -6.19212e-05 0)
(0.412521 -0.000169685 0)
(0.412624 -0.000267034 0)
(0.412763 -0.00035558 0)
(0.412923 -0.000432721 0)
(0.413103 -0.000500682 0)
(0.413302 -0.000566377 0)
(0.413522 -0.000636815 0)
(0.413762 -0.000717941 0)
(0.414022 -0.000815831 0)
(0.414309 -0.000937468 0)
(0.414629 -0.00109084 0)
(0.41499 -0.00128475 0)
(0.415406 -0.00152874 0)
(0.415891 -0.00183318 0)
(0.416461 -0.00220951 0)
(0.417138 -0.00267054 0)
(0.417947 -0.00323092 0)
(0.418914 -0.00390626 0)
(0.420073 -0.00471353 0)
(0.421463 -0.00567349 0)
(0.423125 -0.00681161 0)
(0.425108 -0.00815572 0)
(0.42747 -0.00973396 0)
(0.430284 -0.0115763 0)
(0.433643 -0.0137115 0)
(0.437631 -0.0161814 0)
(0.442439 -0.0189572 0)
(0.448005 -0.0222864 0)
(0.455224 -0.0250241 0)
(0.41247 -8.37345e-05 0)
(0.412513 -0.000228526 0)
(0.412604 -0.000352545 0)
(0.412731 -0.000459473 0)
(0.412881 -0.000551392 0)
(0.413049 -0.000632623 0)
(0.413236 -0.000710484 0)
(0.41344 -0.000793064 0)
(0.413663 -0.000887883 0)
(0.413906 -0.00100228 0)
(0.414172 -0.00114432 0)
(0.414469 -0.00132333 0)
(0.414804 -0.00154999 0)
(0.415188 -0.00183621 0)
(0.415634 -0.00219498 0)
(0.416157 -0.00264026 0)
(0.416778 -0.0031871 0)
(0.417517 -0.00385196 0)
(0.418401 -0.00465306 0)
(0.419459 -0.00561127 0)
(0.420725 -0.0067517 0)
(0.422238 -0.00810378 0)
(0.424045 -0.00970022 0)
(0.426203 -0.0115772 0)
(0.428779 -0.0137766 0)
(0.431868 -0.0163423 0)
(0.435554 -0.0193307 0)
(0.44005 -0.022739 0)
(0.445276 -0.0268008 0)
(0.452287 -0.0305364 0)
(0.412469 -0.000102609 0)
(0.412507 -0.000280069 0)
(0.412588 -0.000429682 0)
(0.412703 -0.000556287 0)
(0.41284 -0.000664626 0)
(0.412995 -0.000760708 0)
(0.413166 -0.000852498 0)
(0.413353 -0.000948717 0)
(0.413557 -0.0010579 0)
(0.413778 -0.0011887 0)
(0.414022 -0.00135069 0)
(0.414292 -0.00155469 0)
(0.414596 -0.00181295 0)
(0.414943 -0.00213905 0)
(0.415344 -0.00254775 0)
(0.415815 -0.00305487 0)
(0.416371 -0.00367749 0)
(0.417031 -0.00443442 0)
(0.417818 -0.00534675 0)
(0.418757 -0.00643871 0)
(0.419879 -0.00773881 0)
(0.421219 -0.00928075 0)
(0.422817 -0.0111039 0)
(0.424729 -0.0132542 0)
(0.427016 -0.015785 0)
(0.429772 -0.0187554 0)
(0.433079 -0.0222382 0)
(0.437168 -0.0262646 0)
(0.441944 -0.0310563 0)
(0.448615 -0.0358438 0)
(0.412468 -0.000119202 0)
(0.412501 -0.000325782 0)
(0.412574 -0.000499124 0)
(0.412676 -0.000644353 0)
(0.4128 -0.000767686 0)
(0.412939 -0.000876537 0)
(0.413093 -0.000979685 0)
(0.413262 -0.00108673 0)
(0.413445 -0.00120749 0)
(0.413644 -0.00135185 0)
(0.413861 -0.00153029 0)
(0.414102 -0.00175469 0)
(0.414371 -0.00203878 0)
(0.414677 -0.00239792 0)
(0.415029 -0.00284868 0)
(0.41544 -0.00340864 0)
(0.415923 -0.00409661 0)
(0.416494 -0.0049332 0)
(0.417173 -0.00594161 0)
(0.417979 -0.00714866 0)
(0.418939 -0.00858616 0)
(0.420082 -0.0102923 0)
(0.421444 -0.0123127 0)
(0.423071 -0.0147019 0)
(0.42502 -0.0175255 0)
(0.42738 -0.0208596 0)
(0.430226 -0.024798 0)
(0.4338 -0.0294128 0)
(0.437993 -0.0349196 0)
(0.444145 -0.0408026 0)
(0.412467 -0.000133776 0)
(0.412496 -0.000366009 0)
(0.41256 -0.000560577 0)
(0.41265 -0.000722727 0)
(0.412758 -0.000859616 0)
(0.412882 -0.000979818 0)
(0.413018 -0.00109309 0)
(0.413166 -0.00120996 0)
(0.413327 -0.00134121 0)
(0.413501 -0.00149762 0)
(0.41369 -0.00169048 0)
(0.413898 -0.00193268 0)
(0.41413 -0.00223919 0)
(0.414391 -0.00262675 0)
(0.41469 -0.00311328 0)
(0.415036 -0.00371765 0)
(0.41544 -0.00445997 0)
(0.415916 -0.00536227 0)
(0.416476 -0.00644947 0)
(0.417138 -0.0077506 0)
(0.41792 -0.00930028 0)
(0.418847 -0.0111405 0)
(0.419946 -0.0133225 0)
(0.421254 -0.0159092 0)
(0.422819 -0.0189782 0)
(0.42472 -0.0226236 0)
(0.427021 -0.0269617 0)
(0.429964 -0.0321113 0)
(0.433427 -0.0382881 0)
(0.438832 -0.0452755 0)
(0.412466 -0.000146399 0)
(0.412491 -0.000400848 0)
(0.412545 -0.000613938 0)
(0.412623 -0.000791024 0)
(0.412716 -0.000939898 0)
(0.412823 -0.00107 0)
(0.41294 -0.00119189 0)
(0.413067 -0.00131689 0)
(0.413203 -0.00145666 0)
(0.413351 -0.00162271 0)
(0.413511 -0.00182695 0)
(0.413685 -0.00208294 0)
(0.413876 -0.00240666 0)
(0.41409 -0.00281602 0)
(0.414333 -0.00333007 0)
(0.414611 -0.00396864 0)
(0.414932 -0.00475273 0)
(0.415305 -0.00570531 0)
(0.41574 -0.0068524 0)
(0.416249 -0.00822447 0)
(0.416843 -0.0098581 0)
(0.417537 -0.0117982 0)
(0.418352 -0.0141007 0)
(0.419313 -0.0168355 0)
(0.420454 -0.0200913 0)
(0.421837 -0.0239793 0)
(0.423513 -0.0286398 0)
(0.425704 -0.034241 0)
(0.42828 -0.0410049 0)
(0.432665 -0.0490486 0)
(0.412465 -0.000157073 0)
(0.412486 -0.000430303 0)
(0.412531 -0.000659116 0)
(0.412595 -0.000848955 0)
(0.412673 -0.00100802 0)
(0.412762 -0.00114635 0)
(0.412859 -0.00127519 0)
(0.412964 -0.00140659 0)
(0.413076 -0.00155295 0)
(0.413196 -0.00172633 0)
(0.413324 -0.00193901 0)
(0.413463 -0.00220508 0)
(0.413613 -0.0025413 0)
(0.413779 -0.00296644 0)
(0.413963 -0.00350026 0)
(0.41417 -0.00416312 0)
(0.414405 -0.00497641 0)
(0.414673 -0.00596348 0)
(0.414979 -0.00715081 0)
(0.415328 -0.00856946 0)
(0.415726 -0.010257 0)
(0.416179 -0.0122601 0)
(0.416694 -0.0146376 0)
(0.417286 -0.0174647 0)
(0.417971 -0.0208389 0)
(0.418789 -0.0248862 0)
(0.419767 -0.0297689 0)
(0.421092 -0.035704 0)
(0.422626 -0.0429235 0)
(0.425683 -0.0518948 0)
(0.412464 -0.000165779 0)
(0.412481 -0.000454321 0)
(0.412517 -0.000695958 0)
(0.412568 -0.000896206 0)
(0.41263 -0.00106354 0)
(0.4127 -0.00120841 0)
(0.412777 -0.00134252 0)
(0.412859 -0.00147855 0)
(0.412945 -0.0016295 0)
(0.413037 -0.00180781 0)
(0.413134 -0.00202593 0)
(0.413236 -0.00229824 0)
(0.413344 -0.00264199 0)
(0.41346 -0.00307649 0)
(0.413585 -0.00362185 0)
(0.413721 -0.00429854 0)
(0.41387 -0.00512788 0)
(0.414032 -0.00613303 0)
(0.414207 -0.00734015 0)
(0.414395 -0.00878 0)
(0.414594 -0.0104899 0)
(0.4148 -0.0125166 0)
(0.41501 -0.0149199 0)
(0.415221 -0.0177776 0)
(0.415429 -0.0211923 0)
(0.415648 -0.0253007 0)
(0.415875 -0.0302824 0)
(0.416234 -0.0363963 0)
(0.416588 -0.0438856 0)
(0.418006 -0.0535532 0)
(0.412463 -0.000172498 0)
(0.412475 -0.000472849 0)
(0.412502 -0.000724369 0)
(0.41254 -0.000932615 0)
(0.412586 -0.00110621 0)
(0.412637 -0.00125584 0)
(0.412693 -0.00139356 0)
(0.412752 -0.00153249 0)
(0.412813 -0.00168604 0)
(0.412876 -0.00186683 0)
(0.412941 -0.00208736 0)
(0.413007 -0.00236208 0)
(0.413073 -0.0027085 0)
(0.41314 -0.00314611 0)
(0.413207 -0.00369499 0)
(0.413272 -0.0043753 0)
(0.413335 -0.00520779 0)
(0.413392 -0.0062148 0)
(0.413439 -0.00742143 0)
(0.413468 -0.00885708 0)
(0.41347 -0.0105575 0)
(0.413433 -0.0125677 0)
(0.413339 -0.0149459 0)
(0.413168 -0.017769 0)
(0.412896 -0.0211402 0)
(0.4125 -0.0252003 0)
(0.411947 -0.030138 0)
(0.411273 -0.0362411 0)
(0.410349 -0.0437594 0)
(0.409852 -0.0537776 0)
(0.412462 -0.000177218 0)
(0.41247 -0.000485863 0)
(0.412487 -0.000744292 0)
(0.412512 -0.000958082 0)
(0.412541 -0.00113592 0)
(0.412574 -0.00128856 0)
(0.412609 -0.00142819 0)
(0.412645 -0.00156827 0)
(0.412681 -0.00172245 0)
(0.412716 -0.00190338 0)
(0.412749 -0.00212339 0)
(0.412779 -0.00239687 0)
(0.412804 -0.00274127 0)
(0.412823 -0.00317596 0)
(0.412832 -0.00372059 0)
(0.412829 -0.0043946 0)
(0.412809 -0.00521771 0)
(0.412765 -0.00621084 0)
(0.412688 -0.00739726 0)
(0.412565 -0.00880397 0)
(0.412378 -0.0104637 0)
(0.412107 -0.0124178 0)
(0.41172 -0.0147202 0)
(0.411181 -0.0174426 0)
(0.410441 -0.0206835 0)
(0.409443 -0.0245793 0)
(0.408114 -0.0293165 0)
(0.406389 -0.0351921 0)
(0.404142 -0.042452 0)
(0.401548 -0.0523658 0)
(0.412461 -0.000179933 0)
(0.412465 -0.000493381 0)
(0.412473 -0.000755774 0)
(0.412484 -0.000972651 0)
(0.412497 -0.00115268 0)
(0.412512 -0.00130656 0)
(0.412526 -0.00144651 0)
(0.412539 -0.00158608 0)
(0.41255 -0.00173902 0)
(0.412557 -0.00191782 0)
(0.41256 -0.00213454 0)
(0.412555 -0.0024033 0)
(0.41254 -0.00274127 0)
(0.412512 -0.00316735 0)
(0.412467 -0.00370044 0)
(0.412399 -0.00435886 0)
(0.412301 -0.00516085 0)
(0.412162 -0.00612539 0)
(0.411968 -0.00727316 0)
(0.411703 -0.00862779 0)
(0.411341 -0.0102176 0)
(0.410852 -0.0120783 0)
(0.410194 -0.0142565 0)
(0.409314 -0.016815 0)
(0.408139 -0.0198409 0)
(0.406577 -0.023457 0)
(0.404516 -0.0278338 0)
(0.401782 -0.0332531 0)
(0.398251 -0.03994 0)
(0.393523 -0.0492137 0)
(0.41246 -0.00018067 0)
(0.412459 -0.000495456 0)
(0.412458 -0.000758904 0)
(0.412457 -0.000976454 0)
(0.412454 -0.00115668 0)
(0.41245 -0.0013101 0)
(0.412445 -0.00144883 0)
(0.412436 -0.00158631 0)
(0.412422 -0.00173618 0)
(0.412403 -0.00191071 0)
(0.412375 -0.00212161 0)
(0.412337 -0.00238251 0)
(0.412284 -0.00271004 0)
(0.412213 -0.00312233 0)
(0.412117 -0.00363721 0)
(0.411989 -0.00427157 0)
(0.411818 -0.0050418 0)
(0.411592 -0.00596446 0)
(0.411293 -0.007057 0)
(0.410898 -0.00833881 0)
(0.410379 -0.00983259 0)
(0.409696 -0.0115665 0)
(0.408798 -0.0135774 0)
(0.407616 -0.015915 0)
(0.40606 -0.0186488 0)
(0.404002 -0.0218787 0)
(0.401295 -0.0257448 0)
(0.397664 -0.0304865 0)
(0.392977 -0.0362875 0)
(0.386275 -0.0443584 0)
(0.412459 -0.000179469 0)
(0.412454 -0.000492217 0)
(0.412444 -0.000753882 0)
(0.41243 -0.000969736 0)
(0.412412 -0.0011482 0)
(0.412391 -0.00129956 0)
(0.412366 -0.00143557 0)
(0.412335 -0.00156947 0)
(0.412298 -0.00171464 0)
(0.412253 -0.00188301 0)
(0.412198 -0.0020858 0)
(0.412128 -0.00233604 0)
(0.41204 -0.00264957 0)
(0.411929 -0.00304348 0)
(0.411786 -0.00353426 0)
(0.411603 -0.00413713 0)
(0.411367 -0.00486634 0)
(0.411063 -0.00573563 0)
(0.410671 -0.00675878 0)
(0.410165 -0.00795021 0)
(0.40951 -0.00932603 0)
(0.408662 -0.0109055 0)
(0.407563 -0.0127134 0)
(0.406132 -0.014783 0)
(0.404263 -0.0171611 0)
(0.401805 -0.019916 0)
(0.39858 -0.0231444 0)
(0.39423 -0.027018 0)
(0.388614 -0.0316581 0)
(0.380308 -0.0380102 0)
(0.412458 -0.000176391 0)
(0.412449 -0.000483854 0)
(0.412431 -0.000741016 0)
(0.412405 -0.000952922 0)
(0.412372 -0.00112771 0)
(0.412334 -0.00127538 0)
(0.41229 -0.00140737 0)
(0.412239 -0.00153644 0)
(0.41218 -0.00167545 0)
(0.412111 -0.00183586 0)
(0.412029 -0.00202847 0)
(0.41193 -0.00226564 0)
(0.41181 -0.00256216 0)
(0.411662 -0.00293379 0)
(0.411478 -0.0033955 0)
(0.411246 -0.00396064 0)
(0.410954 -0.00464115 0)
(0.410583 -0.00544774 0)
(0.410112 -0.00639015 0)
(0.409512 -0.00747745 0)
(0.408747 -0.00871853 0)
(0.407768 -0.0101228 0)
(0.406513 -0.0117015 0)
(0.404894 -0.0134691 0)
(0.402797 -0.015446 0)
(0.400055 -0.0176629 0)
(0.396472 -0.0201632 0)
(0.391641 -0.0230317 0)
(0.385403 -0.0263107 0)
(0.376053 -0.0305539 0)
(0.412457 -0.000171525 0)
(0.412445 -0.000470617 0)
(0.412418 -0.000720692 0)
(0.412381 -0.000926482 0)
(0.412334 -0.00109577 0)
(0.41228 -0.00123825 0)
(0.412219 -0.001365 0)
(0.412149 -0.00148812 0)
(0.412069 -0.00161969 0)
(0.411978 -0.00177062 0)
(0.411872 -0.00195128 0)
(0.411746 -0.00217334 0)
(0.411597 -0.00245039 0)
(0.411417 -0.00279663 0)
(0.411196 -0.00322527 0)
(0.410922 -0.00374775 0)
(0.410581 -0.00437361 0)
(0.410155 -0.00511044 0)
(0.40962 -0.00596389 0)
(0.408947 -0.00693752 0)
(0.408099 -0.0080328 0)
(0.407025 -0.00924904 0)
(0.405662 -0.0105833 0)
(0.403922 -0.0120304 0)
(0.40169 -0.0135826 0)
(0.398794 -0.0152299 0)
(0.395034 -0.016958 0)
(0.389994 -0.0187544 0)
(0.3835 -0.0205759 0)
(0.373796 -0.0225149 0)
(0.412456 -0.000164988 0)
(0.41244 -0.000452832 0)
(0.412407 -0.000693427 0)
(0.412359 -0.000891059 0)
(0.412299 -0.00105316 0)
(0.412231 -0.00118906 0)
(0.412153 -0.00130936 0)
(0.412065 -0.00142538 0)
(0.411966 -0.00154841 0)
(0.411854 -0.00168875 0)
(0.411726 -0.00185617 0)
(0.411577 -0.00206154 0)
(0.411402 -0.00231713 0)
(0.411194 -0.00263551 0)
(0.410941 -0.00302808 0)
(0.410633 -0.00350431 0)
(0.410253 -0.00407135 0)
(0.409783 -0.00473376 0)
(0.4092 -0.00549322 0)
(0.408474 -0.006348 0)
(0.407569 -0.00729241 0)
(0.406437 -0.00831598 0)
(0.405016 -0.00940213 0)
(0.403223 -0.0105265 0)
(0.400948 -0.0116539 0)
(0.398032 -0.0127345 0)
(0.394281 -0.0136973 0)
(0.389314 -0.0144335 0)
(0.382945 -0.0148157 0)
(0.373608 -0.0144797 0)
(0.412456 -0.000156934 0)
(0.412437 -0.000430931 0)
(0.412396 -0.000659836 0)
(0.412339 -0.000847392 0)
(0.412268 -0.00100066 0)
(0.412186 -0.00112866 0)
(0.412093 -0.00124142 0)
(0.411988 -0.00134946 0)
(0.411872 -0.00146313 0)
(0.411742 -0.00159196 0)
(0.411594 -0.00174509 0)
(0.411425 -0.00193249 0)
(0.411227 -0.00216514 0)
(0.410995 -0.00245392 0)
(0.410716 -0.00280845 0)
(0.41038 -0.00323621 0)
(0.40997 -0.00374209 0)
(0.409467 -0.00432785 0)
(0.40885 -0.00499151 0)
(0.408091 -0.00572659 0)
(0.407156 -0.006521 0)
(0.406 -0.00735547 0)
(0.404568 -0.00820126 0)
(0.402787 -0.00901685 0)
(0.400559 -0.00974257 0)
(0.397746 -0.0102934 0)
(0.394181 -0.0105476 0)
(0.389549 -0.0103128 0)
(0.383665 -0.00938241 0)
(0.375344 -0.00700468 0)
(0.412455 -0.000147559 0)
(0.412433 -0.000405434 0)
(0.412387 -0.000620672 0)
(0.412322 -0.000796388 0)
(0.412241 -0.000939285 0)
(0.412146 -0.00105813 0)
(0.41204 -0.00116237 0)
(0.411921 -0.00126155 0)
(0.411789 -0.0013651 0)
(0.411642 -0.00148177 0)
(0.411477 -0.00161997 0)
(0.41129 -0.00178859 0)
(0.411074 -0.00199724 0)
(0.410821 -0.00225524 0)
(0.410522 -0.00257047 0)
(0.410164 -0.0029486 0)
(0.409731 -0.00339244 0)
(0.409207 -0.00390129 0)
(0.40857 -0.00447006 0)
(0.407795 -0.0050883 0)
(0.406853 -0.00573864 0)
(0.405704 -0.0063947 0)
(0.404304 -0.00701786 0)
(0.40259 -0.00755279 0)
(0.400486 -0.00792049 0)
(0.397886 -0.00800746 0)
(0.394656 -0.0076527 0)
(0.390583 -0.00660252 0)
(0.385486 -0.00458916 0)
(0.378671 -0.000615089 0)
(0.412455 -0.000137119 0)
(0.412431 -0.000377037 0)
(0.41238 -0.000576891 0)
(0.412308 -0.000739037 0)
(0.412219 -0.000869996 0)
(0.412114 -0.000978432 0)
(0.411995 -0.0010732 0)
(0.411863 -0.00116291 0)
(0.411717 -0.00125591 0)
(0.411556 -0.00136003 0)
(0.411376 -0.00148288 0)
(0.411173 -0.00163243 0)
(0.410942 -0.0018169 0)
(0.410673 -0.002044 0)
(0.410358 -0.00231993 0)
(0.409984 -0.0026487 0)
(0.409537 -0.00303138 0)
(0.409 -0.00346526 0)
(0.408355 -0.00394291 0)
(0.40758 -0.00445092 0)
(0.40665 -0.00496811 0)
(0.405535 -0.005463 0)
(0.404199 -0.0058901 0)
(0.402599 -0.00618476 0)
(0.40068 -0.00625474 0)
(0.398375 -0.00596835 0)
(0.395592 -0.00513969 0)
(0.392232 -0.00347366 0)
(0.388114 -0.000687983 0)
(0.383136 0.0043355 0)
(0.412454 -0.000125977 0)
(0.412429 -0.000346636 0)
(0.412376 -0.000529554 0)
(0.412299 -0.000676489 0)
(0.412203 -0.000794128 0)
(0.412088 -0.000891086 0)
(0.411959 -0.00097545 0)
(0.411815 -0.00105471 0)
(0.411658 -0.00113627 0)
(0.411484 -0.00122718 0)
(0.411292 -0.00133413 0)
(0.411076 -0.00146391 0)
(0.410832 -0.00162345 0)
(0.410551 -0.00181906 0)
(0.410224 -0.0020555 0)
(0.409839 -0.00233532 0)
(0.409383 -0.00265816 0)
(0.408842 -0.0030198 0)
(0.408199 -0.0034112 0)
(0.407436 -0.00381718 0)
(0.406534 -0.00421447 0)
(0.405471 -0.0045689 0)
(0.404224 -0.00483162 0)
(0.402769 -0.00493345 0)
(0.401076 -0.00477622 0)
(0.399118 -0.00422187 0)
(0.396853 -0.00307197 0)
(0.394287 -0.00102783 0)
(0.391255 0.00220952 0)
(0.388227 0.00773301 0)
(0.412454 -0.000114704 0)
(0.412429 -0.000315605 0)
(0.412376 -0.000479905 0)
(0.412296 -0.000609439 0)
(0.412194 -0.000712251 0)
(0.412072 -0.000797166 0)
(0.411934 -0.000871226 0)
(0.411781 -0.000940551 0)
(0.411613 -0.00101133 0)
(0.411429 -0.00108974 0)
(0.411226 -0.0011817 0)
(0.411001 -0.00129292 0)
(0.410746 -0.00142895 0)
(0.410456 -0.00159462 0)
(0.410121 -0.00179333 0)
(0.40973 -0.00202644 0)
(0.409271 -0.00229261 0)
(0.408731 -0.00258691 0)
(0.408097 -0.00289962 0)
(0.407354 -0.00321491 0)
(0.40649 -0.00350903 0)
(0.405491 -0.0037476 0)
(0.404348 -0.00388187 0)
(0.403054 -0.00384352 0)
(0.401604 -0.00353642 0)
(0.400015 -0.00282548 0)
(0.398286 -0.00151794 0)
(0.39653 0.000663638 0)
(0.394603 0.00403953 0)
(0.393441 0.00951693 0)
(0.412455 -0.000104155 0)
(0.412432 -0.000286117 0)
(0.412382 -0.000430566 0)
(0.412302 -0.000539793 0)
(0.412195 -0.00062445 0)
(0.412066 -0.000694085 0)
(0.411921 -0.000754546 0)
(0.41176 -0.000811026 0)
(0.411584 -0.000869041 0)
(0.411391 -0.000933648 0)
(0.411179 -0.00100935 0)
(0.410945 -0.00110063 0)
(0.410683 -0.00121201 0)
(0.410387 -0.00134721 0)
(0.410047 -0.00150842 0)
(0.409653 -0.001696 0)
(0.409194 -0.00190775 0)
(0.40866 -0.00213828 0)
(0.408039 -0.00237819 0)
(0.407321 -0.00261246 0)
(0.4065 -0.00281866 0)
(0.40557 -0.00296461 0)
(0.404534 -0.00300483 0)
(0.403402 -0.00287606 0)
(0.402192 -0.00249087 0)
(0.400959 -0.00172854 0)
(0.399745 -0.000418898 0)
(0.398754 0.00168821 0)
(0.39786 0.00489582 0)
(0.398347 0.00985312 0)
(0.412457 -9.5999e-05 0)
(0.41244 -0.000258976 0)
(0.412398 -0.000383189 0)
(0.412322 -0.000474878 0)
(0.412213 -0.000545314 0)
(0.412079 -0.000602994 0)
(0.411927 -0.000652981 0)
(0.41176 -0.000699251 0)
(0.411576 -0.000746079 0)
(0.411377 -0.000797947 0)
(0.411158 -0.000858878 0)
(0.410918 -0.000932314 0)
(0.410651 -0.00102144 0)
(0.41035 -0.00112859 0)
(0.410007 -0.00125461 0)
(0.409613 -0.00139929 0)
(0.409158 -0.00156069 0)
(0.408632 -0.0017338 0)
(0.408027 -0.00190983 0)
(0.407337 -0.0020754 0)
(0.406558 -0.0022109 0)
(0.405696 -0.00228848 0)
(0.404761 -0.00226957 0)
(0.403778 -0.00210148 0)
(0.402787 -0.00171137 0)
(0.401869 -0.000998692 0)
(0.401109 0.000180822 0)
(0.40078 0.00203515 0)
(0.400778 0.0048326 0)
(0.402606 0.00889471 0)
(0.412461 -9.64971e-05 0)
(0.412456 -0.000234296 0)
(0.412425 -0.000318707 0)
(0.412352 -0.000376836 0)
(0.412242 -0.000424619 0)
(0.412105 -0.000465902 0)
(0.41195 -0.000501045 0)
(0.411777 -0.000534279 0)
(0.411589 -0.000569373 0)
(0.411384 -0.000609254 0)
(0.411161 -0.000656005 0)
(0.410917 -0.000711502 0)
(0.410647 -0.000778055 0)
(0.410344 -0.0008573 0)
(0.41 -0.000949436 0)
(0.409606 -0.00105307 0)
(0.409154 -0.0011657 0)
(0.408638 -0.00128349 0)
(0.408049 -0.00139976 0)
(0.407384 -0.00150369 0)
(0.406645 -0.00157966 0)
(0.405842 -0.00160514 0)
(0.404994 -0.0015488 0)
(0.404137 -0.00137049 0)
(0.403327 -0.00102198 0)
(0.402671 -0.000448982 0)
(0.402292 0.000456775 0)
(0.402498 0.00188417 0)
(0.403196 0.00406139 0)
(0.405984 0.0069733 0)
(0.41247 -0.000125897 0)
(0.412523 -0.000269708 0)
(0.412495 -0.000335583 0)
(0.412413 -0.000367043 0)
(0.412293 -0.000390379 0)
(0.412153 -0.000410286 0)
(0.411999 -0.000428944 0)
(0.411828 -0.000447923 0)
(0.411639 -0.000468737 0)
(0.41143 -0.0004931 0)
(0.411199 -0.000523011 0)
(0.41094 -0.000559822 0)
(0.410648 -0.000604256 0)
(0.410318 -0.00065545 0)
(0.409943 -0.000713618 0)
(0.409517 -0.000779037 0)
(0.409035 -0.000849285 0)
(0.408492 -0.000919817 0)
(0.407888 -0.000985388 0)
(0.407226 -0.00103967 0)
(0.406514 -0.00107326 0)
(0.405772 -0.00107216 0)
(0.405032 -0.00101707 0)
(0.404339 -0.000878037 0)
(0.403765 -0.000614052 0)
(0.403404 -0.000182336 0)
(0.403271 0.000464853 0)
(0.403595 0.00142205 0)
(0.404814 0.00287446 0)
(0.407735 0.00446016 0)
(0.412266 -7.80544e-05 0)
(0.412099 -0.000156933 0)
(0.411804 -0.000184053 0)
(0.411423 -0.000198953 0)
(0.411011 -0.000214008 0)
(0.410585 -0.000227965 0)
(0.410142 -0.000239636 0)
(0.40968 -0.000249763 0)
(0.409198 -0.000259393 0)
(0.408696 -0.000269317 0)
(0.408169 -0.000280015 0)
(0.407613 -0.000291904 0)
(0.407022 -0.000305683 0)
(0.406388 -0.00032245 0)
(0.405705 -0.000342832 0)
(0.404966 -0.000366009 0)
(0.404165 -0.000390907 0)
(0.4033 -0.000417004 0)
(0.402371 -0.000442901 0)
(0.401385 -0.000465239 0)
(0.400356 -0.000479855 0)
(0.39931 -0.000479868 0)
(0.398289 -0.000455059 0)
(0.397357 -0.000399693 0)
(0.396609 -0.00030094 0)
(0.396184 -0.000113185 0)
(0.396299 0.000179567 0)
(0.39721 0.000556352 0)
(0.399206 0.0011216 0)
(0.403499 0.00155626 0)
(0.461288 -0.0052018 -9.13867e-20)
(0.465007 -0.00784485 -9.08344e-20)
(0.468056 -0.0109464 -1.29353e-18)
(0.470325 -0.0142815 -3.72097e-19)
(0.472206 -0.0178072 3.7786e-19)
(0.473871 -0.0215192 0)
(0.475364 -0.02544 0)
(0.476737 -0.0296031 3.86005e-19)
(0.478052 -0.0340384 -3.92871e-19)
(0.479352 -0.0387712 -7.88134e-19)
(0.480654 -0.0438295 8.02793e-19)
(0.48196 -0.0492502 0)
(0.483265 -0.0550818 -8.14212e-19)
(0.484566 -0.0613866 8.30396e-19)
(0.485863 -0.0682423 0)
(0.487159 -0.075744 1.67681e-18)
(0.488457 -0.084008 8.49644e-19)
(0.489757 -0.0931775 8.40629e-19)
(0.491053 -0.10343 8.6468e-19)
(0.492334 -0.114989 8.49022e-19)
(0.493579 -0.128138 -8.74128e-19)
(0.494755 -0.143237 2.63684e-18)
(0.495794 -0.160765 0)
(0.496642 -0.181318 -1.71889e-18)
(0.497015 -0.205797 8.45267e-19)
(0.497038 -0.235105 -1.68253e-18)
(0.49534 -0.271173 -2.37585e-18)
(0.492891 -0.316649 0)
(0.48746 -0.364944 0)
(0.470665 -0.469001 -2.04739e-19)
(0.465107 -0.0113722 -1.49926e-18)
(0.467145 -0.0140944 0)
(0.468689 -0.0173197 0)
(0.469843 -0.0207657 -1.54009e-18)
(0.470891 -0.0243814 1.55684e-18)
(0.47195 -0.0281946 1.5742e-18)
(0.473018 -0.0322397 -3.94769e-19)
(0.474088 -0.0365395 4.01897e-19)
(0.475165 -0.0411101 1.22788e-18)
(0.476243 -0.0459729 2.06475e-18)
(0.477301 -0.0511608 -8.28446e-19)
(0.478323 -0.0567196 1.70356e-18)
(0.479297 -0.0627066 8.56149e-19)
(0.480218 -0.0691898 8.84762e-19)
(0.481084 -0.0762499 8.79974e-19)
(0.481887 -0.083983 1.79797e-18)
(0.482619 -0.092505 0)
(0.483258 -0.101958 -9.08609e-19)
(0.483777 -0.112517 -9.48376e-19)
(0.484135 -0.124402 0)
(0.484274 -0.137885 9.40093e-19)
(0.484115 -0.153315 9.89604e-19)
(0.483526 -0.171143 -1.97431e-18)
(0.48237 -0.191922 0)
(0.480256 -0.216483 9.48845e-19)
(0.477185 -0.245585 1.01647e-18)
(0.471438 -0.281197 -1.96971e-18)
(0.464625 -0.324176 8.54622e-19)
(0.451859 -0.373593 -8.91539e-19)
(0.429658 -0.465938 3.27369e-19)
(0.463725 -0.0172242 1.52701e-18)
(0.46495 -0.0199143 0)
(0.465958 -0.0231355 -1.946e-19)
(0.466937 -0.0266161 3.35876e-18)
(0.467946 -0.0302876 -1.19294e-18)
(0.468969 -0.034161 -2.41823e-18)
(0.469963 -0.0382579 2.05909e-18)
(0.470904 -0.0425953 -4.13705e-19)
(0.471783 -0.0471963 -1.2498e-18)
(0.472592 -0.0520953 -3.9936e-19)
(0.473324 -0.0573368 4.3385e-19)
(0.473974 -0.0629723 -2.61902e-18)
(0.474538 -0.0690591 1.78431e-18)
(0.475012 -0.0756629 -2.70494e-18)
(0.475383 -0.0828614 0)
(0.475631 -0.0907482 -1.85283e-18)
(0.475727 -0.0994372 0)
(0.475635 -0.109068 0)
(0.475304 -0.11981 1.94345e-18)
(0.474667 -0.131876 0)
(0.473632 -0.145526 0)
(0.472077 -0.161088 -2.03326e-18)
(0.469817 -0.178981 2.05983e-18)
(0.466635 -0.199716 0)
(0.46206 -0.224037 0)
(0.455959 -0.25261 -2.10385e-18)
(0.446427 -0.287263 8.66614e-19)
(0.43537 -0.327931 -5.90211e-19)
(0.415436 -0.377414 -5.48885e-19)
(0.388679 -0.458346 0)
(0.462047 -0.0233654 -4.89078e-20)
(0.462961 -0.0261416 -4.93104e-20)
(0.463697 -0.0294045 1.51809e-18)
(0.464509 -0.0329043 -3.26005e-18)
(0.465335 -0.0365841 2.06885e-19)
(0.466093 -0.0404621 4.1758e-19)
(0.466762 -0.0445686 -4.01097e-19)
(0.467349 -0.0489306 0)
(0.467858 -0.0535777 2.20295e-18)
(0.468286 -0.0585454 -4.00597e-18)
(0.468624 -0.063875 1.82727e-18)
(0.468861 -0.0696122 9.18245e-19)
(0.468983 -0.0758102 -2.83386e-18)
(0.468968 -0.0825324 0)
(0.46879 -0.0898558 0)
(0.468415 -0.0978728 2.0125e-18)
(0.467801 -0.106695 2.05619e-18)
(0.466894 -0.116457 1.03124e-18)
(0.465624 -0.127321 -5.24419e-21)
(0.463898 -0.139484 -1.08292e-18)
(0.461592 -0.153191 0)
(0.458542 -0.168741 0)
(0.454513 -0.186512 -1.22718e-18)
(0.449223 -0.20696 -3.6402e-18)
(0.442136 -0.230733 0)
(0.432998 -0.258384 -1.35865e-18)
(0.419791 -0.291539 2.40676e-18)
(0.40462 -0.329601 -4.69457e-18)
(0.377884 -0.37727 6.72304e-19)
(0.348131 -0.446696 0)
(0.459629 -0.029405 0)
(0.460217 -0.0321982 1.64765e-18)
(0.460611 -0.0354479 -1.4454e-18)
(0.461143 -0.0389397 1.46508e-18)
(0.461697 -0.0426312 2.13558e-19)
(0.462151 -0.0465398 -2.17652e-19)
(0.462497 -0.050692 -1.75319e-18)
(0.462756 -0.0551109 0)
(0.462927 -0.059822 3.47823e-20)
(0.462993 -0.0648572 1.84439e-18)
(0.462935 -0.0702555 -2.35194e-18)
(0.462732 -0.0760624 2.44306e-18)
(0.462361 -0.0823318 2.44522e-18)
(0.461795 -0.0891277 -5.04833e-19)
(0.460998 -0.0965255 3.12293e-18)
(0.459927 -0.104614 -2.04666e-18)
(0.458528 -0.1135 -2.16634e-18)
(0.45673 -0.123306 -1.10929e-18)
(0.454445 -0.134185 0)
(0.451554 -0.146317 0)
(0.447904 -0.159923 0)
(0.443296 -0.175269 1.23954e-18)
(0.437455 -0.192686 3.85124e-18)
(0.430041 -0.212567 1.25445e-18)
(0.420472 -0.235457 2.74831e-18)
(0.408393 -0.261796 -1.646e-18)
(0.391753 -0.29298 3.10403e-18)
(0.372692 -0.328065 -3.07467e-19)
(0.339967 -0.372644 2.62902e-18)
(0.308442 -0.431041 4.43979e-18)
(0.456476 -0.0353068 -1.67892e-18)
(0.456749 -0.0381345 -1.68328e-18)
(0.456805 -0.0414032 -1.73755e-18)
(0.457052 -0.044918 0)
(0.457329 -0.0486394 0)
(0.457476 -0.0525802 -1.82922e-18)
(0.457485 -0.0567634 0)
(0.457382 -0.0612117 1.43096e-18)
(0.457162 -0.0659517 -3.35697e-18)
(0.456802 -0.0710165 1.98038e-18)
(0.456276 -0.0764457 1.5251e-18)
(0.455562 -0.0822847 -4.08891e-18)
(0.454632 -0.0885857 4.43966e-22)
(0.453449 -0.0954089 -1.6396e-18)
(0.451971 -0.102825 6.82389e-20)
(0.450143 -0.110916 -2.22094e-18)
(0.447896 -0.119778 -8.19128e-20)
(0.445145 -0.129526 2.4368e-18)
(0.441782 -0.140295 -1.28436e-18)
(0.437668 -0.152247 -1.27259e-18)
(0.432624 -0.165575 2.70294e-18)
(0.426423 -0.180507 0)
(0.418755 -0.197322 -2.77544e-18)
(0.409239 -0.216345 0)
(0.397267 -0.23801 -3.22681e-18)
(0.382393 -0.262651 3.16757e-18)
(0.36261 -0.2914 2.83756e-19)
(0.339973 -0.323096 3.53047e-18)
(0.302249 -0.363525 -4.72024e-18)
(0.269995 -0.411481 1.61225e-18)
(0.452509 -0.0410091 1.66166e-18)
(0.452451 -0.0438653 -5.49382e-20)
(0.452147 -0.0471424 2.11409e-18)
(0.452075 -0.050662 6.93715e-19)
(0.452037 -0.0543881 0)
(0.451838 -0.0583332 1.87641e-18)
(0.451466 -0.0625197 1.46133e-18)
(0.450956 -0.0669708 -2.44671e-18)
(0.450302 -0.0717129 9.72545e-19)
(0.449473 -0.0767779 -9.92868e-19)
(0.44844 -0.082203 -2.08681e-18)
(0.447175 -0.0880305 2.1377e-18)
(0.445642 -0.0943083 -5.73746e-19)
(0.443798 -0.101092 1.67996e-18)
(0.441591 -0.108446 -5.28748e-19)
(0.438954 -0.116445 -6.05394e-19)
(0.435809 -0.125175 3.73409e-18)
(0.432056 -0.134738 -3.86101e-18)
(0.427572 -0.145251 2.62853e-18)
(0.422202 -0.156853 7.28978e-19)
(0.415746 -0.169704 -2.11267e-18)
(0.407954 -0.183995 1.5596e-18)
(0.398494 -0.199946 0)
(0.386955 -0.217811 -8.41794e-19)
(0.37272 -0.237916 4.32329e-18)
(0.355274 -0.260489 0)
(0.332723 -0.286384 -7.02625e-18)
(0.30694 -0.314333 1.09302e-18)
(0.265348 -0.349847 0)
(0.233197 -0.388142 -5.00578e-18)
(0.447638 -0.0463676 -9.07759e-19)
(0.447231 -0.0492432 -1.14646e-19)
(0.446545 -0.0525133 -7.12721e-19)
(0.446126 -0.0560177 -1.06484e-18)
(0.445743 -0.0597256 2.43527e-19)
(0.445168 -0.0636489 -2.48815e-19)
(0.444387 -0.0678092 -1.00569e-18)
(0.443438 -0.0722282 -1.05595e-18)
(0.442316 -0.0769305 1.0531e-18)