/*--------------------------------*- C++ -*----------------------------------*\
  =========                 |
  \\      /  F ield         | OpenFOAM: The Open Source CFD Toolbox
   \\    /   O peration     | Website:  https://openfoam.org
    \\  /    A nd           | Version:  11
     \\/     M anipulation  |
\*---------------------------------------------------------------------------*/
FoamFile
{
    format      ascii;
    class       volVectorField;
    location    "4";
    object      U;
}
// * * * * * * * * * * * * * * * * * * * * * * * * * * * * * * * * * * * * * //

dimensions      [0 1 -1 0 0 0 0];

internalField   nonuniform List<vector> 
12600
(
(0.412111 0.000105836 0)
(0.411838 0.000179782 0)
(0.411421 0.000191288 0)
(0.410946 0.000194917 0)
(0.410474 0.000199646 0)
(0.410011 0.00020282 0)
(0.409552 0.000204455 0)
(0.409093 0.000205375 0)
(0.408637 0.000205818 0)
(0.408185 0.000205793 0)
(0.407738 0.000205313 0)
(0.407297 0.000204353 0)
(0.406865 0.00020278 0)
(0.406444 0.000200373 0)
(0.406036 0.000197016 0)
(0.405645 0.000192734 0)
(0.405275 0.000187246 0)
(0.404931 0.000179905 0)
(0.404617 0.000170457 0)
(0.404342 0.000159256 0)
(0.404116 0.000145556 0)
(0.403951 0.000130295 0)
(0.40386 0.000111617 0)
(0.403862 8.34311e-05 0)
(0.403983 4.09057e-05 0)
(0.404253 -1.20189e-05 0)
(0.404719 -7.41264e-05 0)
(0.405436 -0.000150295 0)
(0.406588 -0.000275053 0)
(0.407086 -0.000820501 0)
(0.412492 0.000154323 0)
(0.412639 0.00028389 0)
(0.412767 0.000266603 0)
(0.412813 0.000259148 0)
(0.412853 0.000261211 0)
(0.412901 0.000261096 0)
(0.412953 0.000258931 0)
(0.413006 0.000256049 0)
(0.413061 0.00025261 0)
(0.413119 0.000248375 0)
(0.413182 0.00024314 0)
(0.41325 0.000236725 0)
(0.413327 0.000228876 0)
(0.413413 0.000219173 0)
(0.413511 0.000206998 0)
(0.413625 0.000191801 0)
(0.413758 0.000173019 0)
(0.413914 0.000152084 0)
(0.414098 0.000126951 0)
(0.414316 9.34651e-05 0)
(0.414576 5.28998e-05 0)
(0.414888 1.9712e-06 0)
(0.415266 -6.23538e-05 0)
(0.415722 -0.000140822 0)
(0.416281 -0.000236417 0)
(0.416944 -0.000357296 0)
(0.417814 -0.000512195 0)
(0.418699 -0.000737568 0)
(0.42016 -0.00102361 0)
(0.42041 -0.00185104 0)
(0.41248 8.62034e-05 0)
(0.412553 0.000156368 0)
(0.41264 0.000162706 0)
(0.412702 0.000164217 0)
(0.412747 0.000169574 0)
(0.412794 0.000171489 0)
(0.412845 0.000169885 0)
(0.4129 0.000166917 0)
(0.412956 0.000162965 0)
(0.413016 0.00015779 0)
(0.41308 0.000151022 0)
(0.413149 0.00014239 0)
(0.413223 0.000131241 0)
(0.413306 0.000117085 0)
(0.4134 9.98441e-05 0)
(0.413507 7.78713e-05 0)
(0.413632 5.15165e-05 0)
(0.413778 1.84508e-05 0)
(0.413951 -2.48389e-05 0)
(0.414156 -7.76326e-05 0)
(0.4144 -0.00014013 0)
(0.41469 -0.000217441 0)
(0.415039 -0.000313166 0)
(0.415461 -0.000433243 0)
(0.415975 -0.000583197 0)
(0.416602 -0.000776392 0)
(0.417374 -0.00101445 0)
(0.418313 -0.00133468 0)
(0.419414 -0.00175671 0)
(0.420755 -0.00213487 0)
(0.412472 5.70506e-05 0)
(0.41252 0.000135346 0)
(0.412591 0.000166402 0)
(0.412649 0.000174799 0)
(0.412693 0.000182997 0)
(0.412738 0.000185587 0)
(0.412787 0.000183815 0)
(0.412839 0.000180044 0)
(0.412894 0.000174787 0)
(0.412953 0.000168065 0)
(0.413015 0.000159511 0)
(0.413082 0.000148532 0)
(0.413154 0.00013448 0)
(0.413236 0.000115708 0)
(0.413327 9.06918e-05 0)
(0.413432 5.98493e-05 0)
(0.413553 2.28623e-05 0)
(0.413694 -2.24188e-05 0)
(0.413862 -7.81131e-05 0)
(0.414061 -0.000146058 0)
(0.414295 -0.000230557 0)
(0.414575 -0.000334778 0)
(0.414911 -0.00046411 0)
(0.415317 -0.000626034 0)
(0.41581 -0.000828623 0)
(0.416412 -0.00108409 0)
(0.417145 -0.00140446 0)
(0.41805 -0.00180704 0)
(0.419113 -0.0023283 0)
(0.420559 -0.00271687 0)
(0.412468 4.16053e-05 0)
(0.4125 0.000106912 0)
(0.412554 0.000135207 0)
(0.412606 0.000141644 0)
(0.412649 0.000142836 0)
(0.412692 0.000141821 0)
(0.412739 0.000137511 0)
(0.41279 0.000130539 0)
(0.412844 0.000121987 0)
(0.412901 0.000112113 0)
(0.412961 0.000100134 0)
(0.413026 8.55447e-05 0)
(0.413097 6.67915e-05 0)
(0.413176 4.25886e-05 0)
(0.413265 1.18098e-05 0)
(0.413367 -2.72259e-05 0)
(0.413484 -7.40311e-05 0)
(0.413621 -0.000130832 0)
(0.413781 -0.000200247 0)
(0.413971 -0.000285644 0)
(0.414195 -0.000390948 0)
(0.414461 -0.000520662 0)
(0.414781 -0.000681575 0)
(0.415166 -0.000882426 0)
(0.415633 -0.00113355 0)
(0.416202 -0.00144859 0)
(0.416893 -0.00184411 0)
(0.417756 -0.0023305 0)
(0.418762 -0.0029572 0)
(0.420215 -0.00353745 0)
(0.412465 3.13708e-05 0)
(0.412488 8.40837e-05 0)
(0.412531 0.000112517 0)
(0.412577 0.000121846 0)
(0.412619 0.000124577 0)
(0.41266 0.000124509 0)
(0.412706 0.000120956 0)
(0.412755 0.000114388 0)
(0.412807 0.000105896 0)
(0.412863 9.57095e-05 0)
(0.412922 8.31184e-05 0)
(0.412985 6.68812e-05 0)
(0.413054 4.58004e-05 0)
(0.41313 1.89138e-05 0)
(0.413215 -1.5821e-05 0)
(0.413312 -6.03571e-05 0)
(0.413424 -0.000115825 0)
(0.413554 -0.000183504 0)
(0.413706 -0.000265967 0)
(0.413885 -0.000366838 0)
(0.414097 -0.000490695 0)
(0.414348 -0.000643439 0)
(0.414647 -0.000833048 0)
(0.415008 -0.0010697 0)
(0.415443 -0.00136583 0)
(0.415973 -0.0017366 0)
(0.416615 -0.00220179 0)
(0.417422 -0.00277288 0)
(0.418358 -0.00351233 0)
(0.419757 -0.00426463 0)
(0.412464 2.43233e-05 0)
(0.412481 6.6958e-05 0)
(0.412515 9.30288e-05 0)
(0.412556 0.000102737 0)
(0.412595 0.000104024 0)
(0.412635 0.000101244 0)
(0.412679 9.49796e-05 0)
(0.412726 8.57788e-05 0)
(0.412776 7.45449e-05 0)
(0.41283 6.14873e-05 0)
(0.412886 4.58315e-05 0)
(0.412947 2.62066e-05 0)
(0.413013 5.78702e-07 0)
(0.413086 -3.2296e-05 0)
(0.413167 -7.3771e-05 0)
(0.41326 -0.000125389 0)
(0.413366 -0.000189251 0)
(0.413488 -0.00026711 0)
(0.413631 -0.000361811 0)
(0.413798 -0.000477416 0)
(0.413995 -0.000619221 0)
(0.414227 -0.000794061 0)
(0.414504 -0.00101087 0)
(0.414835 -0.001281 0)
(0.415234 -0.00161852 0)
(0.415719 -0.00204044 0)
(0.416305 -0.00256951 0)
(0.417044 -0.00322236 0)
(0.417896 -0.0040638 0)
(0.419201 -0.00498513 0)
(0.412463 1.9164e-05 0)
(0.412476 5.34398e-05 0)
(0.412504 7.57908e-05 0)
(0.41254 8.44916e-05 0)
(0.412577 8.44029e-05 0)
(0.412616 7.98178e-05 0)
(0.412657 7.21305e-05 0)
(0.412703 6.1882e-05 0)
(0.412751 4.96753e-05 0)
(0.412803 3.55619e-05 0)
(0.412857 1.86864e-05 0)
(0.412915 -2.37073e-06 0)
(0.412978 -2.96422e-05 0)
(0.413048 -6.51885e-05 0)
(0.413125 -0.000110706 0)
(0.413211 -0.000167794 0)
(0.41331 -0.000238512 0)
(0.413424 -0.000324924 0)
(0.413556 -0.000430059 0)
(0.41371 -0.000558302 0)
(0.41389 -0.000715473 0)
(0.414102 -0.000909165 0)
(0.414353 -0.00114928 0)
(0.414652 -0.00144836 0)
(0.415011 -0.00182207 0)
(0.415445 -0.00228935 0)
(0.415966 -0.00287561 0)
(0.416626 -0.00360284 0)
(0.41738 -0.00453691 0)
(0.418563 -0.00561111 0)
(0.412463 1.51449e-05 0)
(0.412473 4.24109e-05 0)
(0.412497 6.06587e-05 0)
(0.412529 6.76112e-05 0)
(0.412564 6.6102e-05 0)
(0.4126 5.97715e-05 0)
(0.41264 5.03629e-05 0)
(0.412683 3.8529e-05 0)
(0.41273 2.47129e-05 0)
(0.412779 8.84012e-06 0)
(0.412831 -1.00796e-05 0)
(0.412886 -3.37403e-05 0)
(0.412946 -6.41137e-05 0)
(0.413011 -0.000103473 0)
(0.413083 -0.000153706 0)
(0.413164 -0.000216573 0)
(0.413255 -0.000294176 0)
(0.41336 -0.000388877 0)
(0.41348 -0.000503937 0)
(0.413619 -0.000644017 0)
(0.413781 -0.00081541 0)
(0.413971 -0.00102638 0)
(0.414193 -0.0012876 0)
(0.414457 -0.00161255 0)
(0.414771 -0.00201813 0)
(0.415149 -0.00252498 0)
(0.415601 -0.00316078 0)
(0.416171 -0.00395305 0)
(0.416813 -0.00496672 0)
(0.41785 -0.00617831 0)
(0.412462 1.18598e-05 0)
(0.412471 3.31502e-05 0)
(0.412492 4.72911e-05 0)
(0.41252 5.19849e-05 0)
(0.412553 4.88012e-05 0)
(0.412588 4.06666e-05 0)
(0.412626 2.94826e-05 0)
(0.412667 1.60936e-05 0)
(0.412711 8.69627e-07 0)
(0.412758 -1.63941e-05 0)
(0.412807 -3.67827e-05 0)
(0.41286 -6.21675e-05 0)
(0.412916 -9.46978e-05 0)
(0.412977 -0.000136744 0)
(0.413043 -0.000190417 0)
(0.413118 -0.000257661 0)
(0.413201 -0.000340649 0)
(0.413295 -0.000441925 0)
(0.413403 -0.000564926 0)
(0.413527 -0.000714539 0)
(0.413669 -0.000897415 0)
(0.413834 -0.00112231 0)
(0.414027 -0.00140053 0)
(0.414253 -0.00174633 0)
(0.41452 -0.00217765 0)
(0.414838 -0.00271664 0)
(0.415213 -0.00339278 0)
(0.415686 -0.00423842 0)
(0.416205 -0.00531694 0)
(0.417073 -0.00664346 0)
(0.412462 9.06572e-06 0)
(0.41247 2.51391e-05 0)
(0.412488 3.53118e-05 0)
(0.412514 3.74559e-05 0)
(0.412544 3.24062e-05 0)
(0.412578 2.24971e-05 0)
(0.412614 9.62926e-06 0)
(0.412653 -5.22068e-06 0)
(0.412695 -2.17329e-05 0)
(0.41274 -4.02608e-05 0)
(0.412786 -6.20221e-05 0)
(0.412835 -8.90031e-05 0)
(0.412888 -0.000123547 0)
(0.412944 -0.00016812 0)
(0.413005 -0.000224987 0)
(0.413072 -0.000296217 0)
(0.413147 -0.000384034 0)
(0.41323 -0.000491096 0)
(0.413325 -0.000620989 0)
(0.413432 -0.000778765 0)
(0.413554 -0.000971336 0)
(0.413694 -0.00120783 0)
(0.413855 -0.00149998 0)
(0.414041 -0.0018626 0)
(0.414258 -0.00231432 0)
(0.414512 -0.0028783 0)
(0.414807 -0.00358527 0)
(0.415176 -0.00447153 0)
(0.415563 -0.0055979 0)
(0.416244 -0.00701539 0)
(0.412462 6.60586e-06 0)
(0.412469 1.80044e-05 0)
(0.412486 2.43805e-05 0)
(0.412509 2.38433e-05 0)
(0.412538 1.68253e-05 0)
(0.41257 5.19792e-06 0)
(0.412605 -9.23937e-06 0)
(0.412642 -2.54478e-05 0)
(0.412682 -4.31396e-05 0)
(0.412723 -6.27876e-05 0)
(0.412767 -8.57237e-05 0)
(0.412813 -0.000114034 0)
(0.412861 -0.000150193 0)
(0.412913 -0.000196755 0)
(0.412968 -0.000256092 0)
(0.413028 -0.000330371 0)
(0.413093 -0.000421863 0)
(0.413166 -0.000533302 0)
(0.413246 -0.000668366 0)
(0.413336 -0.000832219 0)
(0.413437 -0.00103193 0)
(0.41355 -0.00127684 0)
(0.413678 -0.00157893 0)
(0.413824 -0.00195332 0)
(0.413989 -0.00241898 0)
(0.414178 -0.00299968 0)
(0.414389 -0.00372672 0)
(0.414648 -0.00463922 0)
(0.4149 -0.00579472 0)
(0.415378 -0.00727453 0)
(0.412462 4.36642e-06 0)
(0.412468 1.14832e-05 0)
(0.412484 1.42582e-05 0)
(0.412506 1.10188e-05 0)
(0.412533 1.99082e-06 0)
(0.412564 -1.12937e-05 0)
(0.412597 -2.71818e-05 0)
(0.412632 -4.46215e-05 0)
(0.41267 -6.33441e-05 0)
(0.412709 -8.39199e-05 0)
(0.41275 -0.000107791 0)
(0.412792 -0.000137136 0)
(0.412836 -0.000174525 0)
(0.412883 -0.000222588 0)
(0.412932 -0.000283773 0)
(0.412984 -0.000360316 0)
(0.413041 -0.000454523 0)
(0.413101 -0.000569156 0)
(0.413168 -0.000707937 0)
(0.41324 -0.000876069 0)
(0.413319 -0.00108068 0)
(0.413405 -0.00133117 0)
(0.4135 -0.0016396 0)
(0.413604 -0.00202109 0)
(0.413716 -0.00249463 0)
(0.413839 -0.00308403 0)
(0.413966 -0.0038204 0)
(0.414113 -0.00474435 0)
(0.414225 -0.00590924 0)
(0.41449 -0.00742032 0)
(0.412461 2.26487e-06 0)
(0.412468 5.35549e-06 0)
(0.412483 4.6784e-06 0)
(0.412504 -1.21311e-06 0)
(0.41253 -1.21934e-05 0)
(0.412559 -2.70247e-05 0)
(0.412591 -4.42239e-05 0)
(0.412624 -6.27472e-05 0)
(0.41266 -8.23384e-05 0)
(0.412696 -0.000103648 0)
(0.412734 -0.000128216 0)
(0.412773 -0.000158295 0)
(0.412813 -0.000196522 0)
(0.412854 -0.000245576 0)
(0.412897 -0.000307949 0)
(0.412942 -0.000385916 0)
(0.412989 -0.000481792 0)
(0.413038 -0.000598333 0)
(0.41309 -0.000739248 0)
(0.413144 -0.000909712 0)
(0.413201 -0.00111681 0)
(0.413261 -0.00136986 0)
(0.413322 -0.00168078 0)
(0.413384 -0.00206448 0)
(0.413444 -0.00253955 0)
(0.4135 -0.00312928 0)
(0.413543 -0.00386388 0)
(0.413578 -0.00478394 0)
(0.413552 -0.00593778 0)
(0.4136 -0.00744653 0)
(0.412461 2.49067e-07 0)
(0.412468 -5.28614e-07 0)
(0.412482 -4.51936e-06 0)
(0.412503 -1.29743e-05 0)
(0.412528 -2.58565e-05 0)
(0.412556 -4.21315e-05 0)
(0.412586 -6.04655e-05 0)
(0.412618 -7.98725e-05 0)
(0.412651 -0.000100134 0)
(0.412686 -0.000121967 0)
(0.41272 -0.000146982 0)
(0.412756 -0.000177483 0)
(0.412792 -0.000216141 0)
(0.412828 -0.000265662 0)
(0.412864 -0.000328555 0)
(0.412901 -0.000407107 0)
(0.412939 -0.000503613 0)
(0.412976 -0.00062079 0)
(0.413013 -0.000762288 0)
(0.41305 -0.000933186 0)
(0.413085 -0.00114043 0)
(0.413117 -0.00139313 0)
(0.413145 -0.00170288 0)
(0.413166 -0.00208408 0)
(0.413175 -0.0025546 0)
(0.413166 -0.00313667 0)
(0.413126 -0.00385878 0)
(0.413053 -0.00476 0)
(0.412893 -0.00588268 0)
(0.412728 -0.00735487 0)
(0.412461 -1.85522e-06 0)
(0.412468 -6.25475e-06 0)
(0.412482 -1.345e-05 0)
(0.412502 -2.44621e-05 0)
(0.412527 -3.91446e-05 0)
(0.412554 -5.66787e-05 0)
(0.412583 -7.59422e-05 0)
(0.412614 -9.60323e-05 0)
(0.412645 -0.000116763 0)
(0.412676 -0.000138896 0)
(0.412708 -0.000164096 0)
(0.41274 -0.000194694 0)
(0.412772 -0.000233373 0)
(0.412803 -0.000282836 0)
(0.412833 -0.000345584 0)
(0.412863 -0.000423886 0)
(0.412891 -0.000519992 0)
(0.412916 -0.000636546 0)
(0.412939 -0.000777092 0)
(0.412958 -0.000946556 0)
(0.412971 -0.00115165 0)
(0.412978 -0.00140115 0)
(0.412973 -0.00170616 0)
(0.412953 -0.00208033 0)
(0.412912 -0.00254048 0)
(0.412841 -0.00310724 0)
(0.412724 -0.00380666 0)
(0.412547 -0.0046748 0)
(0.412262 -0.00574725 0)
(0.411893 -0.00714942 0)
(0.412461 -3.85526e-06 0)
(0.412468 -1.2e-05 0)
(0.412482 -2.24834e-05 0)
(0.412503 -3.58844e-05 0)
(0.412527 -5.21637e-05 0)
(0.412554 -7.07607e-05 0)
(0.412582 -9.07431e-05 0)
(0.412611 -0.000111291 0)
(0.41264 -0.000132257 0)
(0.412669 -0.000154447 0)
(0.412698 -0.000179563 0)
(0.412727 -0.000209943 0)
(0.412754 -0.000248244 0)
(0.41278 -0.000297138 0)
(0.412805 -0.000359087 0)
(0.412826 -0.000436312 0)
(0.412845 -0.000530995 0)
(0.412859 -0.000645684 0)
(0.412868 -0.00078378 0)
(0.412869 -0.000949998 0)
(0.412862 -0.00115074 0)
(0.412842 -0.00139434 0)
(0.412806 -0.00169124 0)
(0.412749 -0.00205417 0)
(0.41266 -0.00249854 0)
(0.41253 -0.003043 0)
(0.41234 -0.00371051 0)
(0.412069 -0.00453275 0)
(0.411669 -0.00553794 0)
(0.411116 -0.0068395 0)
(0.412462 -5.89454e-06 0)
(0.412468 -1.79916e-05 0)
(0.412483 -3.16872e-05 0)
(0.412504 -4.73531e-05 0)
(0.412529 -6.50435e-05 0)
(0.412555 -8.44752e-05 0)
(0.412582 -0.000104942 0)
(0.41261 -0.000125712 0)
(0.412637 -0.000146673 0)
(0.412664 -0.000168673 0)
(0.412691 -0.000193436 0)
(0.412716 -0.000223277 0)
(0.412739 -0.0002608 0)
(0.41276 -0.000308615 0)
(0.412779 -0.00036912 0)
(0.412793 -0.000444464 0)
(0.412802 -0.000536739 0)
(0.412805 -0.000648368 0)
(0.4128 -0.000782576 0)
(0.412785 -0.00094382 0)
(0.412758 -0.00113812 0)
(0.412714 -0.00137328 0)
(0.412648 -0.00165895 0)
(0.412554 -0.00200676 0)
(0.412421 -0.00243049 0)
(0.412237 -0.00294645 0)
(0.411981 -0.00357402 0)
(0.411625 -0.00433939 0)
(0.411126 -0.00526312 0)
(0.410414 -0.00643825 0)
(0.412462 -8.0685e-06 0)
(0.412469 -2.43126e-05 0)
(0.412485 -4.1289e-05 0)
(0.412507 -5.90748e-05 0)
(0.412532 -7.79122e-05 0)
(0.412558 -9.792e-05 0)
(0.412585 -0.00011863 0)
(0.412611 -0.000139372 0)
(0.412637 -0.000160072 0)
(0.412662 -0.000181628 0)
(0.412685 -0.000205769 0)
(0.412707 -0.000234756 0)
(0.412727 -0.000271111 0)
(0.412743 -0.000317348 0)
(0.412756 -0.00037578 0)
(0.412763 -0.000448464 0)
(0.412763 -0.000537382 0)
(0.412756 -0.000644817 0)
(0.412738 -0.000773788 0)
(0.412707 -0.000928455 0)
(0.41266 -0.0011144 0)
(0.412592 -0.00133881 0)
(0.412499 -0.00161046 0)
(0.412371 -0.00193974 0)
(0.412199 -0.00233866 0)
(0.411965 -0.00282091 0)
(0.411651 -0.00340204 0)
(0.411221 -0.00410196 0)
(0.410641 -0.00493362 0)
(0.409801 -0.00596317 0)
(0.412462 -1.04447e-05 0)
(0.41247 -3.11942e-05 0)
(0.412487 -5.15298e-05 0)
(0.412511 -7.1219e-05 0)
(0.412537 -9.08933e-05 0)
(0.412563 -0.000111204 0)
(0.412589 -0.000131903 0)
(0.412614 -0.000152349 0)
(0.412639 -0.000172523 0)
(0.412661 -0.000193382 0)
(0.412682 -0.000216642 0)
(0.412701 -0.000244476 0)
(0.412717 -0.000279288 0)
(0.412729 -0.000323472 0)
(0.412736 -0.000379226 0)
(0.412736 -0.000448492 0)
(0.412729 -0.000533124 0)
(0.412711 -0.000635243 0)
(0.41268 -0.000757647 0)
(0.412634 -0.000904165 0)
(0.41257 -0.00107991 0)
(0.412481 -0.00129138 0)
(0.412361 -0.00154644 0)
(0.412203 -0.00185414 0)
(0.411994 -0.00222462 0)
(0.411718 -0.00266891 0)
(0.411353 -0.0031986 0)
(0.410863 -0.00382701 0)
(0.410218 -0.00456002 0)
(0.409285 -0.00543269 0)
(0.412462 -1.31365e-05 0)
(0.412471 -3.89095e-05 0)
(0.412491 -6.26858e-05 0)
(0.412516 -8.3967e-05 0)
(0.412544 -0.00010411 0)
(0.41257 -0.000124444 0)
(0.412596 -0.000144871 0)
(0.41262 -0.000164734 0)
(0.412643 -0.000184095 0)
(0.412664 -0.000203989 0)
(0.412683 -0.000226099 0)
(0.412699 -0.000252484 0)
(0.412711 -0.000285407 0)
(0.412719 -0.00032712 0)
(0.412721 -0.000379688 0)
(0.412715 -0.000444926 0)
(0.412699 -0.000524538 0)
(0.412672 -0.00062047 0)
(0.41263 -0.00073528 0)
(0.41257 -0.000872437 0)
(0.412488 -0.00103654 0)
(0.412379 -0.00123339 0)
(0.412237 -0.00146986 0)
(0.412051 -0.00175366 0)
(0.41181 -0.00209305 0)
(0.411496 -0.00249638 0)
(0.41109 -0.00297147 0)
(0.410552 -0.00352513 0)
(0.409861 -0.00415722 0)
(0.408871 -0.00487045 0)
(0.412462 -1.63118e-05 0)
(0.412473 -4.78147e-05 0)
(0.412496 -7.50886e-05 0)
(0.412524 -9.75019e-05 0)
(0.412553 -0.00011767 0)
(0.41258 -0.000137741 0)
(0.412605 -0.000157641 0)
(0.412629 -0.000176654 0)
(0.412651 -0.000194947 0)
(0.41267 -0.000213625 0)
(0.412687 -0.000234297 0)
(0.4127 -0.00025887 0)
(0.412709 -0.000289443 0)
(0.412713 -0.000328086 0)
(0.41271 -0.000376714 0)
(0.412698 -0.000437019 0)
(0.412675 -0.000510544 0)
(0.412639 -0.000599055 0)
(0.412586 -0.000704871 0)
(0.412513 -0.000831102 0)
(0.412416 -0.000981824 0)
(0.41229 -0.00116213 0)
(0.412126 -0.00137792 0)
(0.411916 -0.00163556 0)
(0.411647 -0.00194152 0)
(0.411302 -0.00230163 0)
(0.410863 -0.00272028 0)
(0.41029 -0.00319835 0)
(0.409569 -0.00373122 0)
(0.408556 -0.00429112 0)
(0.412463 -2.02332e-05 0)
(0.412476 -5.84406e-05 0)
(0.412503 -8.91142e-05 0)
(0.412535 -0.000112011 0)
(0.412566 -0.00013171 0)
(0.412593 -0.000151168 0)
(0.412618 -0.000170165 0)
(0.412642 -0.000188 0)
(0.412663 -0.000205051 0)
(0.41268 -0.000222478 0)
(0.412695 -0.000241758 0)
(0.412706 -0.000264599 0)
(0.412712 -0.000292901 0)
(0.412712 -0.000328568 0)
(0.412705 -0.000373315 0)
(0.412688 -0.000428627 0)
(0.412658 -0.000495908 0)
(0.412614 -0.000576742 0)
(0.412551 -0.000673176 0)
(0.412467 -0.000787929 0)
(0.412356 -0.000924533 0)
(0.412214 -0.00108738 0)
(0.412031 -0.00128143 0)
(0.4118 -0.00151176 0)
(0.411508 -0.00178314 0)
(0.411138 -0.00209913 0)
(0.410673 -0.00246121 0)
(0.410077 -0.00286518 0)
(0.409341 -0.0033041 0)
(0.408333 -0.00372422 0)
(0.412464 -2.53071e-05 0)
(0.412481 -7.15385e-05 0)
(0.412513 -0.000105102 0)
(0.41255 -0.000127622 0)
(0.412583 -0.000146576 0)
(0.412611 -0.000165238 0)
(0.412636 -0.000182816 0)
(0.412659 -0.000198695 0)
(0.412679 -0.000213611 0)
(0.412695 -0.000228825 0)
(0.412708 -0.000245685 0)
(0.412717 -0.000265688 0)
(0.41272 -0.000290521 0)
(0.412717 -0.000321913 0)
(0.412706 -0.000361381 0)
(0.412684 -0.000410216 0)
(0.412648 -0.000469694 0)
(0.412597 -0.000541226 0)
(0.412526 -0.000626611 0)
(0.412431 -0.000728188 0)
(0.412308 -0.000848955 0)
(0.412152 -0.000992659 0)
(0.411953 -0.00116335 0)
(0.411704 -0.00136489 0)
(0.411393 -0.00160056 0)
(0.411003 -0.00187189 0)
(0.410519 -0.00217812 0)
(0.409909 -0.00251099 0)
(0.40917 -0.00286381 0)
(0.408189 -0.00316371 0)
(0.412465 -3.2257e-05 0)
(0.412488 -8.8238e-05 0)
(0.412529 -0.000123234 0)
(0.412571 -0.000143851 0)
(0.412605 -0.000161834 0)
(0.412634 -0.000180226 0)
(0.41266 -0.000197304 0)
(0.412683 -0.000212475 0)
(0.412702 -0.000226672 0)
(0.412717 -0.000241095 0)
(0.412729 -0.000256907 0)
(0.412735 -0.000275379 0)
(0.412737 -0.000297979 0)
(0.412731 -0.00032619 0)
(0.412716 -0.000361319 0)
(0.41269 -0.00040449 0)
(0.412649 -0.000456798 0)
(0.412591 -0.000519457 0)
(0.412512 -0.000594035 0)
(0.412409 -0.000682463 0)
(0.412276 -0.000787203 0)
(0.412107 -0.000911415 0)
(0.411895 -0.00105829 0)
(0.411631 -0.0012306 0)
(0.411304 -0.00143038 0)
(0.4109 -0.00165749 0)
(0.410403 -0.00190958 0)
(0.409787 -0.00217517 0)
(0.409052 -0.00245107 0)
(0.408109 -0.0026519 0)
(0.412468 -4.24018e-05 0)
(0.4125 -0.000110535 0)
(0.412552 -0.000144841 0)
(0.4126 -0.000160964 0)
(0.412635 -0.000175019 0)
(0.412664 -0.000189346 0)
(0.41269 -0.000202042 0)
(0.412713 -0.000213118 0)
(0.412732 -0.000223665 0)
(0.412746 -0.000234664 0)
(0.412756 -0.000247066 0)
(0.412761 -0.000261868 0)
(0.412761 -0.000280234 0)
(0.412752 -0.000303363 0)
(0.412735 -0.000332335 0)
(0.412705 -0.000368069 0)
(0.41266 -0.000411492 0)
(0.412596 -0.000463639 0)
(0.412511 -0.00052591 0)
(0.4124 -0.000599759 0)
(0.412259 -0.000687193 0)
(0.41208 -0.000791012 0)
(0.411857 -0.000913474 0)
(0.411581 -0.00105626 0)
(0.411243 -0.00122036 0)
(0.410827 -0.00140417 0)
(0.410324 -0.00160438 0)
(0.409706 -0.00180616 0)
(0.408982 -0.00201633 0)
(0.408072 -0.00213853 0)
(0.412472 -5.76268e-05 0)
(0.41252 -0.00013883 0)
(0.412588 -0.000173036 0)
(0.412642 -0.000190942 0)
(0.412679 -0.000208088 0)
(0.412708 -0.000223529 0)
(0.412736 -0.000235814 0)
(0.412759 -0.00024616 0)
(0.412777 -0.000255966 0)
(0.41279 -0.000265983 0)
(0.412799 -0.000276843 0)
(0.412803 -0.000289469 0)
(0.4128 -0.000304856 0)
(0.41279 -0.00032393 0)
(0.41277 -0.00034759 0)
(0.412737 -0.00037657 0)
(0.412689 -0.000411607 0)
(0.412621 -0.000453475 0)
(0.41253 -0.000503586 0)
(0.412413 -0.000562797 0)
(0.412264 -0.000632109 0)
(0.412077 -0.000714288 0)
(0.411846 -0.000811305 0)
(0.411562 -0.000923964 0)
(0.411215 -0.00105244 0)
(0.410794 -0.00119402 0)
(0.410289 -0.00134463 0)
(0.409673 -0.00148418 0)
(0.408963 -0.00163067 0)
(0.408067 -0.00169167 0)
(0.41248 -8.66877e-05 0)
(0.412552 -0.000158159 0)
(0.412637 -0.000169702 0)
(0.412695 -0.000178029 0)
(0.412733 -0.000190003 0)
(0.412764 -0.00020063 0)
(0.412793 -0.00020879 0)
(0.412817 -0.000215814 0)
(0.412835 -0.000222555 0)
(0.412847 -0.000229796 0)
(0.412855 -0.000238418 0)
(0.412858 -0.00024844 0)
(0.412855 -0.00026049 0)
(0.412844 -0.000275172 0)
(0.412822 -0.000292987 0)
(0.412787 -0.000314539 0)
(0.412735 -0.000340522 0)
(0.412664 -0.00037173 0)
(0.41257 -0.000408859 0)
(0.412448 -0.000453384 0)
(0.412294 -0.00050682 0)
(0.412101 -0.000569404 0)
(0.411863 -0.00064196 0)
(0.411572 -0.000725548 0)
(0.411219 -0.000819953 0)
(0.410794 -0.000922117 0)
(0.410292 -0.0010273 0)
(0.40968 -0.00110908 0)
(0.408994 -0.00119052 0)
(0.408019 -0.00110059 0)
(0.412491 -0.000154485 0)
(0.412641 -0.000286969 0)
(0.412765 -0.000271222 0)
(0.412802 -0.000267634 0)
(0.412829 -0.000273917 0)
(0.412857 -0.000279621 0)
(0.412882 -0.000283226 0)
(0.4129 -0.000286322 0)
(0.412913 -0.000289696 0)
(0.41292 -0.00029352 0)
(0.412921 -0.000298002 0)
(0.412915 -0.000303554 0)
(0.412901 -0.00031049 0)
(0.412877 -0.00031914 0)
(0.41284 -0.000330193 0)
(0.412788 -0.000343577 0)
(0.412718 -0.000359862 0)
(0.412627 -0.000378705 0)
(0.41251 -0.000403835 0)
(0.412361 -0.000431095 0)
(0.412177 -0.000460565 0)
(0.41195 -0.000499759 0)
(0.411672 -0.00054682 0)
(0.411337 -0.000600389 0)
(0.410935 -0.0006605 0)
(0.41046 -0.000724873 0)
(0.409907 -0.00079019 0)
(0.40926 -0.000821499 0)
(0.408511 -0.000862701 0)
(0.406848 -0.000276474 0)
(0.412111 -0.00010631 0)
(0.411836 -0.000180448 0)
(0.411415 -0.000192823 0)
(0.410932 -0.000197594 0)
(0.410447 -0.000203674 0)
(0.409964 -0.000208412 0)
(0.409478 -0.000211967 0)
(0.408984 -0.000215148 0)
(0.408484 -0.000218143 0)
(0.407979 -0.000220988 0)
(0.407467 -0.000223863 0)
(0.406948 -0.000226913 0)
(0.40642 -0.00023029 0)
(0.405881 -0.000234125 0)
(0.405329 -0.000238457 0)
(0.404761 -0.000243508 0)
(0.404173 -0.000249496 0)
(0.403562 -0.000256714 0)
(0.402921 -0.000264797 0)
(0.402247 -0.00027492 0)
(0.401532 -0.000288134 0)
(0.40077 -0.000303094 0)
(0.399952 -0.000319871 0)
(0.399066 -0.00033893 0)
(0.398105 -0.000360582 0)
(0.397061 -0.000382969 0)
(0.395931 -0.000408808 0)
(0.39474 -0.000403465 0)
(0.393585 -0.000469872 0)
(0.391061 0.000264151 0)
(0.412565 -0.00162647 -1.62812e-18)
(0.417626 -0.00209302 -1.26516e-20)
(0.421307 -0.00242245 1.68684e-18)
(0.423164 -0.00292549 3.39564e-18)
(0.424159 -0.00364187 1.73724e-18)
(0.424823 -0.00454133 -1.72503e-18)
(0.425326 -0.00558513 1.76522e-18)
(0.425722 -0.00675966 0)
(0.426071 -0.00806885 1.79784e-18)
(0.426396 -0.00951476 -3.85797e-21)
(0.426693 -0.0111007 1.26691e-19)
(0.426943 -0.0128379 0)
(0.427133 -0.0147457 -2.14817e-18)
(0.427254 -0.0168497 0)
(0.427298 -0.0191818 0)
(0.427256 -0.0217825 -2.37628e-18)
(0.427111 -0.0247042 -2.29781e-18)
(0.426845 -0.0280152 3.18316e-22)
(0.426433 -0.0318065 2.31006e-18)
(0.425841 -0.0362006 3.44273e-19)
(0.425028 -0.0413647 -3.22181e-18)
(0.423935 -0.0475464 3.74721e-19)
(0.422495 -0.0550463 -1.95479e-19)
(0.420576 -0.0645711 3.05628e-18)
(0.418151 -0.0762534 4.2853e-19)
(0.414759 -0.0937223 -2.22856e-19)
(0.410959 -0.112502 0)
(0.404932 -0.156037 -3.59488e-18)
(0.39982 -0.186113 -3.71266e-18)
(0.39248 -0.338952 0)
(0.421841 -0.0021926 1.63275e-18)
(0.423404 -0.00244999 -3.86284e-20)
(0.42428 -0.00299735 3.01734e-20)
(0.424308 -0.00377806 -1.71772e-18)
(0.424383 -0.00471169 -5.50875e-20)
(0.424577 -0.00574879 1.86164e-18)
(0.424821 -0.00688357 1.73851e-18)
(0.425113 -0.00812439 2.37678e-19)
(0.425401 -0.00947915 -1.22079e-19)
(0.425664 -0.0109544 2.00483e-18)
(0.42588 -0.0125615 2.1985e-18)
(0.426033 -0.0143189 1.99925e-18)
(0.426117 -0.0162491 2.33701e-18)
(0.426124 -0.0183784 2.13046e-18)
(0.426047 -0.0207387 2.35006e-18)
(0.425869 -0.0233711 5.00796e-18)
(0.425572 -0.0263287 2.36795e-18)
(0.42513 -0.0296808 -2.78777e-18)
(0.424512 -0.0335191 2.90152e-18)
(0.423676 -0.037967 -1.77767e-19)
(0.422565 -0.0431933 1.84904e-19)
(0.421105 -0.0494412 3.11855e-18)
(0.419189 -0.0570331 0)
(0.416671 -0.0665969 -2.14341e-19)
(0.413372 -0.078509 3.84748e-18)
(0.408856 -0.095701 0)
(0.403135 -0.115351 4.01662e-18)
(0.394334 -0.157097 -3.85791e-18)
(0.383785 -0.189337 -2.48053e-20)
(0.368002 -0.335438 2.4947e-18)
(0.421514 -0.00234545 -1.27536e-20)
(0.422107 -0.00280023 -1.29829e-20)
(0.42258 -0.00366798 -1.67721e-18)
(0.422918 -0.00466922 -5.45711e-20)
(0.423211 -0.00569207 5.5944e-20)
(0.423575 -0.00674287 -5.73443e-20)
(0.423943 -0.00786418 -1.82275e-18)
(0.424251 -0.00908523 0)
(0.424487 -0.010417 0)
(0.424659 -0.0118705 0)
(0.424772 -0.0134607 -2.10353e-18)
(0.424819 -0.0152052 -1.28192e-19)
(0.424796 -0.0171235 -1.95822e-18)
(0.42469 -0.0192404 -2.31347e-18)
(0.424488 -0.0215878 -2.54446e-18)
(0.424169 -0.0242069 -2.48202e-18)
(0.423712 -0.0271514 1.76624e-19)
(0.423086 -0.0304903 2.51211e-18)
(0.422252 -0.0343152 -2.61677e-18)
(0.421161 -0.038749 -1.82501e-19)
(0.419741 -0.0439604 0)
(0.417899 -0.0501877 -6.63226e-18)
(0.415503 -0.0577692 2.10543e-19)
(0.412356 -0.0672605 -3.59076e-18)
(0.408212 -0.0792717 6.37427e-20)
(0.40249 -0.095987 0)
(0.394992 -0.116507 -8.55596e-18)
(0.383258 -0.155744 8.6306e-18)
(0.367595 -0.191231 -4.70224e-18)
(0.342535 -0.328513 -2.75808e-18)
(0.421457 -0.00343707 0)
(0.421903 -0.00411601 -1.71822e-18)
(0.422306 -0.00497984 1.20466e-23)
(0.422597 -0.00587616 2.77095e-20)
(0.422842 -0.00678876 0)
(0.423081 -0.00777458 0)
(0.423289 -0.00886996 -1.91728e-18)
(0.423446 -0.0100826 0)
(0.423556 -0.0114123 1.2656e-19)
(0.423622 -0.0128649 -2.6061e-19)
(0.423636 -0.0144527 -1.01214e-22)
(0.423586 -0.0161915 -2.07528e-18)
(0.423456 -0.0181011 1.43369e-19)
(0.423231 -0.0202076 2.22947e-18)
(0.422896 -0.0225438 1.53827e-19)
(0.422428 -0.0251516 2.39987e-18)
(0.4218 -0.0280839 -2.64556e-18)
(0.420978 -0.0314096 -2.77468e-18)
(0.419915 -0.0352193 0)
(0.418551 -0.039635 2.84535e-18)
(0.416802 -0.044824 1.97504e-19)
(0.414553 -0.0510214 3.52668e-18)
(0.41164 -0.0585651 -2.18988e-19)
(0.407828 -0.0679801 3.69765e-18)
(0.402764 -0.0799631 -3.91999e-18)
(0.395815 -0.0962842 0)
(0.386335 -0.117177 4.56638e-18)
(0.371781 -0.154127 -4.68358e-18)
(0.350625 -0.191636 4.79563e-18)
(0.316441 -0.318895 1.34847e-19)
(0.421079 -0.00439045 0)
(0.421372 -0.00503619 1.71347e-18)
(0.421616 -0.00581818 0)
(0.42182 -0.00667764 0)
(0.422 -0.00760747 0)
(0.422167 -0.00862834 0)
(0.422307 -0.00975061 1.94585e-18)
(0.422404 -0.0109737 6.2628e-20)
(0.422452 -0.0123004 -6.44428e-20)
(0.422443 -0.0137417 0)
(0.422367 -0.0153138 0)
(0.422213 -0.0170347 1.41723e-19)
(0.421967 -0.0189255 2.61636e-22)
(0.421615 -0.0210123 -2.57391e-18)
(0.421139 -0.0233276 0)
(0.420513 -0.025912 -2.6112e-18)
(0.419706 -0.0288179 0)
(0.418677 -0.0321132 3.01449e-18)
(0.417372 -0.0358873 -3.72266e-19)
(0.41572 -0.0402603 -2.91415e-18)
(0.413622 -0.0453965 1.65081e-18)
(0.410944 -0.0515261 0)
(0.407487 -0.0589815 0)
(0.402974 -0.0682626 0)
(0.396954 -0.0801004 2.10125e-18)
(0.388727 -0.0959747 -2.25436e-18)
(0.377211 -0.116875 0)
(0.359868 -0.15149 -2.58867e-18)
(0.333112 -0.190276 -2.83744e-18)
(0.290487 -0.306456 2.47451e-18)
(0.42055 -0.00522372 8.36307e-19)
(0.420752 -0.00589399 8.839e-19)
(0.420909 -0.00668499 9.2018e-19)
(0.421058 -0.00755485 8.58203e-19)
(0.421189 -0.00849323 1.02762e-18)
(0.421288 -0.0095092 9.05127e-19)
(0.421347 -0.0106134 9.92747e-19)
(0.421355 -0.0118131 -1.0219e-18)
(0.421307 -0.013117 6.57331e-20)
(0.421196 -0.0145376 9.50747e-19)
(0.421013 -0.0160895 1.12189e-18)
(0.420746 -0.0177894 1.08784e-18)
(0.42038 -0.019657 1.49722e-19)
(0.419897 -0.0217174 -1.2468e-18)
(0.419275 -0.0240023 1.61771e-19)
(0.418485 -0.0265521 -3.36227e-19)
(0.41749 -0.0294181 -1.2325e-18)
(0.416244 -0.0326669 -1.4719e-18)
(0.414685 -0.0363859 0)
(0.41273 -0.0406922 -2.02795e-19)
(0.410267 -0.0457455 1.62763e-20)
(0.407139 -0.051769 2.24146e-19)
(0.403115 -0.0590846 1.68811e-18)
(0.397871 -0.068169 3.82735e-19)
(0.390865 -0.0797465 -9.30742e-20)
(0.381319 -0.0950983 2.48948e-18)
(0.367733 -0.115633 -1.58507e-19)
(0.347639 -0.147869 2.71557e-18)
(0.315308 -0.187021 3.17999e-18)
(0.264937 -0.29117 -2.85249e-18)
(0.419906 -0.00601177 -8.60261e-19)
(0.420033 -0.00668625 -8.67791e-19)
(0.420112 -0.00746629 -9.18361e-19)
(0.420192 -0.00832133 3.11541e-20)
(0.420253 -0.00924643 -1.87838e-18)
(0.420274 -0.0102494 -9.7944e-19)
(0.420247 -0.0113399 -2.14457e-18)
(0.420169 -0.0125254 1.2657e-19)
(0.420033 -0.0138135 -6.69521e-20)
(0.419829 -0.015215 -2.21303e-18)
(0.419546 -0.0167433 4.77633e-21)
(0.419169 -0.0184146 -1.10711e-18)
(0.418682 -0.0202491 1.15371e-18)
(0.418064 -0.0222717 -6.89272e-21)
(0.417291 -0.0245139 1.66041e-19)
(0.416329 -0.0270148 -1.72364e-19)
(0.415139 -0.0298243 1.43839e-18)
(0.413667 -0.0330068 1.50582e-18)
(0.411844 -0.0366468 1.99288e-19)
(0.409575 -0.0408571 1.26265e-18)
(0.406733 -0.0457912 -1.42766e-18)