/*--------------------------------*- C++ -*----------------------------------*\
  =========                 |
  \\      /  F ield         | OpenFOAM: The Open Source CFD Toolbox
   \\    /   O peration     | Website:  https://openfoam.org
    \\  /    A nd           | Version:  11
     \\/     M anipulation  |
\*---------------------------------------------------------------------------*/
FoamFile
{
    format      ascii;
    class       volVectorField;
    location    "4";
    object      U;
}
// * * * * * * * * * * * * * * * * * * * * * * * * * * * * * * * * * * * * * //

dimensions      [0 1 -1 0 0 0 0];

internalField   nonuniform List<vector> 
12600
(
(0.399658 0.000105285 0)
(0.399403 0.000179139 0)
(0.399018 0.000184326 0)
(0.398587 0.000183253 0)
(0.398175 0.000183945 0)
(0.397789 0.000182437 0)
(0.397425 0.000178377 0)
(0.397084 0.000172763 0)
(0.396772 0.000165176 0)
(0.396498 0.000155153 0)
(0.396271 0.000142133 0)
(0.396103 0.000125909 0)
(0.396008 0.000108525 0)
(0.396003 8.25701e-05 0)
(0.39611 4.80922e-05 0)
(0.396356 3.10198e-06 0)
(0.396774 -5.21444e-05 0)
(0.397407 -0.00011472 0)
(0.398302 -0.000192502 0)
(0.399526 -0.000293228 0)
(0.401153 -0.000416968 0)
(0.403264 -0.000563887 0)
(0.405971 -0.000746208 0)
(0.409426 -0.000971986 0)
(0.413811 -0.00125145 0)
(0.419341 -0.00159637 0)
(0.426287 -0.0020293 0)
(0.434908 -0.00249305 0)
(0.445608 -0.0033288 0)
(0.460506 -0.00299366 0)
(0.400035 0.000149911 0)
(0.400177 0.00026114 0)
(0.400349 0.000235821 0)
(0.400444 0.000217939 0)
(0.400542 0.000207303 0)
(0.400663 0.00019439 0)
(0.400806 0.000176268 0)
(0.40097 0.000153267 0)
(0.401163 0.000126875 0)
(0.401388 9.52763e-05 0)
(0.401655 5.56985e-05 0)
(0.401974 6.6899e-06 0)
(0.402357 -5.47926e-05 0)
(0.402819 -0.000130724 0)
(0.403378 -0.000223565 0)
(0.404055 -0.000337144 0)
(0.404873 -0.000476499 0)
(0.405872 -0.000648871 0)
(0.407063 -0.000862287 0)
(0.408556 -0.00112564 0)
(0.410263 -0.00145173 0)
(0.412504 -0.00185706 0)
(0.415264 -0.00235852 0)
(0.418663 -0.002978 0)
(0.422859 -0.00374262 0)
(0.428041 -0.00468359 0)
(0.43444 -0.00584294 0)
(0.442348 -0.00720841 0)
(0.452141 -0.00913808 0)
(0.464119 -0.00997828 0)
(0.400022 7.51271e-05 0)
(0.400107 0.000127092 0)
(0.40022 0.000110521 0)
(0.40032 9.51344e-05 0)
(0.400419 8.48251e-05 0)
(0.400532 6.80993e-05 0)
(0.400666 4.19904e-05 0)
(0.400822 9.05717e-06 0)
(0.401004 -3.17198e-05 0)
(0.401218 -8.38806e-05 0)
(0.401471 -0.000146412 0)
(0.401771 -0.000223166 0)
(0.402131 -0.000318018 0)
(0.402565 -0.000435271 0)
(0.403091 -0.000580169 0)
(0.403732 -0.000758823 0)
(0.404516 -0.000979003 0)
(0.405478 -0.00124849 0)
(0.406659 -0.00158155 0)
(0.408114 -0.00198672 0)
(0.409908 -0.00249188 0)
(0.412108 -0.00313102 0)
(0.414804 -0.00392084 0)
(0.418121 -0.00489491 0)
(0.422207 -0.00609759 0)
(0.42726 -0.00758074 0)
(0.433478 -0.0094154 0)
(0.441267 -0.0116228 0)
(0.450604 -0.0145656 0)
(0.463292 -0.0168265 0)
(0.400015 4.40133e-05 0)
(0.400075 9.75362e-05 0)
(0.40017 0.000102243 0)
(0.400266 8.81806e-05 0)
(0.400361 6.93251e-05 0)
(0.400469 4.3586e-05 0)
(0.400597 9.79145e-06 0)
(0.400748 -3.4087e-05 0)
(0.400923 -8.93117e-05 0)
(0.40113 -0.000156881 0)
(0.401375 -0.000240612 0)
(0.401666 -0.000344087 0)
(0.402014 -0.000472252 0)
(0.402434 -0.000631298 0)
(0.402943 -0.000828532 0)
(0.403563 -0.00107252 0)
(0.40432 -0.00137365 0)
(0.405249 -0.00174415 0)
(0.406389 -0.00220117 0)
(0.40779 -0.00276369 0)
(0.409514 -0.00346299 0)
(0.411629 -0.00433457 0)
(0.414224 -0.00541013 0)
(0.417415 -0.00673675 0)
(0.421345 -0.0083769 0)
(0.426207 -0.0104036 0)
(0.432188 -0.0129189 0)
(0.439711 -0.0159614 0)
(0.448696 -0.0199522 0)
(0.461141 -0.0235623 0)
(0.40001 2.50373e-05 0)
(0.400053 5.77664e-05 0)
(0.400131 5.40736e-05 0)
(0.400218 2.91559e-05 0)
(0.400309 -1.86682e-06 0)
(0.400413 -3.9572e-05 0)
(0.400537 -8.57688e-05 0)
(0.400681 -0.000143724 0)
(0.40085 -0.000213919 0)
(0.401049 -0.000299102 0)
(0.401284 -0.000404298 0)
(0.401562 -0.000534413 0)
(0.401896 -0.000695552 0)
(0.402298 -0.000895317 0)
(0.402784 -0.00114283 0)
(0.403376 -0.00144895 0)
(0.404099 -0.00182681 0)
(0.404984 -0.00229236 0)
(0.40607 -0.00286634 0)
(0.407402 -0.00357395 0)
(0.409039 -0.00444898 0)
(0.411047 -0.00553273 0)
(0.41351 -0.00687202 0)
(0.416538 -0.00852757 0)
(0.420264 -0.0105776 0)
(0.424877 -0.0131155 0)
(0.430545 -0.0162694 0)
(0.437706 -0.0201184 0)
(0.446221 -0.0250899 0)
(0.458241 -0.0301139 0)
(0.400008 1.14572e-05 0)
(0.40004 2.57149e-05 0)
(0.400105 1.68951e-05 0)
(0.400185 -9.6071e-06 0)
(0.400273 -4.39261e-05 0)
(0.400372 -8.53349e-05 0)
(0.400489 -0.000139027 0)
(0.400626 -0.000206394 0)
(0.400787 -0.000288699 0)
(0.400975 -0.000389464 0)
(0.401197 -0.000513899 0)
(0.401461 -0.000667898 0)
(0.401776 -0.000858785 0)
(0.402155 -0.00109566 0)
(0.402614 -0.00138951 0)
(0.403172 -0.00175344 0)
(0.403852 -0.00220329 0)
(0.404684 -0.00275834 0)
(0.405703 -0.00344278 0)
(0.406952 -0.00428659 0)
(0.408484 -0.00532822 0)
(0.410361 -0.00661598 0)
(0.412663 -0.00820805 0)
(0.41549 -0.0101776 0)
(0.418967 -0.0126183 0)
(0.423269 -0.0156442 0)
(0.428553 -0.0194083 0)
(0.435254 -0.0240326 0)
(0.443187 -0.0299446 0)
(0.454615 -0.0363443 0)
(0.400006 1.40391e-06 0)
(0.400032 -3.11758e-08 0)
(0.400087 -1.64364e-05 0)
(0.400159 -4.84007e-05 0)
(0.400241 -9.07161e-05 0)
(0.400334 -0.000142441 0)
(0.400443 -0.00020681 0)
(0.400572 -0.000286011 0)
(0.400723 -0.000382373 0)
(0.400899 -0.000499679 0)
(0.401107 -0.000643557 0)
(0.401353 -0.000821101 0)
(0.401648 -0.00104099 0)
(0.402001 -0.00131376 0)
(0.402427 -0.00165205 0)
(0.402945 -0.00207096 0)
(0.403576 -0.00258867 0)
(0.404346 -0.00322724 0)
(0.405287 -0.00401406 0)
(0.406439 -0.0049833 0)
(0.407849 -0.00617827 0)
(0.409575 -0.00765358 0)
(0.411688 -0.00947688 0)
(0.414281 -0.0117331 0)
(0.417465 -0.0145305 0)
(0.421403 -0.0180025 0)
(0.426234 -0.0223261 0)
(0.432381 -0.0276687 0)
(0.439621 -0.034455 0)
(0.450282 -0.0421755 0)
(0.400005 -6.38302e-06 0)
(0.400027 -2.13917e-05 0)
(0.400074 -4.66513e-05 0)
(0.400138 -8.46475e-05 0)
(0.400214 -0.000133457 0)
(0.4003 -0.000192623 0)
(0.400402 -0.000264824 0)
(0.400521 -0.000353052 0)
(0.400661 -0.000460312 0)
(0.400824 -0.00059087 0)
(0.401016 -0.000751048 0)
(0.401242 -0.000948944 0)
(0.401513 -0.00119431 0)
(0.401836 -0.00149885 0)
(0.402226 -0.00187664 0)
(0.402699 -0.00234457 0)
(0.403273 -0.00292295 0)
(0.403972 -0.00363643 0)
(0.404826 -0.00451542 0)
(0.405868 -0.0055978 0)
(0.407141 -0.00693136 0)
(0.408696 -0.00857641 0)
(0.410597 -0.0106087 0)
(0.412924 -0.0131237 0)
(0.415776 -0.0162431 0)
(0.4193 -0.0201186 0)
(0.423611 -0.0249503 0)
(0.429113 -0.0309497 0)
(0.435554 -0.0385385 0)
(0.445266 -0.0475086 0)
(0.400004 -1.28769e-05 0)
(0.400023 -3.93585e-05 0)
(0.400063 -7.32389e-05 0)
(0.400121 -0.000117505 0)
(0.400189 -0.000172409 0)
(0.400269 -0.000238671 0)
(0.400362 -0.00031892 0)
(0.400471 -0.000416361 0)
(0.400598 -0.000534502 0)
(0.400747 -0.000678172 0)
(0.400921 -0.000854222 0)
(0.401126 -0.00107144 0)
(0.401369 -0.00134048 0)
(0.40166 -0.00167421 0)
(0.402009 -0.00208807 0)
(0.402431 -0.00260056 0)
(0.402943 -0.00323386 0)
(0.403565 -0.00401478 0)
(0.404322 -0.00497623 0)
(0.405244 -0.0061592 0)
(0.406366 -0.00761532 0)
(0.407734 -0.0094099 0)
(0.409401 -0.0116255 0)
(0.411435 -0.0143667 0)
(0.41392 -0.0177669 0)
(0.416983 -0.0219942 0)
(0.420716 -0.027269 0)
(0.42549 -0.0338452 0)
(0.43103 -0.042142 0)
(0.439605 -0.0522584 0)
(0.400004 -1.82309e-05 0)
(0.400019 -5.49011e-05 0)
(0.400054 -9.6824e-05 0)
(0.400105 -0.00014726 0)
(0.400167 -0.000207991 0)
(0.400239 -0.00028076 0)
(0.400323 -0.000368248 0)
(0.400421 -0.000473756 0)
(0.400535 -0.000601216 0)
(0.400668 -0.000755957 0)
(0.400822 -0.000945345 0)
(0.401004 -0.00117886 0)
(0.401218 -0.00146804 0)
(0.401474 -0.00182676 0)
(0.401779 -0.00227159 0)
(0.402147 -0.00282232 0)
(0.402591 -0.00350268 0)
(0.403129 -0.00434129 0)
(0.403782 -0.0053732 0)
(0.404574 -0.00664199 0)
(0.405534 -0.00820249 0)
(0.4067 -0.0101241 0)
(0.408114 -0.012495 0)
(0.409834 -0.0154269 0)
(0.411922 -0.019063 0)
(0.414484 -0.023585 0)
(0.417588 -0.0292311 0)
(0.421558 -0.0362933 0)
(0.426106 -0.0451893 0)
(0.433353 -0.0563164 0)
(0.400003 -2.28222e-05 0)
(0.400017 -6.8231e-05 0)
(0.400047 -0.000117447 0)
(0.400091 -0.000173776 0)
(0.400146 -0.000239896 0)
(0.40021 -0.000318382 0)
(0.400285 -0.000412166 0)
(0.400372 -0.000524683 0)
(0.400472 -0.000660195 0)
(0.400587 -0.000824479 0)
(0.400721 -0.00102538 0)
(0.400878 -0.00127295 0)
(0.401061 -0.00157941 0)
(0.401279 -0.00195944 0)
(0.401538 -0.00243054 0)
(0.401848 -0.00301361 0)
(0.40222 -0.00373361 0)
(0.402669 -0.00462058 0)
(0.403211 -0.00571122 0)
(0.403865 -0.00705106 0)
(0.404654 -0.00869737 0)
(0.405606 -0.0107226 0)
(0.406754 -0.013219 0)
(0.408138 -0.0163036 0)
(0.409807 -0.020127 0)
(0.411837 -0.0248811 0)
(0.414271 -0.0308181 0)
(0.417371 -0.0382621 0)
(0.420849 -0.0476279 0)
(0.42659 -0.0595911 0)
(0.400003 -2.67465e-05 0)
(0.400014 -7.96635e-05 0)
(0.40004 -0.000135395 0)
(0.400079 -0.000197117 0)
(0.400127 -0.000268066 0)
(0.400183 -0.000351484 0)
(0.400248 -0.000450603 0)
(0.400322 -0.000568987 0)
(0.400408 -0.000711141 0)
(0.400506 -0.000883207 0)
(0.400618 -0.00109344 0)
(0.400748 -0.00135233 0)
(0.400899 -0.00167267 0)
(0.401077 -0.00206974 0)
(0.401287 -0.0025618 0)
(0.401536 -0.00317054 0)
(0.401834 -0.00392186 0)
(0.402189 -0.00484682 0)
(0.402616 -0.00598329 0)
(0.403126 -0.00737817 0)
(0.403736 -0.00909033 0)
(0.404466 -0.0111942 0)
(0.405336 -0.0137846 0)
(0.406373 -0.0169818 0)
(0.407604 -0.0209409 0)
(0.409079 -0.0258604 0)
(0.410812 -0.0320014 0)
(0.412994 -0.0397123 0)
(0.415341 -0.0494017 0)
(0.419421 -0.0619884 0)
(0.400002 -3.00912e-05 0)
(0.400012 -8.94363e-05 0)
(0.400034 -0.000150859 0)
(0.400067 -0.000217347 0)
(0.400108 -0.000292468 0)
(0.400156 -0.000379962 0)
(0.400211 -0.000483362 0)
(0.400273 -0.000606375 0)
(0.400344 -0.000753687 0)
(0.400423 -0.000931717 0)
(0.400513 -0.00114903 0)
(0.400616 -0.00141647 0)
(0.400734 -0.0017472 0)
(0.40087 -0.002157 0)
(0.40103 -0.0026646 0)
(0.401216 -0.00329228 0)
(0.401436 -0.00406654 0)
(0.401695 -0.00501908 0)
(0.402002 -0.00618842 0)
(0.402365 -0.00762218 0)
(0.402791 -0.00937999 0)
(0.403293 -0.0115372 0)
(0.403878 -0.0141893 0)
(0.404559 -0.0174581 0)
(0.405343 -0.0214997 0)
(0.40625 -0.0265151 0)
(0.407264 -0.0327686 0)
(0.408496 -0.0406225 0)
(0.409675 -0.0504742 0)
(0.411975 -0.0634361 0)
(0.400002 -3.292e-05 0)
(0.40001 -9.77242e-05 0)
(0.400029 -0.000164007 0)
(0.400057 -0.000234546 0)
(0.400091 -0.000313093 0)
(0.400131 -0.00040376 0)
(0.400175 -0.000510351 0)
(0.400225 -0.000636699 0)
(0.40028 -0.000787614 0)
(0.400341 -0.000969704 0)
(0.400408 -0.00119176 0)
(0.400483 -0.00146486 0)
(0.400566 -0.00180242 0)
(0.400661 -0.00222048 0)
(0.400768 -0.00273808 0)
(0.40089 -0.00337778 0)
(0.401031 -0.00416635 0)
(0.401192 -0.00513573 0)
(0.401378 -0.00632464 0)
(0.40159 -0.00778074 0)
(0.401831 -0.00956359 0)
(0.402101 -0.0117482 0)
(0.402399 -0.0144296 0)
(0.402721 -0.0177282 0)
(0.403056 -0.0217985 0)
(0.403392 -0.0268392 0)
(0.403684 -0.0331111 0)
(0.403955 -0.040979 0)
(0.403953 -0.0508214 0)
(0.404404 -0.0638814 0)
(0.400002 -3.52906e-05 0)
(0.400008 -0.000104668 0)
(0.400024 -0.000174996 0)
(0.400047 -0.000248824 0)
(0.400075 -0.00032999 0)
(0.400106 -0.00042288 0)
(0.400141 -0.000531523 0)
(0.400178 -0.00065986 0)
(0.400218 -0.000812776 0)
(0.400259 -0.000996989 0)
(0.400303 -0.00122142 0)
(0.40035 -0.00149725 0)
(0.400399 -0.00183801 0)
(0.40045 -0.00225981 0)
(0.400505 -0.00278176 0)
(0.400563 -0.00342647 0)
(0.400623 -0.00422066 0)
(0.400686 -0.00519615 0)
(0.400749 -0.00639132 0)
(0.400811 -0.00785329 0)
(0.400865 -0.00964073 0)
(0.400905 -0.0118272 0)
(0.400917 -0.0145056 0)
(0.400883 -0.0177929 0)
(0.400773 -0.0218388 0)
(0.400545 -0.026835 0)
(0.400126 -0.0330317 0)
(0.399451 -0.0407837 0)
(0.398287 -0.050441 0)
(0.396881 -0.0633045 0)
(0.400001 -3.72524e-05 0)
(0.400007 -0.000110404 0)
(0.40002 -0.000183995 0)
(0.400038 -0.00026032 0)
(0.40006 -0.000343245 0)
(0.400083 -0.000437366 0)
(0.400108 -0.000546897 0)
(0.400132 -0.000675852 0)
(0.400156 -0.00082914 0)
(0.400179 -0.00101351 0)
(0.4002 -0.00123792 0)
(0.400218 -0.00151353 0)
(0.400232 -0.00185382 0)
(0.400241 -0.00227481 0)
(0.400243 -0.00279549 0)
(0.400236 -0.00343823 0)
(0.400217 -0.0042294 0)
(0.400182 -0.00520031 0)
(0.400124 -0.00638857 0)
(0.400036 -0.00784017 0)
(0.399906 -0.00961209 0)
(0.399718 -0.0117754 0)
(0.39945 -0.0144194 0)
(0.399068 -0.0176557 0)
(0.398525 -0.021626 0)
(0.397751 -0.0265104 0)
(0.396647 -0.0325416 0)
(0.395064 -0.040052 0)
(0.392786 -0.049352 0)
(0.389588 -0.0617219 0)
(0.400001 -3.88572e-05 0)
(0.400006 -0.000115073 0)
(0.400016 -0.000191184 0)
(0.40003 -0.000269198 0)
(0.400046 -0.000352982 0)
(0.400062 -0.000447315 0)
(0.400076 -0.000556555 0)
(0.400089 -0.000684743 0)
(0.400097 -0.000836758 0)
(0.400102 -0.00101931 0)
(0.400099 -0.0012413 0)
(0.400089 -0.00151375 0)
(0.400069 -0.00184994 0)
(0.400036 -0.00226564 0)
(0.399986 -0.00277947 0)
(0.399915 -0.00341333 0)
(0.399817 -0.00419298 0)
(0.399685 -0.00514883 0)
(0.399508 -0.00631732 0)
(0.399273 -0.00774275 0)
(0.398964 -0.00947971 0)
(0.398555 -0.0115959 0)
(0.398015 -0.0141756 0)
(0.397298 -0.0173233 0)
(0.396341 -0.0211699 0)
(0.395049 -0.02588 0)
(0.3933 -0.0316623 0)
(0.390869 -0.0388144 0)
(0.387559 -0.0475972 0)
(0.382706 -0.0591921 0)
(0.400001 -4.01638e-05 0)
(0.400004 -0.000118836 0)
(0.400012 -0.000196774 0)
(0.400023 -0.000275656 0)
(0.400034 -0.000359366 0)
(0.400042 -0.000452869 0)
(0.400047 -0.000560635 0)
(0.400048 -0.000686674 0)
(0.400041 -0.000835778 0)
(0.400027 -0.00101456 0)
(0.400002 -0.00123176 0)
(0.399965 -0.00149816 0)
(0.399911 -0.00182669 0)
(0.399836 -0.00223268 0)
(0.399736 -0.0027342 0)
(0.399602 -0.00335246 0)
(0.399428 -0.0041123 0)
(0.399201 -0.00504295 0)
(0.398909 -0.00617925 0)
(0.398532 -0.00756336 0)
(0.398049 -0.00924686 0)
(0.397428 -0.0112933 0)
(0.396629 -0.0137807 0)
(0.395594 -0.016805 0)
(0.394248 -0.0204842 0)
(0.392475 -0.0249639 0)
(0.390133 -0.0304235 0)
(0.386937 -0.0371153 0)
(0.382703 -0.045242 0)
(0.376403 -0.0558144 0)
(0.400001 -4.1244e-05 0)
(0.400004 -0.000121887 0)
(0.40001 -0.00020101 0)
(0.400017 -0.000279925 0)
(0.400023 -0.000362598 0)
(0.400025 -0.000454221 0)
(0.400021 -0.000559338 0)
(0.400009 -0.000681858 0)
(0.399989 -0.000826439 0)
(0.399957 -0.000999541 0)
(0.39991 -0.00120965 0)
(0.399846 -0.00146717 0)
(0.399759 -0.00178456 0)
(0.399645 -0.00217656 0)
(0.399495 -0.0026605 0)
(0.399302 -0.00325666 0)
(0.399053 -0.00398873 0)
(0.398736 -0.00488447 0)
(0.398332 -0.00597677 0)
(0.39782 -0.00730522 0)
(0.397172 -0.00891791 0)
(0.39635 -0.0108734 0)
(0.395306 -0.0132431 0)
(0.393975 -0.0161128 0)
(0.392269 -0.0195861 0)
(0.390058 -0.0237871 0)
(0.387186 -0.0288622 0)
(0.383323 -0.0350109 0)
(0.3783 -0.0423713 0)
(0.370818 -0.051726 0)
(0.400001 -4.21907e-05 0)
(0.400003 -0.000124472 0)
(0.400008 -0.000204191 0)
(0.400014 -0.000282269 0)
(0.400015 -0.000362903 0)
(0.40001 -0.000451608 0)
(0.399998 -0.000552931 0)
(0.399975 -0.000670585 0)
(0.399941 -0.000809051 0)
(0.399892 -0.000974608 0)
(0.399825 -0.0011754 0)
(0.399735 -0.00142136 0)
(0.399617 -0.00172429 0)
(0.399464 -0.0020982 0)
(0.399267 -0.00255951 0)
(0.399016 -0.00312738 0)
(0.398698 -0.0038241 0)
(0.398294 -0.00467571 0)
(0.397785 -0.00571288 0)
(0.397145 -0.00697229 0)
(0.39634 -0.00849811 0)
(0.39533 -0.0103436 0)
(0.39406 -0.0125725 0)
(0.392456 -0.0152604 0)
(0.390425 -0.0184951 0)
(0.387825 -0.0223781 0)
(0.384491 -0.0270212 0)
(0.380073 -0.0325663 0)
(0.374411 -0.039085 0)
(0.366053 -0.0470934 0)
(0.400001 -4.31299e-05 0)
(0.400003 -0.000126909 0)
(0.400008 -0.000206671 0)
(0.400012 -0.000282998 0)
(0.40001 -0.000360573 0)
(0.399999 -0.000445304 0)
(0.399978 -0.000541695 0)
(0.399946 -0.000653192 0)
(0.399898 -0.000784039 0)
(0.399833 -0.000940269 0)
(0.399746 -0.00112961 0)
(0.399632 -0.0013614 0)
(0.399485 -0.00164671 0)
(0.399296 -0.00199868 0)
(0.399055 -0.00243265 0)
(0.39875 -0.00296646 0)
(0.398365 -0.00362081 0)
(0.39788 -0.00441977 0)
(0.397273 -0.00539157 0)
(0.396513 -0.00656968 0)
(0.395564 -0.00799409 0)
(0.39438 -0.00971239 0)
(0.392902 -0.0117806 0)
(0.391053 -0.0142634 0)
(0.388731 -0.0172329 0)
(0.385793 -0.0207682 0)
(0.382071 -0.0249464 0)
(0.377214 -0.0298516 0)
(0.371071 -0.0354916 0)
(0.362159 -0.0421002 0)
(0.400001 -4.42387e-05 0)
(0.400004 -0.000129632 0)
(0.40001 -0.000208893 0)
(0.400013 -0.000282375 0)
(0.400007 -0.000355813 0)
(0.399991 -0.000435682 0)
(0.399964 -0.000526111 0)
(0.399921 -0.000630163 0)
(0.399862 -0.000751921 0)
(0.399782 -0.000897112 0)
(0.399677 -0.00107295 0)
(0.39954 -0.00128806 0)
(0.399365 -0.00155272 0)
(0.399142 -0.00187901 0)
(0.39886 -0.00228106 0)
(0.398505 -0.00277525 0)
(0.398058 -0.00338053 0)
(0.397499 -0.00411883 0)
(0.396801 -0.00501571 0)
(0.395931 -0.00610129 0)
(0.39485 -0.00741118 0)
(0.393508 -0.00898722 0)
(0.391844 -0.0108776 0)
(0.389775 -0.0131364 0)
(0.387201 -0.0158208 0)
(0.383977 -0.018988 0)
(0.37994 -0.0226836 0)
(0.374756 -0.026937 0)
(0.368289 -0.0317 0)
(0.359138 -0.0369332 0)
(0.400001 -4.57829e-05 0)
(0.400006 -0.000133238 0)
(0.400014 -0.000211362 0)
(0.400017 -0.000280776 0)
(0.40001 -0.000348983 0)
(0.399989 -0.000423 0)
(0.399954 -0.000506346 0)
(0.399903 -0.000601737 0)
(0.399833 -0.000713174 0)
(0.39974 -0.000846016 0)
(0.399617 -0.00100681 0)
(0.39946 -0.00120337 0)
(0.39926 -0.00144498 0)
(0.399006 -0.00174261 0)
(0.398687 -0.00210899 0)
(0.398285 -0.0025589 0)
(0.397783 -0.00310938 0)
(0.397155 -0.00378008 0)
(0.396374 -0.00459376 0)
(0.395405 -0.00557702 0)
(0.394205 -0.00676102 0)
(0.392722 -0.00818181 0)
(0.390892 -0.00988006 0)
(0.388632 -0.0118997 0)
(0.385842 -0.0142841 0)
(0.382383 -0.0170712 0)
(0.378099 -0.0202791 0)
(0.372693 -0.0238906 0)
(0.366045 -0.0278134 0)
(0.356936 -0.031768 0)
(0.400002 -4.81964e-05 0)
(0.400009 -0.000138528 0)
(0.400022 -0.000214551 0)
(0.400027 -0.000278605 0)
(0.400017 -0.00034079 0)
(0.399992 -0.000408041 0)
(0.399951 -0.00048298 0)
(0.399893 -0.00056808 0)
(0.399813 -0.000667292 0)
(0.399707 -0.000785616 0)
(0.39957 -0.000928927 0)
(0.399394 -0.00110412 0)
(0.399171 -0.00131948 0)
(0.39889 -0.00158479 0)
(0.398536 -0.0019113 0)
(0.398094 -0.00231203 0)
(0.397541 -0.00280196 0)
(0.396852 -0.0033983 0)
(0.395998 -0.00412096 0)
(0.39494 -0.00499305 0)
(0.393635 -0.00604129 0)
(0.392029 -0.00729616 0)
(0.390055 -0.00879113 0)
(0.387632 -0.0105608 0)
(0.384661 -0.0126367 0)
(0.381013 -0.0150404 0)
(0.376545 -0.0177685 0)
(0.371006 -0.0207674 0)
(0.364298 -0.0239173 0)
(0.355457 -0.0267522 0)
(0.400003 -5.2255e-05 0)
(0.400016 -0.000146738 0)
(0.400034 -0.000218697 0)
(0.400043 -0.000275408 0)
(0.400032 -0.000331032 0)
(0.400003 -0.000391774 0)
(0.399958 -0.000458816 0)
(0.399893 -0.00053422 0)
(0.399805 -0.000621719 0)
(0.399687 -0.000725756 0)
(0.399537 -0.000851423 0)
(0.399344 -0.00100463 0)
(0.399102 -0.00119264 0)
(0.398796 -0.00142386 0)
(0.398413 -0.00170796 0)
(0.397934 -0.00205615 0)
(0.397338 -0.00248131 0)
(0.396596 -0.00299814 0)
(0.395677 -0.00362353 0)
(0.394543 -0.00437699 0)
(0.393147 -0.00528088 0)
(0.391434 -0.00636029 0)
(0.389338 -0.00764211 0)
(0.386778 -0.00915283 0)
(0.38366 -0.0109139 0)
(0.379865 -0.0129343 0)
(0.375266 -0.0151966 0)
(0.369665 -0.0176226 0)
(0.362987 -0.0200855 0)
(0.354567 -0.0220008 0)
(0.400005 -5.93139e-05 0)
(0.400027 -0.000160204 0)
(0.400056 -0.000225303 0)
(0.400067 -0.000271008 0)
(0.400054 -0.000316222 0)
(0.400022 -0.000366077 0)
(0.399973 -0.000420885 0)
(0.399903 -0.000482718 0)
(0.399807 -0.000555028 0)
(0.399681 -0.000641601 0)
(0.399518 -0.000746665 0)
(0.399312 -0.000874849 0)
(0.399053 -0.00103248 0)
(0.398727 -0.00122651 0)
(0.398319 -0.00146484 0)
(0.397809 -0.00175668 0)
(0.397175 -0.00211263 0)
(0.396389 -0.0025449 0)
(0.395416 -0.00306748 0)
(0.394217 -0.0036964 0)
(0.392745 -0.00444978 0)
(0.390944 -0.00534764 0)
(0.388748 -0.0064108 0)
(0.386078 -0.00765875 0)
(0.382843 -0.00910521 0)
(0.378938 -0.0107501 0)
(0.374253 -0.0125691 0)
(0.368643 -0.0144714 0)
(0.362057 -0.0163479 0)
(0.354135 -0.017572 0)
(0.400009 -7.10119e-05 0)
(0.400046 -0.000180161 0)
(0.400091 -0.000240259 0)
(0.400107 -0.000281456 0)
(0.400093 -0.000322467 0)
(0.400058 -0.000365493 0)
(0.400006 -0.00041105 0)
(0.399932 -0.000461815 0)
(0.39983 -0.000520764 0)
(0.399695 -0.00059085 0)
(0.399524 -0.000675815 0)
(0.399306 -0.000778809 0)
(0.399033 -0.000905088 0)
(0.39869 -0.00106019 0)
(0.398261 -0.00125041 0)
(0.397728 -0.00148307 0)
(0.397064 -0.00176652 0)
(0.396242 -0.00211025 0)
(0.395226 -0.00252513 0)
(0.393977 -0.00302363 0)
(0.392446 -0.00361983 0)
(0.390577 -0.00432907 0)
(0.388304 -0.0051669 0)
(0.385553 -0.00614699 0)
(0.382238 -0.0072775 0)
(0.378264 -0.00855302 0)
(0.373541 -0.00995021 0)
(0.367971 -0.0113712 0)
(0.361528 -0.0127512 0)
(0.354128 -0.0135014 0)
(0.400017 -9.46668e-05 0)
(0.400077 -0.000186185 0)
(0.400138 -0.00021688 0)
(0.400158 -0.000242918 0)
(0.400143 -0.00027386 0)
(0.400108 -0.00030549 0)
(0.400054 -0.00033817 0)
(0.399977 -0.00037492 0)
(0.39987 -0.000418331 0)
(0.39973 -0.000470481 0)
(0.399552 -0.000533553 0)
(0.399326 -0.000611056 0)
(0.399042 -0.000705923 0)
(0.398686 -0.000821839 0)
(0.398243 -0.000963345 0)
(0.39769 -0.00113561 0)
(0.397004 -0.00134464 0)
(0.396154 -0.00159749 0)
(0.395107 -0.00190226 0)
(0.39382 -0.00226808 0)
(0.392247 -0.00270508 0)
(0.390332 -0.00322411 0)
(0.388012 -0.003836 0)
(0.385215 -0.0045499 0)
(0.381865 -0.00537063 0)
(0.377877 -0.00629107 0)
(0.373189 -0.00729705 0)
(0.36771 -0.00828604 0)
(0.36148 -0.00924715 0)
(0.354364 -0.00958817 0)
(0.400026 -0.000162337 0)
(0.400175 -0.000310975 0)
(0.40025 -0.000301903 0)
(0.400241 -0.000308369 0)
(0.40021 -0.000325668 0)
(0.400165 -0.000343938 0)
(0.400099 -0.00036339 0)
(0.400006 -0.000385886 0)
(0.399882 -0.000412307 0)
(0.399721 -0.00044429 0)
(0.399516 -0.000485927 0)
(0.399258 -0.000531028 0)
(0.398935 -0.000590731 0)
(0.398534 -0.000663835 0)
(0.398035 -0.000753111 0)
(0.39742 -0.000862067 0)
(0.396664 -0.00099444 0)
(0.395736 -0.00115453 0)
(0.394604 -0.00134743 0)
(0.393227 -0.00157918 0)
(0.391558 -0.00185658 0)
(0.389541 -0.00218683 0)
(0.387115 -0.00257694 0)
(0.384208 -0.00303246 0)
(0.380743 -0.00355556 0)
(0.376637 -0.00413966 0)
(0.371835 -0.00476983 0)
(0.366128 -0.00536428 0)
(0.359866 -0.00597628 0)
(0.351644 -0.00565524 0)
(0.399648 -0.000112806 0)
(0.399357 -0.000189959 0)
(0.398905 -0.000204612 0)
(0.398377 -0.00021237 0)
(0.397832 -0.000221984 0)
(0.397274 -0.000230992 0)
(0.396693 -0.000239537 0)
(0.396082 -0.000248606 0)
(0.395439 -0.000258974 0)
(0.394756 -0.000270975 0)
(0.394025 -0.000284684 0)
(0.393236 -0.000302431 0)
(0.392377 -0.000324075 0)
(0.39143 -0.000350277 0)
(0.390376 -0.000382193 0)
(0.389189 -0.000421057 0)
(0.387842 -0.000468441 0)
(0.386299 -0.000526283 0)
(0.384519 -0.000596727 0)
(0.382454 -0.000682061 0)
(0.380045 -0.000784761 0)
(0.377224 -0.000907494 0)
(0.373916 -0.00105294 0)
(0.370034 -0.00122322 0)
(0.365489 -0.00141912 0)
(0.360193 -0.00163712 0)
(0.354084 -0.00186919 0)
(0.347146 -0.00206822 0)
(0.339546 -0.00236009 0)
(0.328719 -0.00169879 0)
(0.466846 -0.0069389 8.72069e-21)
(0.473142 -0.0107088 -1.33531e-17)
(0.478682 -0.014929 1.34366e-17)
(0.483076 -0.0195734 6.764e-18)
(0.486844 -0.0245907 5.1155e-18)
(0.490278 -0.0299683 1.03339e-17)
(0.493464 -0.0357434 5.20186e-18)
(0.496465 -0.041975 1.40285e-17)
(0.499355 -0.0487114 7.09241e-18)
(0.502181 -0.055985 3.57093e-18)
(0.504958 -0.0638238 -3.61675e-18)
(0.507673 -0.0722625 7.28651e-18)
(0.510311 -0.0813468 3.7125e-18)
(0.51286 -0.0911355 3.74034e-18)
(0.515316 -0.101703 7.5559e-18)
(0.51768 -0.11314 3.83873e-18)
(0.519958 -0.125559 1.15844e-17)
(0.522157 -0.139097 0)
(0.524285 -0.153921 0)
(0.526352 -0.170239 3.96356e-18)
(0.528367 -0.188309 -3.09539e-20)
(0.530347 -0.208456 4.06488e-18)
(0.532302 -0.231092 0)
(0.534251 -0.256757 8.16289e-18)
(0.53624 -0.286075 4.08783e-18)
(0.538007 -0.320292 -4.15405e-18)
(0.541013 -0.358669 4.08238e-18)
(0.538971 -0.412305 4.09751e-18)
(0.552305 -0.446741 1.19777e-17)
(0.521554 -0.57341 -3.83681e-18)
(0.473402 -0.0146843 -6.7119e-18)
(0.477211 -0.0184158 7.60574e-18)
(0.480298 -0.022927 -7.67364e-18)
(0.482769 -0.0278329 0)
(0.485071 -0.0330496 -6.96899e-18)
(0.487405 -0.0386223 -7.02489e-18)
(0.489763 -0.0446174 -1.77452e-18)
(0.49212 -0.0510743 -1.2564e-17)
(0.494464 -0.0580098 -7.24612e-18)
(0.496771 -0.0654399 -7.34973e-18)
(0.499003 -0.0733936 3.70498e-18)
(0.501126 -0.0819144 -3.75631e-18)
(0.503119 -0.0910573 -7.5739e-18)
(0.504973 -0.100888 -7.66268e-18)
(0.506682 -0.111485 -7.75403e-18)
(0.508241 -0.12294 -7.84769e-18)
(0.509644 -0.135365 -1.59375e-17)
(0.510878 -0.148895 4.02614e-18)
(0.511931 -0.163696 -4.09242e-18)
(0.512784 -0.179969 -1.24283e-17)
(0.513413 -0.197967 2.33076e-20)
(0.513791 -0.218002 -4.65141e-20)
(0.513868 -0.24047 -3.38681e-20)
(0.513604 -0.265872 -1.30298e-17)
(0.512891 -0.294823 -8.76873e-18)
(0.511554 -0.328347 -4.33548e-18)
(0.510122 -0.366393 9.25287e-20)
(0.504239 -0.416307 -1.12348e-19)
(0.510205 -0.454559 -1.29742e-17)
(0.474186 -0.570254 0)
(0.471225 -0.0219201 0)
(0.473744 -0.0256658 0)
(0.475957 -0.0302319 0)
(0.47808 -0.0352273 -8.79661e-19)
(0.480239 -0.040545 8.0028e-18)
(0.482427 -0.0462114 -1.79732e-18)
(0.484574 -0.0522658 1.82054e-18)
(0.486627 -0.05873 7.3476e-18)
(0.488565 -0.0656264 -1.85905e-18)
(0.49037 -0.072991 9.40391e-18)
(0.49203 -0.0808709 3.80815e-18)
(0.493532 -0.0893182 -3.86377e-18)
(0.494871 -0.0983892 3.90506e-18)
(0.496039 -0.108148 -3.96513e-18)
(0.497021 -0.118668 -8.05185e-18)
(0.497799 -0.130042 8.16394e-18)
(0.498348 -0.142376 8.22464e-18)
(0.498639 -0.155804 0)
(0.498637 -0.170488 0)
(0.498299 -0.186621 8.57166e-18)
(0.497567 -0.204448 0)
(0.496372 -0.224264 1.3296e-17)
(0.49461 -0.246446 4.50023e-18)
(0.492177 -0.271454 9.03231e-18)
(0.488846 -0.299889 1.3707e-17)
(0.484447 -0.332585 4.70644e-18)
(0.478857 -0.369939 0)
(0.469334 -0.416683 1.88139e-17)
(0.467053 -0.4577 0)
(0.427845 -0.561743 9.31096e-18)
(0.468744 -0.0294594 0)
(0.47076 -0.0333852 0)
(0.472536 -0.0380299 0)
(0.474355 -0.0430493 -7.20634e-18)
(0.476172 -0.0483647 0)
(0.477896 -0.0540105 0)
(0.47949 -0.0600321 0)
(0.480953 -0.0664608 7.55943e-18)
(0.482284 -0.0733261 0)
(0.483477 -0.0806642 0)
(0.484518 -0.0885158 0)
(0.48539 -0.0969249 -7.97154e-18)
(0.486073 -0.105942 -8.08515e-18)
(0.486543 -0.115629 -4.08569e-18)
(0.486774 -0.126059 -4.2871e-20)
(0.486732 -0.137322 -8.38989e-18)
(0.48638 -0.149525 9.6886e-21)
(0.485675 -0.162795 1.30771e-17)
(0.484563 -0.177286 4.4093e-18)
(0.482975 -0.193183 -4.49486e-18)
(0.480824 -0.210714 -4.554e-18)
(0.478002 -0.230153 -4.58047e-18)
(0.474356 -0.251849 -4.70451e-18)
(0.469724 -0.276217 1.44725e-17)
(0.463783 -0.303817 0)
(0.456358 -0.335312 -1.48916e-17)
(0.446812 -0.371339 -5.05595e-18)
(0.433718 -0.414934 2.52777e-19)
(0.42351 -0.456511 -1.55232e-17)
(0.382396 -0.548956 5.16667e-19)
(0.465369 -0.0366265 0)
(0.466875 -0.0405927 7.19374e-18)
(0.468126 -0.0452075 -9.08438e-19)
(0.469491 -0.0501931 1.56433e-17)
(0.470857 -0.0554953 0)
(0.472093 -0.0611407 0)
(0.47318 -0.0671615 7.65912e-18)
(0.474134 -0.07358 -7.73195e-18)
(0.474949 -0.0804195 0)
(0.475602 -0.0877115 0)
(0.476068 -0.0954948 0)
(0.476324 -0.103814 8.17829e-18)
(0.476343 -0.112722 8.30193e-18)
(0.476097 -0.122281 -4.22474e-18)
(0.475552 -0.132564 1.2865e-17)
(0.474667 -0.143657 0)
(0.473394 -0.15566 8.92059e-18)
(0.471674 -0.168693 -1.35705e-17)
(0.469434 -0.182899 -4.60751e-18)
(0.466582 -0.198451 0)
(0.463005 -0.215555 0)
(0.458558 -0.234463 0)
(0.453047 -0.255487 0)
(0.44626 -0.278994 -5.01632e-18)
(0.437797 -0.305487 -5.19306e-18)
(0.427465 -0.335485 5.21935e-18)
(0.414244 -0.369751 5.42701e-18)
(0.397744 -0.410054 -1.08984e-17)
(0.380178 -0.450847 1.11312e-17)
(0.33821 -0.531988 -1.10979e-17)
(0.461194 -0.0434149 -7.2589e-18)
(0.462231 -0.0474277 -6.87276e-18)
(0.462998 -0.0520496 -1.39421e-18)
(0.463935 -0.0570341 -5.6392e-18)
(0.464877 -0.0623306 -1.01963e-21)
(0.465656 -0.0679558 -2.9014e-18)
(0.466254 -0.0739351 3.42062e-20)
(0.466695 -0.080291 -7.97658e-18)
(0.466969 -0.0870494 -6.07742e-18)
(0.467048 -0.094244 8.22252e-18)
(0.466905 -0.101914 0)
(0.466513 -0.110104 1.06041e-17)
(0.465845 -0.118864 -1.07843e-17)
(0.464864 -0.128252 -8.78192e-18)
(0.463528 -0.138336 1.33906e-17)
(0.461786 -0.149195 -1.36422e-17)
(0.459577 -0.160923 -4.58743e-18)
(0.456827 -0.17363 -4.79466e-18)
(0.453447 -0.187447 -4.80258e-18)
(0.449324 -0.202529 1.47742e-17)
(0.44432 -0.219061 0)
(0.438261 -0.237267 5.12075e-18)
(0.430919 -0.257417 -1.04928e-17)
(0.422038 -0.279828 1.08472e-17)
(0.411164 -0.304933 5.52297e-18)
(0.398071 -0.333126 1.14238e-17)
(0.38148 -0.365198 0)
(0.361783 -0.401981 1.21166e-17)
(0.337661 -0.440818 0)
(0.295681 -0.511007 -1.28098e-17)
(0.456232 -0.0497537 7.39625e-18)
(0.456814 -0.0537919 3.75995e-18)
(0.457105 -0.0583945 -3.8135e-18)
(0.457604 -0.0633401 2.90276e-18)
(0.458107 -0.0685851 8.00925e-22)
(0.458414 -0.0741451 7.35938e-22)
(0.458511 -0.0800447 -7.03732e-18)
(0.458427 -0.0863065 2.01859e-18)
(0.458154 -0.092956 1.24569e-17)
(0.457659 -0.100025 -1.05468e-17)
(0.45691 -0.107549 2.14867e-18)
(0.455875 -0.115569 -1.09088e-17)
(0.45452 -0.124131 8.87662e-18)
(0.452804 -0.13329 9.03984e-18)
(0.450673 -0.143107 -4.57179e-18)
(0.44807 -0.153657 9.39317e-18)
(0.444921 -0.165023 0)
(0.441142 -0.177305 4.87413e-18)
(0.436627 -0.19062 5.02704e-18)
(0.431248 -0.205102 -1.02338e-17)
(0.424844 -0.220914 0)
(0.417218 -0.238244 -5.40018e-18)
(0.408115 -0.257322 7.44415e-21)
(0.397241 -0.27841 -1.13221e-17)
(0.38411 -0.301864 1.17555e-17)
(0.368459 -0.327973 -1.81051e-17)
(0.348853 -0.357472 0)
(0.326236 -0.390533 -1.27716e-17)
(0.296487 -0.426481 7.3437e-20)
(0.255085 -0.486235 1.38285e-17)
(0.450499 -0.0555411 3.79337e-18)
(0.450636 -0.0595814 -3.35481e-18)
(0.450462 -0.0641394 3.40473e-18)
(0.450525 -0.0690197 -7.91583e-18)
(0.450589 -0.0741861 -4.02657e-18)
(0.450429 -0.0796533 -1.01982e-18)
(0.45003 -0.0854433 4.157e-18)
(0.449429 -0.0915766 9.48428e-18)