/*--------------------------------*- C++ -*----------------------------------*\
  =========                 |
  \\      /  F ield         | OpenFOAM: The Open Source CFD Toolbox
   \\    /   O peration     | Website:  https://openfoam.org
    \\  /    A nd           | Version:  11
     \\/     M anipulation  |
\*---------------------------------------------------------------------------*/
FoamFile
{
    format      ascii;
    class       volScalarField;
    location    "7.4";
    object      p;
}
// * * * * * * * * * * * * * * * * * * * * * * * * * * * * * * * * * * * * * //

dimensions      [0 2 -2 0 0 0 0];

internalField   nonuniform List<scalar> 
12600
(
0.0946759
0.0945394
0.0944749
0.0944552
0.0944373
0.0944129
0.0943854
0.0943564
0.0943253
0.0942908
0.094252
0.0942078
0.0941568
0.0940976
0.0940282
0.0939466
0.0938496
0.0937342
0.0935964
0.0934317
0.0932327
0.092992
0.0927009
0.0923479
0.0919189
0.0913963
0.0907591
0.0899773
0.0890182
0.0877736
0.0946006
0.0945305
0.0944773
0.0944544
0.0944356
0.0944119
0.094385
0.0943563
0.0943254
0.0942913
0.0942528
0.094209
0.0941584
0.0940998
0.0940311
0.0939503
0.0938544
0.0937403
0.0936037
0.093441
0.0932443
0.0930067
0.0927189
0.0923697
0.0919456
0.0914291
0.0908026
0.0900325
0.0891361
0.088116
0.0945652
0.0945319
0.0944857
0.0944567
0.0944363
0.0944135
0.0943873
0.094359
0.0943284
0.0942947
0.0942567
0.0942135
0.0941638
0.0941061
0.0940386
0.0939597
0.093866
0.0937544
0.0936214
0.0934608
0.0932681
0.0930355
0.0927539
0.0924123
0.0919975
0.091493
0.0908808
0.0901369
0.0892611
0.0882172
0.0945407
0.0945199
0.0944834
0.0944546
0.094434
0.0944125
0.0943873
0.0943597
0.0943299
0.0942971
0.0942601
0.094218
0.0941696
0.0941133
0.0940474
0.093971
0.0938803
0.0937722
0.093643
0.0934876
0.093301
0.0930759
0.0928034
0.0924729
0.0920717
0.0915839
0.0909918
0.0902738
0.089411
0.0883704
0.094523
0.0945094
0.094482
0.094456
0.0944352
0.0944144
0.0943903
0.0943635
0.0943346
0.0943027
0.0942668
0.094226
0.0941792
0.0941251
0.0940622
0.0939877
0.0939004
0.0937966
0.0936726
0.0935239
0.0933452
0.0931298
0.0928692
0.0925532
0.0921695
0.091703
0.0911359
0.0904471
0.0896092
0.0885954
0.0945103
0.0945007
0.0944796
0.0944562
0.0944356
0.0944152
0.0943922
0.0943665
0.0943385
0.0943077
0.0942732
0.0942339
0.094189
0.0941374
0.0940774
0.0940067
0.0939236
0.0938251
0.0937077
0.0935671
0.0933982
0.0931946
0.0929485
0.0926501
0.0922878
0.0918472
0.0913105
0.0906569
0.0898555
0.0888807
0.094501
0.0944938
0.094477
0.0944564
0.0944367
0.0944171
0.0943953
0.0943709
0.0943441
0.0943147
0.0942818
0.0942445
0.0942018
0.094153
0.0940963
0.0940298
0.0939518
0.0938596
0.0937498
0.0936185
0.093461
0.0932713
0.0930421
0.0927645
0.0924273
0.092017
0.0915162
0.0909046
0.0901499
0.0892276
0.0944942
0.0944885
0.0944749
0.0944568
0.0944383
0.0944195
0.0943988
0.0943757
0.0943502
0.0943221
0.0942909
0.0942558
0.0942158
0.09417
0.0941171
0.0940554
0.0939832
0.093898
0.0937968
0.0936761
0.0935316
0.0933577
0.0931479
0.0928938
0.0925853
0.0922095
0.0917501
0.0911875
0.0904895
0.0896325
0.0944896
0.0944849
0.0944734
0.0944575
0.0944403
0.0944224
0.0944028
0.094381
0.094357
0.0943306
0.0943013
0.0942685
0.0942314
0.0941892
0.0941405
0.0940842
0.0940183
0.0939409
0.0938494
0.0937405
0.0936103
0.093454
0.0932656
0.0930377
0.0927611
0.092424
0.0920113
0.0915046
0.090873
0.0900939
0.0944865
0.0944825
0.0944727
0.0944586
0.0944427
0.0944258
0.0944073
0.0943869
0.0943644
0.0943398
0.0943126
0.0942824
0.0942484
0.0942099
0.0941659
0.0941152
0.0940563
0.0939874
0.0939063
0.0938101
0.0936955
0.0935583
0.0933933
0.093194
0.0929523
0.0926578
0.0922967
0.0918525
0.0912964
0.0906075
0.0944849
0.0944815
0.0944728
0.0944602
0.0944456
0.0944297
0.0944124
0.0943933
0.0943724
0.0943496
0.0943247
0.0942972
0.0942665
0.0942321
0.0941931
0.0941484
0.094097
0.0940372
0.0939672
0.0938847
0.0937868
0.0936701
0.0935301
0.0933615
0.0931573
0.0929088
0.0926039
0.0922283
0.0917563
0.0911692
0.0944845
0.0944815
0.0944738
0.0944624
0.0944488
0.094434
0.0944178
0.0944002
0.0943809
0.0943601
0.0943375
0.0943128
0.0942857
0.0942555
0.0942217
0.0941835
0.0941398
0.0940896
0.0940313
0.0939632
0.0938829
0.0937878
0.0936743
0.0935382
0.0933738
0.0931741
0.0929294
0.0926277
0.0922475
0.0917729
0.0944852
0.0944824
0.0944755
0.0944651
0.0944525
0.0944387
0.0944237
0.0944074
0.0943898
0.094371
0.0943508
0.0943291
0.0943056
0.0942799
0.0942515
0.0942199
0.0941844
0.0941441
0.0940981
0.0940449
0.093983
0.0939103
0.0938244
0.0937221
0.0935993
0.0934509
0.0932695
0.0930462
0.0927644
0.0924116
0.0944869
0.0944843
0.0944779
0.0944683
0.0944567
0.0944438
0.0944299
0.094415
0.0943991
0.0943823
0.0943646
0.0943459
0.0943261
0.0943049
0.0942821
0.0942573
0.0942302
0.0942002
0.0941667
0.0941289
0.0940858
0.0940362
0.0939787
0.0939112
0.0938314
0.0937359
0.0936203
0.0934787
0.0933002
0.0930767
0.0944894
0.0944871
0.0944811
0.094472
0.0944612
0.0944492
0.0944363
0.0944228
0.0944085
0.0943938
0.0943786
0.094363
0.0943469
0.0943304
0.0943132
0.0942954
0.0942768
0.0942572
0.0942364
0.0942142
0.0941902
0.0941641
0.0941354
0.0941034
0.0940673
0.0940258
0.0939774
0.0939196
0.0938475
0.0937583
0.0944928
0.0944906
0.0944848
0.0944763
0.094466
0.0944548
0.094443
0.0944307
0.0944182
0.0944054
0.0943927
0.0943802
0.0943679
0.094356
0.0943445
0.0943337
0.0943236
0.0943144
0.0943064
0.0942999
0.0942952
0.0942927
0.0942929
0.0942966
0.0943043
0.0943172
0.0943363
0.094363
0.0943986
0.0944456
0.094497
0.0944948
0.0944892
0.0944809
0.0944711
0.0944606
0.0944498
0.0944388
0.0944278
0.094417
0.0944068
0.0943973
0.0943888
0.0943815
0.0943757
0.0943717
0.0943701
0.0943713
0.0943761
0.0943851
0.0943995
0.0944204
0.0944494
0.0944884
0.0945398
0.0946065
0.0946927
0.0948031
0.0949454
0.0951273
0.094502
0.0944998
0.0944942
0.0944859
0.0944764
0.0944666
0.0944566
0.0944468
0.0944373
0.0944285
0.0944207
0.0944142
0.0944094
0.0944066
0.0944063
0.0944092
0.0944159
0.0944273
0.0944446
0.0944689
0.0945021
0.094546
0.0946032
0.0946769
0.0947709
0.0948904
0.0950419
0.0952339
0.0954796
0.0957922
0.0945078
0.0945055
0.0944996
0.0944913
0.0944819
0.0944726
0.0944635
0.0944548
0.0944467
0.0944398
0.0944343
0.0944307
0.0944294
0.094431
0.0944361
0.0944456
0.0944604
0.0944817
0.0945111
0.0945504
0.0946017
0.0946679
0.0947525
0.0948597
0.0949951
0.0951654
0.0953798
0.0956498
0.0959938
0.0964296
0.0945144
0.0945119
0.0945056
0.0944968
0.0944875
0.0944785
0.0944702
0.0944625
0.0944558
0.0944506
0.0944473
0.0944465
0.0944487
0.0944545
0.0944648
0.0944806
0.0945032
0.0945341
0.0945751
0.0946286
0.0946974
0.094785
0.0948958
0.0950351
0.0952097
0.0954284
0.0957023
0.0960457
0.096481
0.0970298
0.094522
0.0945191
0.094512
0.0945026
0.094493
0.0944844
0.0944768
0.09447
0.0944645
0.0944609
0.0944598
0.0944616
0.094467
0.0944767
0.094492
0.0945138
0.0945438
0.0945837
0.0946357
0.0947027
0.0947881
0.0948959
0.0950313
0.0952008
0.0954125
0.0956764
0.0960057
0.0964169
0.0969351
0.0975851
0.0945305
0.0945271
0.0945189
0.0945083
0.0944984
0.0944902
0.0944831
0.094477
0.0944726
0.0944706
0.0944714
0.0944757
0.0944841
0.0944976
0.0945174
0.0945449
0.0945818
0.0946301
0.0946925
0.0947721
0.0948728
0.0949995
0.0951579
0.0953555
0.0956013
0.0959069
0.0962869
0.0967595
0.0973517
0.0980897
0.0945403
0.094536
0.094526
0.0945139
0.0945036
0.0944957
0.094489
0.0944836
0.0944802
0.0944796
0.0944822
0.0944887
0.0944998
0.0945167
0.0945408
0.0945734
0.0946166
0.0946727
0.0947445
0.0948357
0.0949505
0.0950944
0.0952738
0.095497
0.0957739
0.0961172
0.0965428
0.0970701
0.0977269
0.0985396
0.0945516
0.094546
0.0945333
0.0945192
0.0945085
0.0945009
0.0944946
0.0944897
0.0944871
0.0944878
0.094492
0.0945005
0.0945142
0.0945343
0.0945621
0.0945994
0.0946483
0.0947114
0.0947918
0.0948934
0.0950209
0.0951802
0.0953785
0.0956245
0.0959291
0.0963059
0.0967716
0.0973467
0.0980589
0.0989339
0.094565
0.0945571
0.0945404
0.094524
0.0945131
0.0945057
0.0944994
0.0944948
0.094493
0.0944947
0.0945003
0.0945106
0.0945265
0.0945492
0.0945804
0.0946218
0.0946757
0.094745
0.0948328
0.0949436
0.0950823
0.0952552
0.09547
0.0957359
0.0960646
0.0964702
0.0969704
0.0975863
0.0983456
0.0992722
0.0945813
0.0945694
0.0945467
0.094528
0.0945176
0.0945106
0.0945043
0.0944999
0.0944987
0.0945014
0.0945083
0.09452
0.0945378
0.0945628
0.0945969
0.0946418
0.0947
0.0947744
0.0948687
0.0949872
0.0951354
0.0953199
0.0955486
0.0958314
0.0961803
0.09661
0.0971388
0.0977885
0.0985874
0.0995575
0.0946018
0.094583
0.0945512
0.0945301
0.0945203
0.0945134
0.0945069
0.0945027
0.0945021
0.0945056
0.0945135
0.0945265
0.0945458
0.0945729
0.0946093
0.0946571
0.0947188
0.0947976
0.0948971
0.095022
0.095178
0.0953718
0.0956119
0.0959084
0.0962736
0.0967226
0.0972741
0.0979503
0.0987829
0.0997904
0.0946285
0.0945973
0.0945559
0.0945347
0.0945255
0.094518
0.094511
0.0945068
0.0945067
0.0945106
0.0945191
0.094533
0.0945535
0.0945819
0.0946201
0.09467
0.0947344
0.0948165
0.0949201
0.0950497
0.0952115
0.0954126
0.0956613
0.0959681
0.0963455
0.0968087
0.0973764
0.0980708
0.0989309
0.0999799
0.0946653
0.0945976
0.0945496
0.0945342
0.0945269
0.0945186
0.0945114
0.0945076
0.094508
0.0945124
0.0945215
0.0945361
0.0945574
0.0945869
0.0946263
0.0946778
0.0947442
0.0948285
0.0949348
0.0950681
0.095234
0.0954399
0.0956945
0.0960083
0.096394
0.0968666
0.0974441
0.0981474
0.0990155
0.100108
0.0947417
0.0946071
0.0945477
0.094536
0.0945297
0.0945208
0.0945133
0.0945095
0.0945099
0.0945145
0.0945237
0.0945386
0.0945603
0.0945903
0.0946303
0.0946826
0.0947498
0.0948354
0.0949431
0.0950783
0.0952464
0.0954548
0.0957123
0.0960298
0.0964197
0.0968971
0.0974788
0.0981847
0.0990251
0.100004
0.0873449
0.0864131
0.0858733
0.0856705
0.0854441
0.0851107
0.0847303
0.0843482
0.0839726
0.0835997
0.0832271
0.0828535
0.0824763
0.082091
0.0816922
0.0812736
0.0808272
0.0803427
0.0798061
0.0791984
0.0784928
0.0776456
0.0766153
0.075199
0.0736098
0.070119
0.0684656
0.0541859
0.0569195
-0.0193845
0.0878354
0.0869706
0.086354
0.0860775
0.0857951
0.085438
0.0850676
0.0847188
0.0843853
0.0840556
0.0837265
0.0833978
0.0830671
0.0827312
0.0823861
0.0820271
0.0816484
0.0812423
0.0807983
0.0803021
0.0797332
0.0790607
0.0782395
0.0771599
0.0758289
0.0733006
0.0715284
0.0606768
0.0619349
-0.00241064
0.0874747
0.0869325
0.0865238
0.0862897
0.0860419
0.085735
0.0854205
0.0851234
0.084835
0.084547
0.0842597
0.0839746
0.0836905
0.0834051
0.0831158
0.0828195
0.0825124
0.0821895
0.0818439
0.0814663
0.0810429
0.0805531
0.0799624
0.0792063
0.0782285
0.0765112
0.0749752
0.0670861
0.0674865
0.0147254
0.0875416
0.0872078
0.0869234
0.0866775
0.0864201
0.0861407
0.0858652
0.0856054
0.0853547
0.0851079
0.0848652
0.0846279
0.0843952
0.0841656
0.0839381
0.0837112
0.0834835
0.0832527
0.0830159
0.082769
0.0825052
0.0822145
0.0818763
0.0814576
0.0808945
0.0799256
0.0788736
0.0735994
0.0736634
0.0316751
0.0877504
0.0874973
0.0872749
0.0870465
0.0868133
0.0865808
0.0863562
0.0861418
0.0859348
0.0857334
0.0855388
0.0853523
0.0851742
0.0850045
0.0848435
0.0846918
0.0845501
0.0844193
0.0843004
0.0841948
0.0841032
0.084026
0.0839584
0.0838924
0.0837858
0.0835286
0.08315
0.0801797
0.0804319
0.0483053
0.0880539
0.08786
0.0876951
0.0875022
0.0873007
0.0871078
0.0869255
0.0867523
0.0865876
0.0864321
0.0862873
0.0861544
0.0860347
0.0859294
0.0858403
0.0857699
0.0857212
0.0856984
0.0857067
0.0857529
0.0858457
0.0859962
0.0862154
0.0865192
0.0868969
0.0873391
0.0877577
0.0868426
0.0876802
0.0645931
0.0884371
0.0882908
0.0881727
0.0880149
0.0878468
0.0876934
0.0875549
0.0874266
0.0873084
0.0872024
0.0871107
0.087035
0.0869776
0.086941
0.0869288
0.0869454
0.0869964
0.087089
0.0872329
0.0874407
0.0877288
0.0881192
0.088639
0.0893268
0.0902073
0.0913445
0.0926361
0.0935624
0.0953037
0.0803876
0.0888904
0.0887872
0.0887129
0.0885928
0.0884619
0.0883497
0.0882555
0.088173
0.0881025
0.0880475
0.0880108
0.0879951
0.0880034
0.0880397
0.0881091
0.088218
0.0883745
0.0885894
0.0888765
0.0892542
0.0897468
0.0903874
0.0912184
0.0923008
0.0936946
0.0955228
0.0977242
0.100306
0.103203
0.0955046
0.0894116
0.089349
0.0893161
0.0892345
0.0891422
0.0890715
0.089022
0.0889865
0.0889658
0.0889641
0.0889852
0.0890325
0.0891098
0.0892226
0.0893777
0.0895834
0.0898506
0.0901933
0.0906297
0.0911839
0.0918882
0.092786
0.0939351
0.0954176
0.0973275
0.0998372
0.102954
0.107024
0.111253
0.10977
0.0899964
0.0899729
0.0899799
0.0899374
0.0898849
0.0898568
0.0898528
0.0898657
0.0898963
0.0899497
0.0900305
0.0901428
0.0902918
0.0904841
0.090728
0.0910341
0.0914158
0.0918904
0.0924804
0.0932156
0.0941356
0.0952942
0.0967636
0.0986457
0.101066
0.104239
0.108251
0.113654
0.119312
0.123025
0.0906412
0.0906552
0.0907003
0.0906971
0.0906855
0.0907005
0.0907426
0.0908046
0.0908875
0.0909973
0.0911393
0.0913184
0.0915408
0.0918145
0.0921494
0.0925581
0.0930566
0.0936653
0.0944109
0.0953286
0.0964652
0.0978841
0.0996707
0.101945
0.104862
0.10867
0.113534
0.12012
0.127226
0.135126
0.0913394
0.0913892
0.0914707
0.0915068
0.0915367
0.0915953
0.0916837
0.0917951
0.091931
0.0920978
0.0923015
0.0925482
0.0928448
0.0932007
0.0936273
0.0941392
0.0947548
0.0954976
0.0963981
0.0974968
0.0988469
0.100521
0.102616
0.105268
0.108657
0.113061
0.118714
0.126332
0.134829
0.145936
0.0920831
0.0921671
0.0922826
0.0923576
0.0924292
0.0925314
0.0926657
0.0928262
0.0930149
0.0932384
0.0935038
0.0938176
0.094188
0.0946253
0.0951428
0.0957566
0.0964875
0.0973617
0.0984136
0.099688
0.101244
0.103162
0.105551
0.108559
0.112388
0.117336
0.123699
0.132195
0.141945
0.155292
0.0928617
0.0929779
0.0931252
0.0932381
0.0933512
0.0934961
0.0936754
0.0938841
0.0941244
0.0944037
0.0947292
0.0951086
0.0955509
0.0960676
0.0966731
0.0973855
0.0982274
0.0992278
0.100424
0.101865
0.103616
0.105763
0.108423
0.111757
0.115984
0.121416
0.128396
0.137613
0.148408
0.163035
0.0936631
0.0938093
0.0939855
0.094135
0.0942885
0.094475
0.0946975
0.0949525
0.0952426
0.0955752
0.0959585
0.0964006
0.0969114
0.0975035
0.0981925
0.0989978
0.099944
0.101062
0.102393
0.103988
0.105917
0.108272
0.111177
0.114802
0.119376
0.125222
0.132716
0.142493
0.154092
0.169191
0.0944731
0.094647
0.0948493
0.0950332
0.0952255
0.0954516
0.0957149
0.0960134
0.0963502
0.0967331
0.0971703
0.0976708
0.0982453
0.0989071
0.0996729
0.100563
0.101605
0.10283
0.104282
0.106015
0.108102
0.11064
0.113757
0.117629
0.122494
0.128677
0.136575
0.146756
0.158924
0.173985
0.0952768
0.0954758
0.0957012
0.0959171
0.0961457
0.0964085
0.0967095
0.0970479
0.0974276
0.0978562
0.0983424
0.0988958
0.0995276
0.100252
0.101086
0.102052
0.103177
0.104496
0.106053
0.107904
0.110126
0.112816
0.116108
0.12018
0.125274
0.131712
0.1399
0.150331
0.162852
0.177414
0.0960589
0.0962805
0.096526
0.0967706
0.0970325
0.0973287
0.0976634
0.0980373
0.098455
0.0989241
0.0994534
0.100053
0.100734
0.101512
0.102405
0.103435
0.104631
0.106027
0.10767
0.109618
0.111947
0.114758
0.118185
0.122405
0.127662
0.134269
0.142629
0.153155
0.165786
0.17937
0.096805
0.0970466
0.0973093
0.0975792
0.0978705
0.0981961
0.09856
0.0989645
0.0994147
0.0999181
0.100484
0.101122
0.101844
0.102666
0.103606
0.104688
0.105939
0.107396
0.109105
0.111126
0.113534
0.11643
0.119949
0.124265
0.129617
0.136304
0.144716
0.155173
0.167606
0.179948
0.0975025
0.0977615
0.0980387
0.0983301
0.0986466
0.0989971
0.0993854
0.0998151
0.100292
0.100823
0.101417
0.102085
0.102839
0.103695
0.10467
0.105789
0.10708
0.10858
0.110334
0.112402
0.11486
0.117807
0.121374
0.125732
0.131111
0.137791
0.146134
0.156346
0.168296
0.179237
0.098141
0.0984148
0.0987039
0.099013
0.0993501
0.0997206
0.100128
0.100577
0.101074
0.101626
0.102241
0.102931
0.103707
0.104585
0.105584
0.106726
0.108041
0.109565
0.111343
0.113434
0.115911
0.118873
0.122447
0.126795
0.132135
0.138723
0.146883
0.15669
0.168003
0.177147
0.0987142
0.0990007
0.0992996
0.0996225
0.0999755
0.100361
0.100783
0.101246
0.101757
0.102322
0.102951
0.103653
0.104442
0.105331
0.106341
0.107493
0.108817
0.110347
0.112128
0.114217
0.116687
0.119631
0.123171
0.127461
0.132704
0.139121
0.147002
0.156251
0.166867
0.173552
0.0992174
0.0995144
0.0998211
0.100154
0.100519
0.100915
0.101347
0.101818
0.102337
0.102909
0.103544
0.104251
0.105043
0.105934
0.106943
0.108092
0.109409
0.110928
0.112693
0.114759
0.117195
0.120091
0.123562
0.12775
0.132841
0.139017
0.146537
0.155095
0.164972
0.168773
0.0996524
0.0999577
0.10027
0.100609
0.100981
0.101383
0.101819
0.102294
0.102814
0.103388
0.104022
0.104726
0.105513
0.106396
0.107394
0.108528
0.109824
0.111317
0.113049
0.115071
0.11745
0.12027
0.123639
0.127685
0.132578
0.138452
0.145551
0.153307
0.162437
0.163214
0.100021
0.100333
0.100648
0.10099
0.101366
0.101771
0.102208
0.102682
0.103201
0.103769
0.104397
0.105091
0.105865
0.106732
0.107708
0.108816
0.11008
0.111533
0.113215
0.115175
0.117477
0.120198
0.123438
0.12731
0.131966
0.13749
0.144127
0.150978
0.159393
0.156596
0.100337
0.100652
0.100961
0.101299
0.101673
0.102078
0.102512
0.102981
0.103492
0.104053
0.104669
0.10535
0.106105
0.106948
0.107896
0.108969
0.11019
0.111591
0.11321
0.115094
0.117302
0.119905
0.122993
0.126666
0.131059
0.136194
0.142344
0.148182
0.155938
0.148885
0.100611
0.100928
0.101227
0.101561
0.101936
0.102338
0.102764
0.103224
0.103725
0.104272
0.104872
0.105532
0.106262
0.107076
0.107989
0.109019
0.110189
0.111529
0.113075
0.11487
0.11697
0.11944
0.12236
0.125814
0.129923
0.134639
0.140292
0.144999
0.152181
0.140384
0.10089
0.101147
0.101382
0.101706
0.102095
0.102501
0.102919
0.103367
0.103855
0.104392
0.10498
0.105619
0.106323
0.107103
0.107974
0.108955
0.110065
0.111335
0.112799
0.114497
0.116479
0.118804
0.121546
0.124768
0.128584
0.132857
0.138034
0.141485
0.148234
0.131368
0.101403
0.101521
0.10161
0.101892
0.102287
0.102703
0.103118
0.103555
0.104024
0.104532
0.105088
0.105699
0.106373
0.107118
0.107951
0.108886
0.109933
0.111129
0.112506
0.114101
0.11596
0.118134
0.12069
0.123672
0.127189
0.130997
0.135725
0.137787
0.14423
0.122059
0.101477
0.101357
0.101441
0.101804
0.10224
0.102689
0.103112
0.103549
0.10402
0.104523
0.105059
0.105642
0.106277
0.106973
0.107744
0.108605
0.109582
0.110696
0.111977
0.11346
0.115187
0.117204
0.119571
0.122308
0.125543
0.128866
0.133252
0.13377
0.140127
0.112652
0.104396
0.0960922
0.0869552
0.0776036
0.0686754
0.0605456
0.0535405
0.0480296
0.0444087
0.0430643
0.0440634
0.0468468
0.0499378
0.0517334
0.0514382
0.0494382
0.0477959
0.0463533
0.0448145
0.0436907
0.0429062
0.0420345
0.040819
0.0393296
0.0377651
0.0361757
0.0344565
0.0324742
0.0299501
0.0268957
0.13594
0.130081
0.123613
0.11724
0.110825
0.104134
0.0973506
0.0908274
0.0847286
0.0794315
0.0754108
0.0727211
0.0709183
0.0686956
0.0649286
0.0587416
0.0510185
0.0457685
0.0442957
0.0434036
0.0417553
0.0397465
0.038419
0.0377252
0.0370615
0.0362007
0.0350263
0.0337749
0.0324644
0.0305642
0.130581
0.127063
0.122978
0.118315
0.112937
0.10688
0.100452
0.0939071
0.0875641
0.0819667
0.0774882
0.0738827
0.070545
0.0665855
0.0611819
0.0558069
0.0510636
0.0471303
0.0450436
0.0431537
0.0408347
0.0401034
0.0411854
0.0422327
0.0434534
0.0448444
0.0461678
0.0469172
0.0471315
0.0462621
0.1315
0.129676
0.127252
0.12396
0.119901
0.115146
0.109781
0.103929
0.0978136
0.0917692
0.0860989
0.0808975
0.0760679
0.0713954
0.0667093
0.062372
0.0580197
0.053025
0.0493776
0.0470034
0.0451203
0.0452539
0.0471255
0.0500952
0.0545075
0.0583798
0.0608503
0.062534
0.0630572
0.0626792
0.127583
0.126742
0.12554
0.123632
0.120913
0.11746
0.113341
0.108576
0.103247
0.0975681
0.0918483
0.0863658
0.081236
0.0764204
0.0718052
0.0673677
0.0630258
0.0590559
0.056183
0.0538299
0.0522895
0.0528367
0.0553687
0.0595024
0.0643359
0.0683277
0.0710663
0.0718313
0.0707075
0.0686568
0.124727
0.124582
0.124169
0.12301
0.121042
0.118381
0.115021
0.11093
0.106159
0.100877
0.0953449
0.0898463
0.0845712
0.079571
0.0747969
0.0702584
0.0660846
0.0626016
0.0600903
0.0585448
0.0582686
0.0593625
0.0614308
0.0643363
0.0674554
0.0693918
0.0694593
0.0678011
0.0641516
0.058325
0.121753
0.121999
0.122074
0.12149
0.120252
0.118355
0.115755
0.112385
0.108246
0.103448
0.0982006
0.0927681
0.0873928
0.0822262
0.0773297
0.0727832
0.068755
0.0654773
0.0631679
0.0619655
0.0619359
0.0629067
0.0644542
0.0659239
0.0663507
0.0651245
0.0620057
0.057005
0.0493016
0.0402697
0.119222
0.119738
0.120162
0.119998
0.119226
0.117875
0.115873
0.113113
0.109553
0.105252
0.100365
0.0951259
0.0897947
0.0845885
0.0796524
0.0751186
0.0711665
0.0680077
0.065832
0.064711
0.0645445
0.065021
0.0656119
0.0655989
0.0642891
0.0612878
0.0562919
0.0492186
0.0397419
0.0297686
0.116999
0.117675
0.11831
0.118434
0.118024
0.117107
0.11559
0.113342
0.110287
0.106443
0.101924
0.0969306
0.0917221
0.086551
0.0816191
0.0771007
0.0731898
0.0700908
0.0679514
0.0667658
0.0663265
0.0662143
0.0658365
0.0645592
0.0619036
0.0576194
0.0516531
0.0442706
0.0359202
0.0280716
0.115091
0.115866
0.11664
0.116966
0.116826
0.116239
0.115107
0.113282
0.110666
0.107239
0.103075
0.0983416
0.093287
0.0881837
0.0832756
0.0787744
0.0748878
0.0718057
0.0696285
0.068281
0.0674763
0.0667378
0.0654927
0.0632329
0.0596637
0.0547601
0.0487914
0.0423284
0.0361172
0.0311346
0.113448
0.11428
0.115139
0.115604
0.115663
0.115334
0.114511
0.11304
0.110802
0.107751
0.103922
0.0994518
0.0945698
0.0895577
0.0846898
0.080209
0.076334
0.0732369
0.0709735
0.06941
0.0682077
0.0668807
0.0649279
0.0619927
0.0579844
0.0531143
0.0478901
0.0430214
0.0392991
0.0372464
0.112031
0.112896
0.113807
0.11437
0.114578
0.114446
0.11387
0.11269
0.110776
0.108056
0.104537
0.100321
0.0956193
0.0907124
0.0858955
0.0814356
0.0775594
0.0744221
0.0720415
0.0702413
0.0686591
0.0668383
0.0643793
0.0610898
0.0570745
0.0527261
0.0486701
0.0455578
0.0439743
0.0439969
0.110802
0.111684
0.112626
0.113258
0.113578
0.1136
0.113221
0.112283
0.110645
0.108217
0.104979
0.101005
0.0964811
0.0916847
0.086923
0.082481
0.0785916
0.0753958
0.0728822
0.0708475
0.0689315
0.0667334
0.0639708
0.0606085
0.0569069
0.0533564
0.0505551
0.0489702
0.0489527
0.0500888
0.109729
0.110619
0.111579
0.112261
0.112666
0.112809
0.11259
0.111853
0.11045
0.108279
0.105294
0.101544
0.0971929
0.0925073
0.0878011
0.0833729
0.0794608
0.0761954
0.0735443
0.0712929
0.0691028
0.0666459
0.0637585
0.0605397
0.0573506
0.0546835
0.0530357
0.0526605
0.0536809
0.055344
0.108786
0.109677
0.110648
0.111368
0.111839
0.112078
0.11199
0.11142
0.110219
0.108272
0.105516
0.101972
0.0977844
0.0932062
0.0885535
0.0841346
0.0801928
0.0768517
0.074067
0.0716257
0.0692259
0.0666202
0.063755
0.060832
0.0582466
0.0564401
0.0557762
0.0562917
0.0579469
0.0598031
0.107952
0.108838
0.109816
0.110566
0.111091
0.111408
0.111428
0.110999
0.109972
0.108222
0.10567
0.102315
0.0982794
0.093803
0.0891997
0.0847852
0.0808081
0.0773895
0.0744804
0.0718803
0.069334
0.0666758
0.0639465
0.0614093
0.0594488
0.058426
0.0585523
0.0596812
0.0616811
0.063522
0.107203
0.108084
0.109067
0.109842
0.110413
0.110797
0.110908
0.110599
0.109722
0.108146
0.105775
0.102593
0.0986977
0.0943156
0.0897565
0.0853408
0.0813242
0.0778288
0.0748077
0.0720812
0.0694468
0.0668162
0.0643038
0.0621949
0.0608385
0.0604936
0.0612205
0.0627405
0.0648787
0.0665809
0.106526
0.107403
0.108389
0.109187
0.109798
0.110241
0.11043
0.110225
0.10948
0.108056
0.105849
0.102822
0.0990551
0.094759
0.0902375
0.085815
0.0817553
0.0781858
0.0750667
0.0722453
0.0695744
0.0670357
0.0647903
0.0631225
0.0623221
0.0625376
0.0636955
0.0654357
0.0675681
0.0690708
0.105909
0.106782
0.10777
0.108588
0.109238
0.109734
0.109992
0.109879
0.10925
0.107963
0.105902
0.103016
0.0993649
0.0951457
0.0906544
0.0862188
0.0821131
0.0784735
0.0752705
0.0723834
0.0697202
0.0673212
0.0653714
0.0641344
0.0638251
0.064485
0.0659312
0.0677649
0.0697921
0.0710758
0.105339
0.10621
0.1072
0.108037
0.108725
0.10927
0.109592
0.109563
0.109038
0.107874
0.105945
0.103185
0.099638
0.0954859
0.0910168
0.0865613
0.0824072
0.078702
0.0754288
0.0725024
0.0698841
0.067658
0.0660162
0.0651827
0.0652905
0.0662863
0.067905
0.0697431
0.0716008
0.0726732
0.10481
0.105679
0.10667
0.107526
0.108251
0.108845
0.109227
0.109274
0.108846
0.107794
0.105984
0.103338
0.0998834
0.0957885
0.0913327
0.0868498
0.0826448
0.0788789
0.0755479
0.072605
0.070061
0.0680301
0.0666954
0.0662275
0.0666783
0.0679146
0.0696113
0.0713902
0.0730453
0.0739386
0.104315
0.105184
0.106174
0.107047
0.10781
0.108452
0.108893
0.109013
0.108675
0.107727
0.106026
0.103482
0.100109
0.0960609
0.091609
0.0870909
0.0828331
0.0790115
0.0756335
0.0726953
0.0702495
0.0684264
0.0673843
0.0672333
0.0679546
0.0693554
0.0710658
0.0727417
0.074177
0.0749421
0.103855
0.104719
0.105703
0.106595
0.107395
0.108087
0.108585
0.108776
0.108524
0.107675
0.106076
0.103624
0.10032
0.0963085
0.0918499
0.0872865
0.082973
0.0791016
0.0756849
0.0727633
0.070432
0.0688286
0.0680614
0.0681744
0.0690911
0.0705853
0.0722735
0.0738464
0.0750757
0.0757632
0.103438
0.10428
0.105251
0.106161
0.107002
0.107743
0.108299
0.108562
0.108395
0.107638
0.106135
0.103768
0.100525
0.0965407
0.0920662
0.0874492
0.0830774
0.0791605
0.075718
0.0728371
0.070629
0.0692357
0.06871
0.0690376
0.0700946
0.0716185
0.0732311
0.0747008
0.0757943
0.0765034
0.10305
0.103872
0.10482
0.105743
0.106625
0.107416
0.108031
0.108367
0.108285
0.107621
0.106207
0.103915
0.10072
0.0967495
0.0922439
0.0875598
0.0831293
0.0791686
0.0756857
0.0728426
0.0707942
0.0696153
0.0692967
0.0697853
0.0709543
0.0725183
0.0740575
0.0753894
0.0763449
0.0771902
0.102702
0.103502
0.104409
0.105341
0.106262
0.107102
0.107776
0.108187
0.108192
0.107621
0.1063
0.104083
0.100931
0.096972
0.09243
0.0876664
0.0831754
0.0791949
0.0757052
0.07291
0.0709874
0.0699868
0.069818
0.0703864
0.071583
0.0731735
0.0747531
0.0760861
0.0769926
0.0779764
0.102391
0.10315
0.104017
0.104955
0.105909
0.106797
0.107531
0.108022
0.108118
0.107636
0.1064
0.104243
0.10111
0.0971355
0.0925335
0.087685
0.0831124
0.079076
0.0755702
0.0728883
0.0711267
0.070312
0.070277
0.0709186
0.0721066
0.0735881
0.075055
0.0763259
0.0773742
0.0788304
0.102116
0.10281
0.103638
0.104587
0.105568
0.106496
0.107285
0.10783
0.10804
0.107665
0.106532
0.10446
0.101383
0.0973894
0.0927066
0.0877652
0.0831822
0.0791017
0.0755511
0.0729035
0.0712792
0.0706164
0.0706418
0.0713505
0.072728
0.0744265
0.0759123
0.0770271
0.0780828
0.0796549
0.101921
0.102482
0.103263
0.104233
0.105274
0.106273
0.107141
0.107774
0.108023
0.107728
0.106662
0.104616
0.101515
0.0974497
0.0926591
0.0875904
0.0830133
0.0789682
0.0754208
0.0728811
0.0714145
0.0707981
0.0707878
0.0713145
0.0725176
0.0742412
0.075869
0.077227
0.0786651
0.0804723
0.101833
0.102197
0.102839
0.10372
0.104746
0.105788
0.106727
0.107479
0.107896
0.107783
0.106882
0.104988
0.101973
0.0978347
0.0929232
0.0877151
0.0829242
0.0786457
0.0751349
0.0727221
0.0714657
0.071018
0.0711565
0.0718413
0.0733381
0.0751971
0.0768262
0.0781782
0.0795652
0.0809769
-0.104439
-0.0884094
-0.0481524
0.00308442
0.0214761
0.0445337
0.0523749
0.0608572
0.0648474
0.0677205
0.0692437
0.070039
0.0703687
0.0704433
0.0704025
0.0703369
0.0702997
0.0703162
0.0703963
0.0705328
0.070729
0.0709497
0.0712348
0.0714908
0.0718632
0.0721789
0.0727294
0.0731916
0.0742088
0.0728985
-0.105696
-0.0953311
-0.05521
-0.00200238
0.020468
0.042927
0.0524808
0.0608445
0.06556
0.0685644
0.0702515
0.0711038
0.0714284
0.0714463
0.0713118
0.0711292
0.0709631
0.0708506
0.0708105
0.0708384
0.0709411
0.0710814
0.0712863
0.0714864
0.0717503
0.0719529
0.0722487
0.0723421
0.0727708
0.0721908
-0.106358
-0.100209
-0.0649412
-0.00886738
0.0181551
0.0401319
0.0517643
0.0604526
0.0659944
0.0693871
0.0713344
0.0723105
0.0726581
0.0726239
0.0723852
0.0720652
0.0717464
0.0714803
0.0712962
0.0711986
0.0711904
0.0712496
0.0713765
0.0715328
0.0717274
0.0719
0.0721062
0.0722128
0.0724902
0.0725641
-0.106597
-0.102195
-0.0737498
-0.0146704
0.0164342
0.0385285
0.0516794
0.0608378
0.0669063
0.0706216
0.0727216
0.0737275
0.0740207
0.0738784
0.0735001
0.0730252
0.0725494
0.0721358
0.0718212
0.0716164
0.0715214
0.0715207
0.071603
0.0717443
0.0719364
0.0721485
0.0723973
0.0726256
0.0729138
0.0731043
-0.107273
-0.101539
-0.0812184
-0.0204333
0.0146143
0.0374966
0.0517775
0.0614685
0.0679527
0.0719851
0.0742527
0.0752997
0.0755411
0.0752848
0.0747557
0.0741111
0.0734592
0.0728762
0.072409
0.0720754
0.0718767
0.0717994
0.0718268
0.0719366
0.0721121
0.0723284
0.0725788
0.0728303
0.0731
0.0733105
-0.108928
-0.102158
-0.089028
-0.0278139
0.0116177
0.0360718
0.0515008
0.061869
0.0688414
0.0732739
0.0758071
0.0769761
0.0772188
0.0768732
0.0761944
0.0753619
0.0745023
0.0737112
0.0730508
0.0725501
0.072215
0.0720335
0.0719849
0.0720436
0.0721858
0.0723853
0.0726245
0.0728794
0.0731521
0.0733993
-0.111236
-0.107227
-0.0984552
-0.0372222
0.00719942
0.033956
0.0507656
0.0619766
0.0695273
0.0744277
0.0773063
0.0786725
0.0789687
0.0785626
0.0777479
0.0767271
0.0756436
0.0746147
0.0737246
0.07302
0.072518
0.07221
0.0720717
0.0720738
0.0721863
0.0723789
0.0726263
0.0729041
0.0732045
0.0734832
-0.113771
-0.115326
-0.108448
-0.0475752
0.00161633
0.0311101
0.049581
0.0617836
0.0699809
0.0753821
0.0786412
0.0802578
0.0806745
0.0802624
0.0793393
0.0781356
0.0768181
0.0755307
0.0743841
0.0734464
0.0727499
0.0722921
0.072048
0.0719846
0.0720675
0.0722597
0.0725265
0.0728376
0.0731795
0.0734991
-0.116187
-0.123878
-0.117845
-0.0581693
-0.00514098
0.0273962
0.0477921
0.0611471
0.0700745
0.0760185
0.0796929
0.081585
0.0821325
0.0817514
0.0807847
0.0794591
0.0779339
0.0763614
0.0748967
0.0736698
0.0727479
0.0721309
0.0717798
0.0716528
0.0717155
0.0719214
0.0722236
0.0725837
0.0729849
0.0733664
-0.118287
-0.131549
-0.126097
-0.0692107
-0.012914
0.022567
0.0450898
0.0597788
0.0695757
0.0761688
0.0803418
0.082555
0.0832455
0.0828806
0.0818464
0.0804195
0.0787791
0.0770357
0.0752899
0.0736935
0.0724296
0.0715796
0.0710977
0.070897
0.0709537
0.0712054
0.0715825
0.0720313
0.0725267
0.073003
-0.120155
-0.137844
-0.132781
-0.079688
-0.0217952
0.0163542
0.0410826
0.0572683
0.0680684
0.0753579
0.0800072
0.0825116
0.0833704
0.083073
0.0819879
0.0803967
0.0785462
0.076616
0.0747107
0.0729627
0.0714779
0.0703979
0.0698066
0.0695201
0.069588
0.069923
0.0704292
0.0710257
0.0716696
0.0722917
-0.121359
-0.142304
-0.13789
-0.088751
-0.0318909
0.0085394
0.0353508
0.052984
0.0646202
0.0724105