/*--------------------------------*- C++ -*----------------------------------*\
  =========                 |
  \\      /  F ield         | OpenFOAM: The Open Source CFD Toolbox
   \\    /   O peration     | Website:  https://openfoam.org
    \\  /    A nd           | Version:  11
     \\/     M anipulation  |
\*---------------------------------------------------------------------------*/
FoamFile
{
    format      ascii;
    class       surfaceScalarField;
    location    "7.4";
    object      phi;
}
// * * * * * * * * * * * * * * * * * * * * * * * * * * * * * * * * * * * * * //

dimensions      [0 3 -1 0 0 0 0];

internalField   nonuniform List<scalar> 
24840
(
1.9242e-05
6.09249e-09
1.92364e-05
5.60336e-09
1.92336e-05
2.79332e-09
1.92338e-05
-1.54149e-10
1.92368e-05
-3.03305e-09
1.92429e-05
-6.11592e-09
1.92522e-05
-9.28693e-09
1.92649e-05
-1.26307e-08
1.92811e-05
-1.62228e-08
1.93013e-05
-2.01794e-08
1.93259e-05
-2.45981e-08
1.93555e-05
-2.95971e-08
1.93908e-05
-3.5323e-08
1.94327e-05
-4.19564e-08
1.94824e-05
-4.9708e-08
1.95413e-05
-5.88171e-08
1.96108e-05
-6.95539e-08
1.9693e-05
-8.22192e-08
1.97902e-05
-9.71451e-08
1.99049e-05
-1.14692e-07
2.00401e-05
-1.35244e-07
2.01993e-05
-1.59196e-07
2.03862e-05
-1.86912e-07
2.0605e-05
-2.18764e-07
2.08602e-05
-2.55167e-07
2.11562e-05
-2.9608e-07
2.14986e-05
-3.42385e-07
2.18872e-05
-3.88549e-07
2.23432e-05
-4.56048e-07
-4.32926e-07
2.27761e-05
1.92529e-05
1.30946e-09
1.92596e-05
-1.07298e-09
1.92685e-05
-6.15852e-09
1.92805e-05
-1.20769e-08
1.92956e-05
-1.81569e-08
1.9314e-05
-2.4542e-08
1.9336e-05
-3.12879e-08
1.93618e-05
-3.8402e-08
1.93914e-05
-4.58475e-08
1.94249e-05
-5.36405e-08
1.94622e-05
-6.19593e-08
1.95038e-05
-7.11784e-08
1.95503e-05
-8.17625e-08
1.96025e-05
-9.41534e-08
1.96615e-05
-1.08757e-07
1.97287e-05
-1.25992e-07
1.98055e-05
-1.46334e-07
1.98936e-05
-1.70338e-07
1.99951e-05
-1.98637e-07
2.01123e-05
-2.31922e-07
2.0248e-05
-2.70949e-07
2.04053e-05
-3.16529e-07
2.05879e-05
-3.69476e-07
2.07997e-05
-4.30578e-07
2.10452e-05
-5.00609e-07
2.13291e-05
-5.80017e-07
2.16567e-05
-6.69975e-07
2.20332e-05
-7.65016e-07
2.24649e-05
-8.87779e-07
-9.15084e-07
2.2947e-05
1.92512e-05
-1.77733e-09
1.92572e-05
-7.07111e-09
1.92658e-05
-1.47189e-08
1.92772e-05
-2.35384e-08
1.92919e-05
-3.27778e-08
1.93097e-05
-4.23882e-08
1.93309e-05
-5.24478e-08
1.93554e-05
-6.29641e-08
1.93835e-05
-7.39451e-08
1.94154e-05
-8.54992e-08
1.94513e-05
-9.79109e-08
1.94918e-05
-1.11649e-07
1.95373e-05
-1.27295e-07
1.95886e-05
-1.45453e-07
1.96466e-05
-1.66734e-07
1.97124e-05
-1.91788e-07
1.97874e-05
-2.21345e-07
1.98733e-05
-2.56239e-07
1.99721e-05
-2.97421e-07
2.00861e-05
-3.45944e-07
2.02181e-05
-4.02967e-07
2.03714e-05
-4.69749e-07
2.05495e-05
-5.47596e-07
2.07567e-05
-6.37794e-07
2.09977e-05
-7.41606e-07
2.12775e-05
-8.5984e-07
2.16017e-05
-9.9419e-07
2.19754e-05
-1.1387e-06
2.24051e-05
-1.31746e-06
-1.40764e-06
2.28977e-05
1.92503e-05
-3.9369e-09
1.92557e-05
-1.24417e-08
1.92638e-05
-2.28259e-08
1.92747e-05
-3.44911e-08
1.92888e-05
-4.68226e-08
1.9306e-05
-5.96235e-08
1.93265e-05
-7.28992e-08
1.93502e-05
-8.66684e-08
1.93772e-05
-1.01009e-07
1.94079e-05
-1.16144e-07
1.94424e-05
-1.32476e-07
1.94814e-05
-1.5057e-07
1.95252e-05
-1.71104e-07
1.95745e-05
-1.94823e-07
1.96303e-05
-2.22522e-07
1.96936e-05
-2.55074e-07
1.97657e-05
-2.93458e-07
1.98483e-05
-3.3879e-07
1.99432e-05
-3.9234e-07
2.00528e-05
-4.55531e-07
2.01797e-05
-5.29937e-07
2.03273e-05
-6.17265e-07
2.0499e-05
-7.1932e-07
2.06991e-05
-8.37946e-07
2.09325e-05
-9.75004e-07
2.12046e-05
-1.13187e-06
2.15212e-05
-1.31078e-06
2.18889e-05
-1.50642e-06
2.23136e-05
-1.74217e-06
-1.90276e-06
2.28087e-05
1.92498e-05
-5.57515e-09
1.92545e-05
-1.719e-08
1.92621e-05
-3.03655e-08
1.92724e-05
-4.48284e-08
1.92857e-05
-6.01158e-08
1.9302e-05
-7.59628e-08
1.93214e-05
-9.2316e-08
1.9344e-05
-1.09216e-07
1.93698e-05
-1.26799e-07
1.9399e-05
-1.45363e-07
1.94319e-05
-1.65403e-07
1.94689e-05
-1.87586e-07
1.95106e-05
-2.12711e-07
1.95574e-05
-2.41667e-07
1.96103e-05
-2.75425e-07
1.96703e-05
-3.15064e-07
1.97386e-05
-3.61801e-07
1.98169e-05
-4.17021e-07
1.99068e-05
-4.82302e-07
2.00107e-05
-5.5942e-07
2.01311e-05
-6.50355e-07
2.02711e-05
-7.5728e-07
2.04344e-05
-8.82544e-07
2.0625e-05
-1.0286e-06
2.0848e-05
-1.19799e-06
2.1109e-05
-1.39288e-06
2.14144e-05
-1.6162e-06
2.17721e-05
-1.86407e-06
2.21883e-05
-2.15838e-06
-2.39416e-06
2.26797e-05
1.92495e-05
-6.96069e-09
1.92538e-05
-2.14272e-08
1.92607e-05
-3.73217e-08
1.92704e-05
-5.44838e-08
1.92828e-05
-7.25659e-08
1.92981e-05
-9.12894e-08
1.93164e-05
-1.10555e-07
1.93376e-05
-1.30404e-07
1.93618e-05
-1.51021e-07
1.93892e-05
-1.72779e-07
1.94201e-05
-1.96261e-07
1.94547e-05
-2.22239e-07
1.94936e-05
-2.51626e-07
1.95374e-05
-2.85448e-07
1.95868e-05
-3.24841e-07
1.96428e-05
-3.71067e-07
1.97066e-05
-4.2556e-07
1.97795e-05
-4.89956e-07
1.98634e-05
-5.66128e-07
1.99601e-05
-6.56201e-07
2.00723e-05
-7.62563e-07
2.02029e-05
-8.87862e-07
2.03554e-05
-1.035e-06
2.05339e-05
-1.20711e-06
2.07434e-05
-1.40751e-06
2.09899e-05
-1.63934e-06
2.12802e-05
-1.90653e-06
2.16233e-05
-2.20714e-06
2.20265e-05
-2.5616e-06
-2.878e-06
2.25103e-05
1.92494e-05
-8.1896e-09
1.92531e-05
-2.5211e-08
1.92595e-05
-4.36552e-08
1.92684e-05
-6.3363e-08
1.92798e-05
-8.4046e-08
1.9294e-05
-1.05431e-07
1.93108e-05
-1.27391e-07
1.93304e-05
-1.49969e-07
1.93528e-05
-1.73389e-07
1.93781e-05
-1.98086e-07
1.94065e-05
-2.24723e-07
1.94384e-05
-2.54162e-07
1.94742e-05
-2.87429e-07
1.95145e-05
-3.25678e-07
1.95598e-05
-3.70192e-07
1.96112e-05
-4.22405e-07
1.96695e-05
-4.83944e-07
1.97363e-05
-5.5668e-07
1.98129e-05
-6.42759e-07
1.99013e-05
-7.44635e-07
2.00039e-05
-8.65084e-07
2.01232e-05
-1.00723e-06
2.02628e-05
-1.17453e-06
2.04265e-05
-1.37085e-06
2.06194e-05
-1.60038e-06
2.08474e-05
-1.86742e-06
2.1118e-05
-2.17714e-06
2.14411e-05
-2.53015e-06
2.18252e-05
-2.94573e-06
-3.34824e-06
2.22954e-05
1.92492e-05
-9.28329e-09
1.92526e-05
-2.85733e-08
1.92583e-05
-4.93423e-08
1.92663e-05
-7.13932e-08
1.92767e-05
-9.44551e-08
1.92895e-05
-1.18262e-07
1.93048e-05
-1.42672e-07
1.93226e-05
-1.67728e-07
1.93429e-05
-1.93682e-07
1.93658e-05
-2.21022e-07
1.93916e-05
-2.5048e-07
1.94204e-05
-2.83005e-07
1.94527e-05
-3.19722e-07
1.94889e-05
-3.61904e-07
1.95297e-05
-4.10963e-07
1.95758e-05
-4.68483e-07
1.96281e-05
-5.36261e-07
1.96878e-05
-6.1637e-07
1.97562e-05
-7.11206e-07
1.98351e-05
-8.23524e-07
1.99265e-05
-9.56468e-07
2.00329e-05
-1.11361e-06
2.01573e-05
-1.29898e-06
2.03036e-05
-1.51715e-06
2.04765e-05
-1.77328e-06
2.06821e-05
-2.07296e-06
2.09278e-05
-2.42287e-06
2.12244e-05
-2.82672e-06
2.15817e-05
-3.30301e-06
-3.79596e-06
2.20294e-05
1.92491e-05
-1.02445e-08
1.9252e-05
-3.15255e-08
1.92571e-05
-5.43616e-08
1.92642e-05
-7.85128e-08
1.92734e-05
-1.03702e-07
1.92848e-05
-1.29663e-07
1.92984e-05
-1.56246e-07
1.93142e-05
-1.83493e-07
1.93322e-05
-2.11679e-07
1.93525e-05
-2.41336e-07
1.93753e-05
-2.73255e-07
1.94007e-05
-3.08458e-07
1.94291e-05
-3.48158e-07
1.9461e-05
-3.93729e-07
1.94967e-05
-4.46697e-07
1.9537e-05
-5.08768e-07
1.95826e-05
-5.81882e-07
1.96345e-05
-6.68288e-07
1.96939e-05
-7.70594e-07
1.97622e-05
-8.91819e-07
1.98412e-05
-1.03543e-06
1.9933e-05
-1.20541e-06
2.00403e-05
-1.40632e-06
2.01666e-05
-1.64344e-06
2.03162e-05
-1.92289e-06
2.04949e-05
-2.25164e-06
2.07101e-05
-2.6381e-06
2.09729e-05
-3.08947e-06
2.12939e-05
-3.62399e-06
-4.20899e-06
2.17069e-05
1.9249e-05
-1.10719e-08
1.92515e-05
-3.40656e-08
1.92558e-05
-5.86904e-08
1.9262e-05
-8.46681e-08
1.927e-05
-1.11705e-07
1.92799e-05
-1.39528e-07
1.92916e-05
-1.67982e-07
1.93052e-05
-1.97109e-07
1.93207e-05
-2.272e-07
1.93382e-05
-2.58822e-07
1.93578e-05
-2.92814e-07
1.93796e-05
-3.30258e-07
1.94039e-05
-3.72442e-07
1.94309e-05
-4.2082e-07
1.94613e-05
-4.77011e-07
1.94953e-05
-5.42816e-07
1.95337e-05
-6.20292e-07
1.95773e-05
-7.11821e-07
1.96268e-05
-8.20184e-07
1.96836e-05
-9.48614e-07
1.97491e-05
-1.10085e-06
1.98249e-05
-1.28121e-06
1.99133e-05
-1.49473e-06
2.00171e-05
-1.74733e-06
2.01403e-05
-2.04603e-06
2.02878e-05
-2.39918e-06
2.04667e-05
-2.81696e-06
2.06876e-05
-3.31035e-06
2.09613e-05
-3.8977e-06
-4.57203e-06
2.13243e-05
1.92488e-05
-1.17625e-08
1.92509e-05
-3.61856e-08
1.92546e-05
-6.23062e-08
1.92597e-05
-8.98144e-08
1.92664e-05
-1.18396e-07
1.92746e-05
-1.47769e-07
1.92844e-05
-1.77772e-07
1.92958e-05
-2.08446e-07
1.93087e-05
-2.40095e-07
1.93231e-05
-2.73309e-07
1.93393e-05
-3.08965e-07
1.93572e-05
-3.48191e-07
1.93771e-05
-3.92332e-07
1.93992e-05
-4.42905e-07
1.94238e-05
-5.01594e-07
1.94512e-05
-5.70272e-07
1.9482e-05
-6.51073e-07
1.95167e-05
-7.46477e-07
1.95559e-05
-8.59387e-07
1.96005e-05
-9.93187e-07
1.96514e-05
-1.15181e-06
1.97101e-05
-1.33984e-06
1.9778e-05
-1.56267e-06
1.98574e-05
-1.82673e-06
1.99512e-05
-2.13983e-06
2.00635e-05
-2.51152e-06
2.02003e-05
-2.95372e-06
2.0371e-05
-3.48102e-06
2.05856e-05
-4.1123e-06
-4.86709e-06
2.08806e-05
1.92487e-05
-1.23136e-08
1.92504e-05
-3.78765e-08
1.92533e-05
-6.51894e-08
1.92574e-05
-9.3916e-08
1.92627e-05
-1.23724e-07
1.92692e-05
-1.54318e-07
1.9277e-05
-1.8553e-07
1.9286e-05
-2.17403e-07
1.92961e-05
-2.50244e-07
1.93075e-05
-2.84663e-07
1.932e-05
-3.21558e-07
1.93339e-05
-3.62093e-07
1.93493e-05
-4.07647e-07
1.93661e-05
-4.59782e-07
1.93848e-05
-5.20222e-07
1.94054e-05
-5.90881e-07
1.94282e-05
-6.73934e-07
1.94537e-05
-7.71915e-07
1.94821e-05
-8.87791e-07
1.95139e-05
-1.02503e-06
1.95498e-05
-1.18768e-06
1.95904e-05
-1.38045e-06
1.96367e-05
-1.60898e-06
1.969e-05
-1.88002e-06
1.97521e-05
-2.20195e-06
1.98258e-05
-2.58524e-06
1.99153e-05
-3.0432e-06
2.00279e-05
-3.59361e-06
2.01716e-05
-4.25593e-06
-5.07481e-06
2.03793e-05
1.92485e-05
-1.27227e-08
1.92498e-05
-3.9131e-08
1.92519e-05
-6.73249e-08
1.9255e-05
-9.69471e-08
1.92589e-05
-1.27648e-07
1.92637e-05
-1.59122e-07
1.92694e-05
-1.91195e-07
1.92759e-05
-2.23904e-07
1.92832e-05
-2.57564e-07
1.92913e-05
-2.92789e-07
1.93002e-05
-3.30491e-07
1.931e-05
-3.71851e-07
1.93206e-05
-4.18268e-07
1.93322e-05
-4.71323e-07
1.93447e-05
-5.32756e-07
1.93583e-05
-6.04489e-07
1.93731e-05
-6.88706e-07
1.93891e-05
-7.87942e-07
1.94065e-05
-9.05173e-07
1.94253e-05
-1.04387e-06
1.94457e-05
-1.20809e-06
1.94679e-05
-1.40257e-06
1.94919e-05
-1.63298e-06
1.9518e-05
-1.90619e-06
1.95469e-05
-2.23083e-06
1.95795e-05
-2.61785e-06
1.96177e-05
-3.08143e-06
1.96657e-05
-3.64159e-06
1.97279e-05
-4.31814e-06
-5.17655e-06
1.98297e-05
1.92484e-05
-1.29888e-08
1.92492e-05
-3.99448e-08
1.92506e-05
-6.87042e-08
1.92525e-05
-9.88921e-08
1.9255e-05
-1.30146e-07
1.92581e-05
-1.62151e-07
1.92616e-05
-1.94726e-07
1.92656e-05
-2.27906e-07
1.927e-05
-2.62003e-07
1.92749e-05
-2.97632e-07
1.92801e-05
-3.35706e-07
1.92857e-05
-3.77407e-07
1.92915e-05
-4.24136e-07
1.92977e-05
-4.77471e-07
1.93041e-05
-5.39141e-07
1.93106e-05
-6.1105e-07
1.93173e-05
-6.95347e-07
1.93238e-05
-7.94527e-07
1.93302e-05
-9.11509e-07
1.9336e-05
-1.04969e-06
1.93409e-05
-1.21303e-06
1.93445e-05
-1.40615e-06
1.93461e-05
-1.63455e-06
1.93449e-05
-1.90497e-06
1.93399e-05
-2.22588e-06
1.93303e-05
-2.60819e-06
1.9315e-05
-3.06618e-06
1.92942e-05
-3.62077e-06
1.92675e-05
-4.29143e-06
-5.15737e-06
1.92483e-05
1.92483e-05
-1.31101e-08
1.92486e-05
-4.03189e-08
1.92493e-05
-6.93261e-08
1.92501e-05
-9.97473e-08
1.92512e-05
-1.3121e-07
1.92524e-05
-1.63393e-07
1.92538e-05
-1.9611e-07
1.92553e-05
-2.29392e-07
1.92568e-05
-2.63544e-07
1.92584e-05
-2.99176e-07
1.92599e-05
-3.37191e-07
1.92612e-05
-3.78756e-07
1.92623e-05
-4.25256e-07
1.92631e-05
-4.78244e-07
1.92634e-05
-5.39414e-07
1.92629e-05
-6.10619e-07
1.92615e-05
-6.93944e-07
1.92588e-05
-7.91796e-07
1.92543e-05
-9.06976e-07
1.92473e-05
-1.04273e-06
1.92371e-05
-1.20281e-06
1.92225e-05
-1.39156e-06
1.92021e-05
-1.61416e-06
1.9174e-05
-1.87689e-06
1.91358e-05
-2.18767e-06
1.90844e-05
-2.55673e-06
1.90157e-05
-2.99753e-06
1.89252e-05
-3.53028e-06
1.88068e-05
-4.173e-06
-5.00928e-06
1.86587e-05
1.92481e-05
-1.30923e-08
1.92481e-05
-4.02547e-08
1.92479e-05
-6.91954e-08
1.92477e-05
-9.95192e-08
1.92473e-05
-1.30848e-07
1.92468e-05
-1.62857e-07
1.9246e-05
-1.95357e-07
1.9245e-05
-2.28374e-07
1.92437e-05
-2.62205e-07
1.9242e-05
-2.97445e-07
1.92397e-05
-3.34976e-07
1.92369e-05
-3.75941e-07
1.92334e-05
-4.2169e-07
1.92288e-05
-4.73728e-07
1.92231e-05
-5.33691e-07
1.92159e-05
-6.03355e-07
1.92066e-05
-6.84708e-07
1.91949e-05
-7.80027e-07
1.91798e-05
-8.91944e-07
1.91606e-05
-1.02347e-06
1.91358e-05
-1.17806e-06
1.91039e-05
-1.35966e-06
1.90627e-05
-1.5729e-06
1.90091e-05
-1.82336e-06
1.89394e-05
-2.11798e-06
1.88484e-05
-2.4657e-06
1.87291e-05
-2.87819e-06
1.8572e-05
-3.37326e-06
1.83651e-05
-3.96607e-06
-4.73418e-06
1.809e-05
1.9248e-05
-1.29338e-08
1.92475e-05
-3.97648e-08
1.92466e-05
-6.83294e-08
1.92453e-05
-9.8229e-08
1.92436e-05
-1.29084e-07
1.92413e-05
-1.60571e-07
1.92384e-05
-1.92501e-07
1.92349e-05
-2.24893e-07
1.92308e-05
-2.58034e-07
1.92258e-05
-2.92497e-07
1.922e-05
-3.29137e-07
1.92131e-05
-3.69058e-07
1.9205e-05
-4.13556e-07
1.91953e-05
-4.64074e-07
1.91838e-05
-5.22165e-07
1.91699e-05
-5.89508e-07
1.91532e-05
-6.67963e-07
1.91328e-05
-7.59644e-07
1.91078e-05
-8.66962e-07
1.9077e-05
-9.92643e-07
1.90387e-05
-1.13974e-06
1.89907e-05
-1.3117e-06
1.89302e-05
-1.51244e-06
1.88535e-05
-1.74659e-06
1.87553e-05
-2.01978e-06
1.86287e-05
-2.33909e-06
1.8464e-05
-2.71357e-06
1.82478e-05
-3.15699e-06
1.79621e-05
-3.6804e-06
-4.34545e-06
1.75734e-05
1.92478e-05
-1.26417e-08
1.92469e-05
-3.88621e-08
1.92454e-05
-6.67509e-08
1.9243e-05
-9.59083e-08
1.92399e-05
-1.25958e-07
1.92359e-05
-1.56583e-07
1.9231e-05
-1.87597e-07
1.92251e-05
-2.19017e-07
1.92182e-05
-2.51111e-07
1.92102e-05
-2.84429e-07
1.92008e-05
-3.1979e-07
1.919e-05
-3.58244e-07
1.91775e-05
-4.01025e-07
1.91629e-05
-4.49491e-07
1.91458e-05
-5.051e-07
1.91257e-05
-5.69409e-07
1.91019e-05
-6.44133e-07
1.90734e-05
-7.3119e-07
1.90392e-05
-8.32735e-07
1.89977e-05
-9.51152e-07
1.8947e-05
-1.08905e-06
1.88846e-05
-1.24926e-06
1.88071e-05
-1.43492e-06
1.871e-05
-1.6495e-06
1.85873e-05
-1.89706e-06
1.84306e-05
-2.18244e-06
1.82285e-05
-2.51143e-06
1.79641e-05
-2.8926e-06
1.76155e-05
-3.33187e-06
-3.86747e-06
1.71376e-05
1.92477e-05
-1.22224e-08
1.92464e-05
-3.75672e-08
1.92442e-05
-6.44934e-08
1.92409e-05
-9.2602e-08
1.92364e-05
-1.21526e-07
1.92308e-05
-1.5096e-07
1.92239e-05
-1.80726e-07
1.92157e-05
-2.10836e-07
1.92062e-05
-2.41544e-07
1.91951e-05
-2.73369e-07
1.91824e-05
-3.07084e-07
1.91679e-05
-3.4368e-07
1.91511e-05
-3.84311e-07
1.91319e-05
-4.30242e-07
1.91096e-05
-4.82817e-07
1.90837e-05
-5.43462e-07
1.90533e-05
-6.13725e-07
1.90174e-05
-6.95308e-07
1.89747e-05
-7.90086e-07
1.89236e-05
-9.00074e-07
1.8862e-05
-1.0274e-06
1.8787e-05
-1.17424e-06
1.86949e-05
-1.34285e-06
1.85809e-05
-1.53552e-06
1.84384e-05
-1.75456e-06
1.82584e-05
-2.00239e-06
1.80282e-05
-2.28126e-06
1.77295e-05
-2.59394e-06
1.73385e-05
-2.94084e-06
-3.33283e-06
1.68039e-05
1.92476e-05
-1.16846e-08
1.92459e-05
-3.59073e-08
1.9243e-05
-6.16007e-08
1.92388e-05
-8.83678e-08
1.92331e-05
-1.15856e-07
1.9226e-05
-1.43784e-07
1.92172e-05
-1.71986e-07
1.92069e-05
-2.0047e-07
1.91948e-05
-2.29471e-07
1.91809e-05
-2.59475e-07
1.9165e-05
-2.91205e-07
1.91469e-05
-3.25582e-07
1.91263e-05
-3.63673e-07
1.91027e-05
-4.06635e-07
1.90755e-05
-4.55691e-07
1.90442e-05
-5.12125e-07
1.90078e-05
-5.77306e-07
1.89652e-05
-6.52713e-07
1.8915e-05
-7.39926e-07
1.88555e-05
-8.40583e-07
1.87845e-05
-9.56312e-07
1.86989e-05
-1.08865e-06
1.8595e-05
-1.23897e-06
1.84678e-05
-1.40835e-06
1.83107e-05
-1.59743e-06
1.81145e-05
-1.80617e-06
1.78666e-05
-2.03341e-06
1.75489e-05
-2.27618e-06
1.71378e-05
-2.52975e-06
-2.77788e-06
1.65828e-05
1.92475e-05
-1.10395e-08
1.92455e-05
-3.39171e-08
1.9242e-05
-5.81276e-08
1.92369e-05
-8.32761e-08
1.92301e-05
-1.09035e-07
1.92215e-05
-1.35157e-07
1.9211e-05
-1.61495e-07
1.91986e-05
-1.88055e-07
1.91842e-05
-2.1505e-07
1.91676e-05
-2.4293e-07
1.91488e-05
-2.72364e-07
1.91274e-05
-3.04197e-07
1.91031e-05
-3.39398e-07
1.90755e-05
-3.79013e-07
1.90439e-05
-4.24135e-07
1.90077e-05
-4.75897e-07
1.89659e-05
-5.35489e-07
1.89173e-05
-6.04165e-07
1.88606e-05
-6.83212e-07
1.87939e-05
-7.73899e-07
1.8715e-05
-8.77379e-07
1.86209e-05
-9.94577e-07
1.8508e-05
-1.12604e-06
1.83714e-05
-1.27175e-06
1.82048e-05
-1.43079e-06
1.79996e-05
-1.60097e-06
1.77442e-05
-1.77809e-06
1.74223e-05
-1.95419e-06
1.70128e-05
-2.12033e-06
-2.23726e-06
1.64722e-05
1.92474e-05
-1.03014e-08
1.92451e-05
-3.16412e-08
1.92411e-05
-5.41422e-08
1.92353e-05
-7.74098e-08
1.92274e-05
-1.0116e-07
1.92174e-05
-1.25195e-07
1.92053e-05
-1.49392e-07
1.9191e-05
-1.7375e-07
1.91744e-05
-1.98463e-07
1.91554e-05
-2.23943e-07
1.91339e-05
-2.508e-07
1.91095e-05
-2.79798e-07
1.90819e-05
-3.11803e-07
1.90506e-05
-3.47745e-07
1.90151e-05
-3.88583e-07
1.89745e-05
-4.35302e-07
1.89279e-05
-4.88911e-07
1.88742e-05
-5.50442e-07
1.88119e-05
-6.20909e-07
1.87392e-05
-7.01237e-07
1.8654e-05
-7.92149e-07
1.85534e-05
-8.94026e-07
1.84341e-05
-1.00671e-06
1.82916e-05
-1.12924e-06
1.81202e-05
-1.25944e-06
1.79126e-05
-1.39337e-06
1.7659e-05
-1.52449e-06
1.73459e-05
-1.64107e-06
1.69568e-05
-1.73125e-06
-1.73933e-06
1.64589e-05
1.92473e-05
-9.48897e-09
1.92448e-05
-2.91387e-08
1.92404e-05
-4.97282e-08
1.92339e-05
-7.0864e-08
1.9225e-05
-9.23372e-08
1.92139e-05
-1.14024e-07
1.92003e-05
-1.35825e-07
1.91843e-05
-1.5773e-07
1.91657e-05
-1.79911e-07
1.91445e-05
-2.02744e-07
1.91205e-05
-2.26774e-07
1.90934e-05
-2.5268e-07
1.90628e-05
-2.81226e-07
1.90283e-05
-3.13221e-07
1.89892e-05
-3.49493e-07
1.89448e-05
-3.90876e-07
1.88941e-05
-4.38208e-07
1.88359e-05
-4.92313e-07
1.8769e-05
-5.53955e-07
1.86915e-05
-6.23757e-07
1.86014e-05
-7.02076e-07
1.84962e-05
-7.88848e-07
1.83729e-05
-8.83356e-07
1.82276e-05
-9.83934e-07
1.80556e-05
-1.0875e-06
1.78512e-05
-1.18889e-06
1.76067e-05
-1.28006e-06
1.73127e-05
-1.34703e-06
1.69579e-05
-1.37645e-06
-1.30409e-06
1.65226e-05
1.92473e-05
-8.62844e-09
1.92446e-05
-2.64903e-08
1.92399e-05
-4.49865e-08
1.92328e-05
-6.37441e-08
1.92231e-05
-8.26892e-08
1.92109e-05
-1.0179e-07
1.9196e-05
-1.20959e-07
1.91785e-05
-1.40179e-07
1.91582e-05
-1.59603e-07
1.9135e-05
-1.79569e-07
1.91088e-05
-2.00556e-07
1.90792e-05
-2.23153e-07
1.9046e-05
-2.48018e-07
1.90086e-05
-2.75842e-07
1.89665e-05
-3.07323e-07
1.89188e-05
-3.4315e-07
1.88645e-05
-3.84001e-07
1.88027e-05
-4.30513e-07
1.8732e-05
-4.83232e-07
1.86508e-05
-5.42527e-07
1.85572e-05
-6.08465e-07
1.8449e-05
-6.80651e-07
1.83236e-05
-7.57988e-07
1.8178e-05
-8.38364e-07
1.80087e-05
-9.18176e-07
1.78115e-05
-9.91655e-07
1.75815e-05
-1.0501e-06
1.73133e-05
-1.07883e-06
1.70012e-05
-1.06434e-06
-9.41688e-07
1.66388e-05
1.92473e-05
-7.76446e-09
1.92446e-05
-2.38149e-08
1.92396e-05
-4.00326e-08
1.9232e-05
-5.61534e-08
1.92217e-05
-7.234e-08
1.92086e-05
-8.86486e-08
1.91926e-05
-1.04981e-07
1.91737e-05
-1.21308e-07
1.91519e-05
-1.37778e-07
1.9127e-05
-1.54684e-07
1.90989e-05
-1.72439e-07
1.90673e-05
-1.9154e-07
1.90318e-05
-2.1254e-07
1.8992e-05
-2.36013e-07
1.89472e-05
-2.62531e-07
1.88967e-05
-2.92647e-07
1.88396e-05
-3.2689e-07
1.87748e-05
-3.65734e-07
1.87011e-05
-4.09543e-07
1.8617e-05
-4.58485e-07
1.8521e-05
-5.12422e-07
1.84111e-05
-5.70748e-07
1.82853e-05
-6.32167e-07
1.81413e-05
-6.94387e-07
1.79768e-05
-7.5368e-07
1.77894e-05
-8.0425e-07
1.75769e-05
-8.37579e-07
1.73377e-05
-8.39679e-07
1.70714e-05
-7.98037e-07
-6.53388e-07
1.67831e-05
1.92473e-05
-6.97898e-09
1.92448e-05
-2.13059e-08
1.92398e-05
-3.50014e-08
1.92318e-05
-4.81954e-08
1.92209e-05
-6.14071e-08
1.9207e-05
-7.47325e-08
1.91901e-05
-8.80408e-08
1.91701e-05
-1.01304e-07
1.91469e-05
-1.14657e-07
1.91206e-05
-1.28349e-07
1.90909e-05
-1.42719e-07
1.90575e-05
-1.58176e-07
1.90201e-05
-1.75166e-07
1.89783e-05
-1.94149e-07
1.89313e-05
-2.15575e-07
1.88785e-05
-2.39873e-07
1.88191e-05
-2.67438e-07
1.8752e-05
-2.98611e-07
1.8676e-05
-3.33606e-07
1.859e-05
-3.72441e-07
1.84924e-05
-4.14849e-07
1.83818e-05
-4.60136e-07
1.82566e-05
-5.06984e-07
1.81154e-05
-5.53173e-07
1.79569e-05
-5.95201e-07
1.77804e-05
-6.27746e-07
1.7586e-05
-6.4317e-07
1.73757e-05
-6.29313e-07
1.71533e-05
-5.7564e-07
-4.33322e-07
1.69332e-05
1.92476e-05
-6.43171e-09
1.92455e-05
-1.92259e-08
1.92405e-05
-3.00412e-08
1.92324e-05
-4.00356e-08
1.92211e-05
-5.00973e-08
1.92066e-05
-6.02527e-08
1.91889e-05
-7.03501e-08
1.9168e-05
-8.03872e-08
1.91438e-05
-9.0483e-08
1.91163e-05
-1.0083e-07
1.90853e-05
-1.1169e-07
1.90505e-05
-1.23378e-07
1.90115e-05
-1.36244e-07
1.8968e-05
-1.50636e-07
1.89193e-05
-1.66889e-07
1.88648e-05
-1.85313e-07
1.88035e-05
-2.06185e-07
1.87347e-05
-2.29741e-07
1.86571e-05
-2.56079e-07
1.85698e-05
-2.85102e-07
1.84714e-05
-3.16491e-07
1.83609e-05
-3.49572e-07
1.8237e-05
-3.83158e-07
1.80992e-05
-4.1531e-07
1.7947e-05
-4.43063e-07
1.77813e-05
-4.6196e-07
1.76039e-05
-4.6578e-07
1.74194e-05
-4.44811e-07
1.72352e-05
-3.91512e-07
-2.69476e-07
1.70714e-05
1.92484e-05
-6.65524e-09
1.92468e-05
-1.77081e-08
1.92419e-05
-2.5114e-08
1.92336e-05
-3.17157e-08
1.9222e-05
-3.85054e-08
1.92071e-05
-4.5356e-08
1.91889e-05
-5.21333e-08
1.91674e-05
-5.88508e-08
1.91425e-05
-6.55913e-08
1.91141e-05
-7.24895e-08
1.90822e-05
-7.9738e-08
1.90464e-05
-8.75735e-08
1.90064e-05
-9.6247e-08
1.89617e-05
-1.05998e-07
1.89119e-05
-1.17046e-07
1.88562e-05
-1.29584e-07
1.87938e-05
-1.43781e-07
1.87238e-05
-1.59818e-07
1.86454e-05
-1.77679e-07
1.85575e-05
-1.97166e-07
1.8459e-05
-2.18e-07
1.83491e-05
-2.39631e-07
1.8227e-05
-2.61118e-07
1.80927e-05
-2.80952e-07
1.79465e-05
-2.96908e-07
1.77902e-05
-3.05644e-07
1.76271e-05
-3.02719e-07
1.74631e-05
-2.80791e-07
1.73089e-05
-2.3729e-07
-1.45528e-07
1.71849e-05
1.92511e-05
-9.59706e-09
1.92495e-05
-1.6088e-08
1.9244e-05
-1.96592e-08
1.92354e-05
-2.31545e-08
1.92235e-05
-2.65367e-08
1.92079e-05
-2.98139e-08
1.91889e-05
-3.30622e-08
1.91663e-05
-3.63247e-08
1.91404e-05
-3.96555e-08
1.9111e-05
-4.31436e-08
1.90782e-05
-4.68902e-08
1.90416e-05
-5.09921e-08
1.90009e-05
-5.55451e-08
1.89556e-05
-6.06506e-08
1.89049e-05
-6.64116e-08
1.88483e-05
-7.29231e-08
1.87847e-05
-8.02533e-08
1.87133e-05
-8.83733e-08
1.86329e-05
-9.73045e-08
1.85428e-05
-1.07043e-07
1.84422e-05
-1.17371e-07
1.83305e-05
-1.27918e-07
1.82075e-05
-1.38105e-07
1.80736e-05
-1.47053e-07
1.79301e-05
-1.53468e-07
1.77799e-05
-1.55479e-07
1.76278e-05
-1.50594e-07
1.74817e-05
-1.3467e-07
1.73505e-05
-1.06095e-07
-3.34546e-08
1.72384e-05
1.92385e-05
1.92224e-05
1.92028e-05
1.91796e-05
1.91531e-05
1.91233e-05
1.90902e-05
1.90539e-05
1.90142e-05
1.89711e-05
1.89242e-05
1.88732e-05
1.88177e-05
1.8757e-05
1.86906e-05
1.86177e-05
1.85374e-05
1.84491e-05
1.83518e-05
1.82447e-05
1.81273e-05
1.79994e-05
1.78613e-05
1.77143e-05
1.75608e-05
1.74053e-05
1.72547e-05
1.71201e-05
1.7014e-05
1.69805e-05
2.2334e-05
-1.05801e-05
1.10222e-05
2.18867e-05
-1.07143e-05
1.11615e-05
2.14113e-05
-1.08417e-05
1.13171e-05
2.09045e-05
-1.0958e-05
1.14648e-05
2.03728e-05
-1.10721e-05
1.16038e-05
1.98223e-05
-1.11882e-05
1.17386e-05
1.92573e-05
-1.1307e-05
1.18721e-05
1.86806e-05
-1.14298e-05
1.20065e-05
1.80943e-05
-1.15578e-05
1.21441e-05
1.74993e-05
-1.1692e-05
1.2287e-05
1.68955e-05
-1.18328e-05
1.24366e-05
1.62824e-05
-1.19809e-05
1.2594e-05
1.56593e-05
-1.21371e-05
1.27602e-05
1.50253e-05
-1.23025e-05
1.29365e-05
1.43795e-05
-1.24787e-05
1.31245e-05
1.37207e-05
-1.26672e-05
1.3326e-05
1.30475e-05
-1.28704e-05
1.35435e-05
1.23579e-05
-1.30906e-05
1.37801e-05
1.16494e-05
-1.33306e-05
1.40391e-05
1.09186e-05
-1.35941e-05
1.43249e-05
1.01612e-05
-1.38852e-05
1.46427e-05
9.37128e-06
-1.4209e-05
1.49989e-05
8.54132e-06
-1.45717e-05
1.54016e-05
7.66092e-06
-1.49814e-05
1.58618e-05
6.71577e-06
-1.54456e-05
1.63908e-05
5.68549e-06
-1.59795e-05
1.70098e-05
4.55059e-06
-1.65858e-05
1.77207e-05
3.22959e-06
-1.73073e-05
1.86283e-05
1.81086e-06
-1.80398e-05
1.94586e-05
-1.92449e-05
2.10558e-05
2.24776e-05
-1.01106e-05
2.19725e-05
-1.02092e-05
2.14414e-05
-1.03105e-05
2.08947e-05
-1.04113e-05
2.03374e-05
-1.05149e-05
1.9772e-05
-1.06228e-05
1.91999e-05
-1.07349e-05
1.86213e-05
-1.08513e-05
1.80359e-05
-1.09724e-05
1.74426e-05
-1.10987e-05
1.68404e-05
-1.12306e-05
1.62284e-05
-1.13689e-05
1.56058e-05
-1.15145e-05
1.49719e-05
-1.16686e-05
1.43258e-05
-1.18325e-05
1.36663e-05
-1.20077e-05
1.29917e-05
-1.21958e-05
1.23e-05
-1.23989e-05
1.15885e-05
-1.26191e-05
1.08537e-05
-1.28593e-05
1.00912e-05
-1.31227e-05
9.29541e-06
-1.34132e-05
8.45871e-06
-1.3735e-05
7.57115e-06
-1.40939e-05
6.61944e-06
-1.44939e-05
5.58605e-06
-1.49461e-05
4.44622e-06
-1.54459e-05
3.16261e-06
-1.60237e-05
1.73761e-06
-1.66148e-05
-1.75073e-05
2.23863e-05
-9.59926e-06
2.18604e-05
-9.68334e-06
2.13223e-05
-9.77239e-06
2.07771e-05
-9.86618e-06
2.02263e-05
-9.96398e-06
1.96687e-05
-1.00652e-05
1.91036e-05
-1.01698e-05
1.85302e-05
-1.02779e-05
1.79479e-05
-1.039e-05
1.73561e-05
-1.05069e-05
1.67546e-05
-1.0629e-05
1.61429e-05
-1.07572e-05
1.55205e-05
-1.08922e-05
1.48869e-05
-1.1035e-05
1.42408e-05
-1.11865e-05
1.3581e-05
-1.13479e-05
1.29057e-05
-1.15205e-05
1.22126e-05
-1.17058e-05
1.14991e-05
-1.19056e-05
1.07617e-05
-1.21219e-05
9.99605e-06
-1.23571e-05
9.19649e-06
-1.26136e-05
8.35582e-06
-1.28943e-05
7.46457e-06
-1.32026e-05
6.51051e-06
-1.35398e-05
5.47746e-06
-1.39131e-05
4.34318e-06
-1.43116e-05
3.08273e-06
-1.47632e-05
1.66592e-06
-1.5198e-05
-1.58414e-05
2.22889e-05
-9.07941e-06
2.17603e-05
-9.15482e-06
2.12229e-05
-9.2349e-06
2.0678e-05
-9.32136e-06
2.01261e-05
-9.41205e-06
1.95663e-05
-9.5054e-06
1.89981e-05
-9.60155e-06
1.84214e-05
-9.70118e-06
1.78362e-05
-9.80483e-06
1.72422e-05
-9.91293e-06
1.66391e-05
-1.0026e-05
1.60264e-05
-1.01444e-05
1.54031e-05
-1.0269e-05
1.47683e-05
-1.04002e-05
1.41209e-05
-1.0539e-05
1.34591e-05
-1.06862e-05
1.27814e-05
-1.08428e-05
1.20855e-05
-1.10099e-05
1.13687e-05
-1.11888e-05
1.06276e-05
-1.13808e-05
9.85792e-06
-1.15874e-05
9.05429e-06
-1.181e-05
8.2099e-06
-1.20499e-05
7.31601e-06
-1.23087e-05
6.36161e-06
-1.25854e-05
5.33224e-06
-1.28837e-05
4.20954e-06
-1.31889e-05
2.97291e-06
-1.35266e-05
1.58583e-06
-1.38109e-05
-1.42556e-05
2.21538e-05
-8.55355e-06
2.16206e-05
-8.62163e-06
2.10795e-05
-8.6938e-06
2.05313e-05
-8.77313e-06
1.99761e-05
-8.85687e-06
1.94136e-05
-8.9429e-06
1.88435e-05
-9.03142e-06
1.82655e-05
-9.12321e-06
1.76794e-05
-9.21873e-06
1.70847e-05
-9.31822e-06
1.64807e-05
-9.42199e-06
1.58668e-05
-9.53047e-06
1.5242e-05
-9.64415e-06
1.46053e-05
-9.76357e-06
1.39556e-05
-9.8893e-06
1.32914e-05
-1.0022e-05
1.2611e-05
-1.01623e-05
1.19121e-05
-1.0311e-05
1.11921e-05
-1.04688e-05
1.04477e-05
-1.06364e-05
9.67484e-06
-1.08146e-05
8.86853e-06
-1.10037e-05
8.0225e-06
-1.12039e-05
7.12885e-06
-1.14151e-05
6.17794e-06
-1.16345e-05
5.15722e-06
-1.1863e-05
4.05186e-06
-1.20836e-05
2.84342e-06
-1.23182e-05
1.50016e-06
-1.24677e-05
-1.27554e-05
2.19796e-05
-8.02281e-06
2.14424e-05
-8.08438e-06
2.0898e-05
-8.14943e-06
2.03469e-05
-8.22204e-06
1.97891e-05
-8.29911e-06
1.92243e-05
-8.37808e-06
1.8652e-05
-8.45912e-06
1.80719e-05
-8.54308e-06
1.74835e-05
-8.63035e-06
1.68864e-05
-8.72109e-06
1.62799e-05
-8.8155e-06
1.56633e-05
-8.91391e-06
1.50359e-05
-9.01668e-06
1.43965e-05
-9.12419e-06
1.3744e-05
-9.2368e-06
1.30769e-05
-9.3549e-06
1.23935e-05
-9.47888e-06
1.16916e-05
-9.60912e-06
1.09687e-05
-9.74591e-06
1.02217e-05
-9.88945e-06
9.44689e-06
-1.00397e-05
8.63961e-06
-1.01964e-05
7.79431e-06
-1.03586e-05
6.90408e-06
-1.05248e-05
5.96073e-06
-1.06912e-05
4.95367e-06
-1.0856e-05
3.87125e-06
-1.10012e-05
2.69759e-06
-1.11445e-05
1.40948e-06
-1.11796e-05
-1.13459e-05
2.176e-05
-7.48736e-06
2.12185e-05
-7.54295e-06
2.06705e-05
-7.60137e-06
2.0116e-05
-7.66752e-06
1.95549e-05
-7.73804e-06
1.89869e-05
-7.81008e-06
1.84115e-05
-7.88377e-06
1.78284e-05
-7.95998e-06
1.72372e-05
-8.0391e-06
1.66372e-05
-8.12115e-06
1.6028e-05
-8.20625e-06
1.54087e-05
-8.29462e-06
1.47785e-05
-8.38649e-06
1.41364e-05
-8.48207e-06
1.34812e-05
-8.58156e-06
1.28114e-05
-8.68514e-06
1.21254e-05
-8.79292e-06
1.14213e-05
-8.90497e-06
1.06966e-05
-9.0212e-06
9.94848e-06
-9.14136e-06
9.17362e-06
-9.26487e-06
8.36794e-06
-9.39074e-06
7.5266e-06
-9.51725e-06
6.64376e-06
-9.642e-06
5.7127e-06
-9.76012e-06
4.72484e-06
-9.86809e-06
3.67152e-06
-9.94783e-06
2.53975e-06
-1.00127e-05
1.3156e-06
-9.95541e-06
-1.00303e-05
2.14891e-05
-6.94713e-06
2.09434e-05
-6.99719e-06
2.03914e-05
-7.04941e-06
1.98332e-05
-7.10931e-06
1.92686e-05
-7.17342e-06
1.86972e-05
-7.23868e-06
1.81186e-05
-7.30516e-06
1.75324e-05
-7.37376e-06
1.69381e-05
-7.44481e-06
1.63352e-05
-7.51826e-06
1.5723e-05
-7.59412e-06
1.5101e-05
-7.67253e-06
1.44681e-05
-7.75361e-06
1.38234e-05
-7.83743e-06
1.31659e-05
-7.92402e-06
1.24941e-05
-8.01338e-06
1.18066e-05
-8.10539e-06
1.11015e-05
-8.19985e-06
1.03766e-05
-8.29636e-06
9.62957e-06
-8.39428e-06
8.8573e-06
-8.49261e-06
8.0564e-06
-8.58983e-06
7.22282e-06
-8.68368e-06
6.35184e-06
-8.77102e-06
5.43819e-06
-8.84646e-06
4.47527e-06
-8.90517e-06
3.45723e-06
-8.9298e-06
2.37414e-06
-8.92965e-06
1.22053e-06
-8.80181e-06
-8.80982e-06
2.11619e-05
-6.40213e-06
2.06118e-05
-6.44705e-06
2.00559e-05
-6.4935e-06
1.94939e-05
-6.54737e-06
1.89257e-05
-6.60519e-06
1.83509e-05
-6.66383e-06
1.7769e-05
-6.72328e-06
1.71796e-05
-6.78444e-06
1.65824e-05
-6.84759e-06
1.59768e-05
-6.91262e-06
1.53621e-05
-6.97946e-06
1.47377e-05
-7.04816e-06
1.41029e-05
-7.11874e-06
1.34566e-05
-7.19115e-06
1.27979e-05
-7.2653e-06
1.21255e-05
-7.341e-06
1.14381e-05
-7.41797e-06
1.0734e-05
-7.49577e-06
1.00114e-05
-7.57376e-06
9.26817e-06
-7.65102e-06
8.50177e-06
-7.72621e-06
7.70943e-06
-7.79749e-06
6.88794e-06
-7.86219e-06
6.03367e-06
-7.91675e-06
5.14276e-06
-7.95555e-06
4.21053e-06
-7.97294e-06
3.23365e-06
-7.95291e-06
2.20509e-06
-7.90109e-06
1.12666e-06
-7.72337e-06
-7.68317e-06
2.07747e-05
-5.85254e-06
2.02204e-05
-5.89275e-06
1.96608e-05
-5.93389e-06
1.90954e-05
-5.98197e-06
1.85239e-05
-6.03368e-06
1.7946e-05
-6.08589e-06
1.73612e-05
-6.13857e-06
1.67694e-05
-6.19255e-06
1.61699e-05
-6.24809e-06
1.55623e-05
-6.30502e-06
1.4946e-05
-6.3632e-06
1.43204e-05
-6.4226e-06
1.36849e-05
-6.48316e-06
1.30384e-05
-6.54474e-06
1.23803e-05
-6.60712e-06
1.17092e-05
-6.66999e-06
1.10242e-05
-6.73293e-06
1.03238e-05
-6.79532e-06
9.60635e-06
-6.85636e-06
8.87024e-06