/*--------------------------------*- C++ -*----------------------------------*\
  =========                 |
  \\      /  F ield         | OpenFOAM: The Open Source CFD Toolbox
   \\    /   O peration     | Website:  https://openfoam.org
    \\  /    A nd           | Version:  11
     \\/     M anipulation  |
\*---------------------------------------------------------------------------*/
FoamFile
{
    format      ascii;
    class       volVectorField;
    location    "7.4";
    object      U;
}
// * * * * * * * * * * * * * * * * * * * * * * * * * * * * * * * * * * * * * //

dimensions      [0 1 -1 0 0 0 0];

internalField   nonuniform List<vector> 
12600
(
(0.412113 0.000106612 0)
(0.411843 0.000181119 0)
(0.411431 0.000191613 0)
(0.41096 0.000194847 0)
(0.410493 0.000199169 0)
(0.410034 0.000202109 0)
(0.409577 0.000203598 0)
(0.409122 0.000204362 0)
(0.40867 0.000204616 0)
(0.408223 0.000204305 0)
(0.407783 0.000203368 0)
(0.407353 0.000201742 0)
(0.406934 0.000199356 0)
(0.40653 0.000196113 0)
(0.406142 0.000191862 0)
(0.405775 0.000186394 0)
(0.405434 0.0001793 0)
(0.405124 0.000170356 0)
(0.404853 0.000159383 0)
(0.404629 0.00014581 0)
(0.404466 0.000129267 0)
(0.404375 0.000110315 0)
(0.404375 8.3816e-05 0)
(0.404486 5.06569e-05 0)
(0.404735 6.53289e-06 0)
(0.405156 -4.63912e-05 0)
(0.405795 -0.000113186 0)
(0.406713 -0.00019801 0)
(0.408089 -0.000336723 0)
(0.408845 -0.000873363 0)
(0.412492 0.000153717 0)
(0.412639 0.0002806 0)
(0.412776 0.000262265 0)
(0.412827 0.000254752 0)
(0.412872 0.000258142 0)
(0.412923 0.000258913 0)
(0.412978 0.000256877 0)
(0.413033 0.000253517 0)
(0.413092 0.000248982 0)
(0.413155 0.000243196 0)
(0.413226 0.000236102 0)
(0.413305 0.000227535 0)
(0.413396 0.000217249 0)
(0.413499 0.000204943 0)
(0.413618 0.000190142 0)
(0.413757 0.000171804 0)
(0.413919 0.000149331 0)
(0.414111 0.000122982 0)
(0.414338 8.98036e-05 0)
(0.414609 4.90172e-05 0)
(0.414934 -7.95441e-07 0)
(0.415325 -6.19977e-05 0)
(0.415797 -0.000137186 0)
(0.416368 -0.000229723 0)
(0.417062 -0.000343647 0)
(0.417896 -0.000486301 0)
(0.418941 -0.000662936 0)
(0.420083 -0.000915997 0)
(0.421782 -0.00118816 0)
(0.42223 -0.00213261 0)
(0.41248 8.35631e-05 0)
(0.412555 0.000149945 0)
(0.412648 0.000154998 0)
(0.412716 0.000157508 0)
(0.412768 0.000164137 0)
(0.41282 0.000167255 0)
(0.412874 0.000166068 0)
(0.412931 0.000162674 0)
(0.412989 0.000157202 0)
(0.413052 0.000149476 0)
(0.413122 0.00013952 0)
(0.4132 0.000127115 0)
(0.41329 0.000111898 0)
(0.413393 9.34073e-05 0)
(0.41351 7.12287e-05 0)
(0.413645 4.39383e-05 0)
(0.413801 1.07843e-05 0)
(0.413984 -3.1759e-05 0)
(0.414199 -8.50121e-05 0)
(0.414454 -0.000149247 0)
(0.414759 -0.000228063 0)
(0.415126 -0.000324911 0)
(0.41557 -0.000444106 0)
(0.416107 -0.000590782 0)
(0.41676 -0.000770769 0)
(0.417551 -0.000994383 0)
(0.418516 -0.00126737 0)
(0.419661 -0.0016281 0)
(0.421027 -0.00207149 0)
(0.422598 -0.00246167 0)
(0.412473 5.4301e-05 0)
(0.412523 0.000128845 0)
(0.412598 0.00015591 0)
(0.412663 0.000165853 0)
(0.412713 0.000173942 0)
(0.412762 0.000180755 0)
(0.412814 0.000179653 0)
(0.412869 0.000175686 0)
(0.412926 0.000168763 0)
(0.412987 0.000158509 0)
(0.413056 0.000144661 0)
(0.413132 0.000127058 0)
(0.41322 0.000105405 0)
(0.41332 7.91719e-05 0)
(0.413434 4.77146e-05 0)
(0.413565 1.04798e-05 0)
(0.413716 -3.4635e-05 0)
(0.413893 -9.1052e-05 0)
(0.414101 -0.000160674 0)
(0.414349 -0.000247348 0)
(0.414644 -0.000354245 0)
(0.415 -0.000485705 0)
(0.415428 -0.000647246 0)
(0.415947 -0.000845877 0)
(0.416576 -0.00109006 0)
(0.417339 -0.00139149 0)
(0.418263 -0.00176173 0)
(0.419379 -0.00221899 0)
(0.420706 -0.0027742 0)
(0.422372 -0.00321335 0)
(0.412468 3.82137e-05 0)
(0.412503 9.76119e-05 0)
(0.412561 0.000122544 0)
(0.412619 0.000128498 0)
(0.412667 0.000131552 0)
(0.412715 0.000133224 0)
(0.412765 0.000131146 0)
(0.412818 0.000124573 0)
(0.412874 0.000113766 0)
(0.412934 9.9087e-05 0)
(0.413001 8.07756e-05 0)
(0.413075 5.78123e-05 0)
(0.41316 3.0296e-05 0)
(0.413256 -2.42845e-06 0)
(0.413367 -4.22365e-05 0)
(0.413493 -8.96611e-05 0)
(0.413639 -0.000147636 0)
(0.41381 -0.000218534 0)
(0.41401 -0.000306284 0)
(0.414247 -0.000414932 0)
(0.414531 -0.000548828 0)
(0.41487 -0.000713626 0)
(0.41528 -0.000916213 0)
(0.415775 -0.00116504 0)
(0.416374 -0.00147039 0)
(0.417101 -0.00184524 0)
(0.41798 -0.00230442 0)
(0.419055 -0.00285976 0)
(0.420328 -0.00354375 0)
(0.422004 -0.00418109 0)
(0.412466 2.72418e-05 0)
(0.412491 7.29698e-05 0)
(0.412538 9.7177e-05 0)
(0.412589 0.000106111 0)
(0.412636 0.000111009 0)
(0.412682 0.000114531 0)
(0.412731 0.000113912 0)
(0.412782 0.000108018 0)
(0.412836 9.71008e-05 0)
(0.412894 8.12205e-05 0)
(0.412959 6.01347e-05 0)
(0.413031 3.36535e-05 0)
(0.413113 1.64286e-06 0)
(0.413205 -3.62804e-05 0)
(0.413311 -8.19851e-05 0)
(0.413432 -0.000137611 0)
(0.413571 -0.000205483 0)
(0.413733 -0.000288966 0)
(0.413923 -0.000392547 0)
(0.414148 -0.000521193 0)
(0.414415 -0.000680313 0)
(0.414736 -0.000876341 0)
(0.415122 -0.00111718 0)
(0.415588 -0.00141271 0)
(0.416151 -0.00177525 0)
(0.416836 -0.00221969 0)
(0.417663 -0.00276432 0)
(0.418681 -0.00342182 0)
(0.41989 -0.00423834 0)
(0.421518 -0.00506082 0)
(0.412464 1.95644e-05 0)
(0.412483 5.41329e-05 0)
(0.412522 7.53874e-05 0)
(0.412567 8.43982e-05 0)
(0.412612 8.81347e-05 0)
(0.412656 8.94012e-05 0)
(0.412702 8.65549e-05 0)
(0.412751 7.82408e-05 0)
(0.412803 6.42452e-05 0)
(0.412859 4.4542e-05 0)
(0.412921 1.90178e-05 0)
(0.41299 -1.26562e-05 0)
(0.413068 -5.08448e-05 0)
(0.413156 -9.61279e-05 0)
(0.413256 -0.000149615 0)
(0.413371 -0.000214193 0)
(0.413502 -0.000293036 0)
(0.413654 -0.000390001 0)
(0.413833 -0.000509874 0)
(0.414043 -0.000658114 0)
(0.414293 -0.000840985 0)
(0.414591 -0.00106605 0)
(0.41495 -0.00134256 0)
(0.415382 -0.00168188 0)
(0.415904 -0.00209813 0)
(0.416538 -0.00260824 0)
(0.417306 -0.00323356 0)
(0.418254 -0.00399147 0)
(0.419383 -0.00493187 0)
(0.420924 -0.00594618 0)
(0.412463 1.38259e-05 0)
(0.412479 3.90409e-05 0)
(0.41251 5.59752e-05 0)
(0.412551 6.37516e-05 0)
(0.412592 6.64078e-05 0)
(0.412634 6.63698e-05 0)
(0.412678 6.26302e-05 0)
(0.412725 5.3534e-05 0)
(0.412775 3.83163e-05 0)
(0.412829 1.67533e-05 0)
(0.412889 -1.12904e-05 0)
(0.412955 -4.59958e-05 0)
(0.413029 -8.77986e-05 0)
(0.413112 -0.000137612 0)
(0.413206 -0.000196892 0)
(0.413313 -0.000268453 0)
(0.413435 -0.000355817 0)
(0.413577 -0.000463381 0)
(0.413741 -0.000596539 0)
(0.413935 -0.000761533 0)
(0.414164 -0.000965482 0)
(0.414438 -0.00121678 0)
(0.414765 -0.00152562 0)
(0.41516 -0.00190459 0)
(0.415635 -0.00236946 0)
(0.416212 -0.00293946 0)
(0.41691 -0.00363913 0)
(0.417776 -0.00449159 0)
(0.418809 -0.00554958 0)
(0.420236 -0.00674525 0)
(0.412463 9.28614e-06 0)
(0.412475 2.65927e-05 0)
(0.412502 3.88767e-05 0)
(0.412538 4.47417e-05 0)
(0.412577 4.62167e-05 0)
(0.412617 4.48845e-05 0)
(0.412658 3.98671e-05 0)
(0.412703 2.93767e-05 0)
(0.412751 1.22953e-05 0)
(0.412803 -1.17925e-05 0)
(0.412859 -4.30699e-05 0)
(0.412921 -8.17105e-05 0)
(0.412991 -0.00012811 0)
(0.413068 -0.000183228 0)
(0.413156 -0.000248761 0)
(0.413254 -0.000327617 0)
(0.413367 -0.000423735 0)
(0.413496 -0.000542015 0)
(0.413646 -0.000688297 0)
(0.413821 -0.000869304 0)
(0.414028 -0.00109278 0)
(0.414274 -0.00136792 0)
(0.414568 -0.00170588 0)
(0.41492 -0.00212051 0)
(0.415343 -0.00262925 0)
(0.415856 -0.00325354 0)
(0.416477 -0.00402091 0)
(0.417249 -0.00496064 0)
(0.418169 -0.00612634 0)
(0.419456 -0.00749397 0)
(0.412462 5.57209e-06 0)
(0.412473 1.60838e-05 0)
(0.412496 2.3763e-05 0)
(0.412528 2.72443e-05 0)
(0.412564 2.72457e-05 0)
(0.412602 2.45086e-05 0)
(0.412642 1.81031e-05 0)
(0.412684 6.21875e-06 0)
(0.41273 -1.24882e-05 0)
(0.412779 -3.86255e-05 0)
(0.412832 -7.24146e-05 0)
(0.41289 -0.000114042 0)
(0.412955 -0.00016392 0)
(0.413027 -0.000223063 0)
(0.413107 -0.000293377 0)
(0.413196 -0.00037795 0)
(0.413298 -0.000481024 0)
(0.413414 -0.000607876 0)
(0.413548 -0.000764772 0)
(0.413704 -0.000958957 0)
(0.413887 -0.00119879 0)
(0.414102 -0.00149412 0)
(0.414359 -0.00185694 0)
(0.414665 -0.00230213 0)
(0.415032 -0.00284853 0)
(0.415476 -0.00351966 0)
(0.416012 -0.00434582 0)
(0.416678 -0.00536213 0)
(0.417471 -0.00662322 0)
(0.418593 -0.0081456 0)
(0.412462 2.3926e-06 0)
(0.412471 7.02789e-06 0)
(0.412492 1.0295e-05 0)
(0.412521 1.11112e-05 0)
(0.412554 9.42923e-06 0)
(0.41259 5.25988e-06 0)
(0.412627 -2.50515e-06 0)
(0.412668 -1.57181e-05 0)
(0.412711 -3.5905e-05 0)
(0.412757 -6.38649e-05 0)
(0.412807 -9.99024e-05 0)
(0.412861 -0.000144218 0)
(0.41292 -0.000197252 0)
(0.412986 -0.000260083 0)
(0.413058 -0.000334757 0)
(0.413138 -0.000424517 0)
(0.413229 -0.00053384 0)
(0.413331 -0.000668323 0)
(0.413447 -0.000834595 0)
(0.413582 -0.00104029 0)
(0.413739 -0.00129423 0)
(0.413923 -0.0016068 0)
(0.41414 -0.00199067 0)
(0.414397 -0.00246161 0)
(0.414704 -0.00303967 0)
(0.415073 -0.00375016 0)
(0.415517 -0.00462582 0)
(0.416067 -0.00570704 0)
(0.41672 -0.00704886 0)
(0.417654 -0.00870692 0)
(0.412462 -4.42146e-07 0)
(0.41247 -9.85308e-07 0)
(0.412489 -1.78922e-06 0)
(0.412515 -3.74737e-06 0)
(0.412546 -7.28338e-06 0)
(0.412579 -1.29138e-05 0)
(0.412615 -2.19974e-05 0)
(0.412653 -3.6472e-05 0)
(0.412694 -5.8004e-05 0)
(0.412737 -8.75394e-05 0)
(0.412783 -0.000125461 0)
(0.412833 -0.000171983 0)
(0.412887 -0.000227567 0)
(0.412946 -0.000293335 0)
(0.41301 -0.000371433 0)
(0.413081 -0.000465249 0)
(0.413159 -0.000579452 0)
(0.413246 -0.000719884 0)
(0.413345 -0.000893452 0)
(0.413458 -0.00110811 0)
(0.413587 -0.00137304 0)
(0.413738 -0.00169904 0)
(0.413913 -0.00209931 0)
(0.41412 -0.00259027 0)
(0.414363 -0.00319291 0)
(0.414653 -0.00393397 0)
(0.414999 -0.00484808 0)
(0.415425 -0.00598002 0)
(0.415926 -0.00738509 0)
(0.416651 -0.00915351 0)
(0.412462 -2.89977e-06 0)
(0.412469 -8.15104e-06 0)
(0.412486 -1.28438e-05 0)
(0.41251 -1.75525e-05 0)
(0.412539 -2.29707e-05 0)
(0.41257 -3.00574e-05 0)
(0.412604 -4.04088e-05 0)
(0.41264 -5.60475e-05 0)
(0.412679 -7.87396e-05 0)
(0.412719 -0.000109557 0)
(0.412762 -0.00014896 0)
(0.412807 -0.00019719 0)
(0.412855 -0.000254724 0)
(0.412907 -0.000322728 0)
(0.412963 -0.000403428 0)
(0.413023 -0.000500323 0)
(0.413089 -0.000618224 0)
(0.413161 -0.000763146 0)
(0.413241 -0.000942196 0)
(0.413331 -0.00116355 0)
(0.413433 -0.00143662 0)
(0.413548 -0.00177251 0)
(0.413681 -0.00218471 0)
(0.413835 -0.0026901 0)
(0.414012 -0.00331028 0)
(0.414221 -0.00407295 0)
(0.414464 -0.00501403 0)
(0.41476 -0.00618152 0)
(0.4151 -0.00763048 0)
(0.415597 -0.00948018 0)
(0.412462 -5.14494e-06 0)
(0.412468 -1.46807e-05 0)
(0.412484 -2.30114e-05 0)
(0.412506 -3.04415e-05 0)
(0.412533 -3.7765e-05 0)
(0.412563 -4.6268e-05 0)
(0.412595 -5.77943e-05 0)
(0.412629 -7.4461e-05 0)
(0.412665 -9.81003e-05 0)
(0.412703 -0.00012988 0)
(0.412741 -0.000170343 0)
(0.412782 -0.000219769 0)
(0.412825 -0.00027865 0)
(0.412869 -0.000348175 0)
(0.412917 -0.000430615 0)
(0.412966 -0.00052954 0)
(0.413019 -0.000649847 0)
(0.413076 -0.000797659 0)
(0.413137 -0.000980196 0)
(0.413204 -0.00120576 0)
(0.413276 -0.00148388 0)
(0.413357 -0.00182579 0)
(0.413446 -0.00224514 0)
(0.413545 -0.00275899 0)
(0.413656 -0.00338919 0)
(0.41378 -0.00416388 0)
(0.413919 -0.00511953 0)
(0.41408 -0.00630601 0)
(0.414254 -0.00777748 0)
(0.414511 -0.00967475 0)
(0.412461 -7.22701e-06 0)
(0.412468 -2.07557e-05 0)
(0.412482 -3.25148e-05 0)
(0.412503 -4.25622e-05 0)
(0.412529 -5.17535e-05 0)
(0.412557 -6.16212e-05 0)
(0.412588 -7.42123e-05 0)
(0.41262 -9.1735e-05 0)
(0.412653 -0.000116082 0)
(0.412688 -0.0001485 0)
(0.412723 -0.000189606 0)
(0.412759 -0.000239707 0)
(0.412796 -0.000299304 0)
(0.412833 -0.000369599 0)
(0.412872 -0.000452887 0)
(0.412911 -0.000552772 0)
(0.412951 -0.000674185 0)
(0.412992 -0.000823283 0)
(0.413034 -0.00100732 0)
(0.413077 -0.00123462 0)
(0.41312 -0.00151473 0)
(0.413165 -0.00185885 0)
(0.41321 -0.0022806 0)
(0.413255 -0.00279696 0)
(0.413298 -0.00342966 0)
(0.413338 -0.00420672 0)
(0.413372 -0.00516438 0)
(0.413397 -0.00635282 0)
(0.413402 -0.00782447 0)
(0.413412 -0.00973281 0)
(0.412461 -9.19385e-06 0)
(0.412467 -2.65042e-05 0)
(0.412481 -4.15362e-05 0)
(0.412502 -5.40995e-05 0)
(0.412526 -6.50744e-05 0)
(0.412553 -7.61998e-05 0)
(0.412582 -8.97105e-05 0)
(0.412612 -0.0001079 0)
(0.412643 -0.000132705 0)
(0.412675 -0.00016543 0)
(0.412706 -0.000206744 0)
(0.412738 -0.000256983 0)
(0.412769 -0.000316655 0)
(0.412799 -0.000386964 0)
(0.412829 -0.000470209 0)
(0.412857 -0.000569982 0)
(0.412884 -0.000691195 0)
(0.412909 -0.00083997 0)
(0.412932 -0.00102351 0)
(0.412951 -0.00125007 0)
(0.412966 -0.00152909 0)
(0.412975 -0.00187161 0)
(0.412977 -0.00229099 0)
(0.412967 -0.00280391 0)
(0.412944 -0.00343158 0)
(0.4129 -0.00420134 0)
(0.412829 -0.00514839 0)
(0.41272 -0.00632164 0)
(0.412558 -0.00777076 0)
(0.412323 -0.0096521 0)
(0.412461 -1.10979e-05 0)
(0.412467 -3.20689e-05 0)
(0.412481 -5.02484e-05 0)
(0.412501 -6.51905e-05 0)
(0.412524 -7.78127e-05 0)
(0.41255 -9.00679e-05 0)
(0.412578 -0.000104361 0)
(0.412606 -0.000123037 0)
(0.412635 -0.000148042 0)
(0.412664 -0.000180721 0)
(0.412692 -0.000221793 0)
(0.412718 -0.000271622 0)
(0.412744 -0.000330721 0)
(0.412767 -0.000400287 0)
(0.412788 -0.000482592 0)
(0.412806 -0.000581184 0)
(0.41282 -0.000700899 0)
(0.41283 -0.000847761 0)
(0.412833 -0.00102884 0)
(0.412829 -0.00125222 0)
(0.412816 -0.00152711 0)
(0.41279 -0.00186427 0)
(0.412748 -0.00227663 0)
(0.412685 -0.00278028 0)
(0.412596 -0.0033956 0)
(0.412471 -0.0041487 0)
(0.412299 -0.00507296 0)
(0.412059 -0.00621444 0)
(0.411737 -0.00761904 0)
(0.411267 -0.00943594 0)
(0.412461 -1.29946e-05 0)
(0.412467 -3.75977e-05 0)
(0.412481 -5.88433e-05 0)
(0.412501 -7.60177e-05 0)
(0.412524 -9.01173e-05 0)
(0.412549 -0.000103345 0)
(0.412575 -0.000118257 0)
(0.412602 -0.000137207 0)
(0.412629 -0.000162132 0)
(0.412655 -0.000194402 0)
(0.412679 -0.000234782 0)
(0.412701 -0.00028366 0)
(0.412721 -0.000341548 0)
(0.412738 -0.000409623 0)
(0.41275 -0.000490111 0)
(0.412758 -0.000586474 0)
(0.412759 -0.000703422 0)
(0.412753 -0.00084681 0)
(0.412738 -0.0010235 0)
(0.412712 -0.00124131 0)
(0.41267 -0.00150912 0)
(0.41261 -0.00183726 0)
(0.412527 -0.00223808 0)
(0.412413 -0.00272686 0)
(0.41226 -0.00332282 0)
(0.412057 -0.00405037 0)
(0.411788 -0.00494036 0)
(0.411425 -0.00603465 0)
(0.410952 -0.00737436 0)
(0.410265 -0.0090921 0)
(0.412461 -1.49488e-05 0)
(0.412468 -4.32655e-05 0)
(0.412482 -6.75362e-05 0)
(0.412502 -8.6761e-05 0)
(0.412525 -0.000102113 0)
(0.412549 -0.000116126 0)
(0.412574 -0.000131485 0)
(0.4126 -0.000150493 0)
(0.412625 -0.000175047 0)
(0.412648 -0.000206545 0)
(0.412669 -0.000245787 0)
(0.412687 -0.000293175 0)
(0.412702 -0.000349218 0)
(0.412711 -0.000415065 0)
(0.412715 -0.000492874 0)
(0.412713 -0.000585988 0)
(0.412702 -0.000698939 0)
(0.412682 -0.000837351 0)
(0.412649 -0.0010078 0)
(0.4126 -0.00121777 0)
(0.412532 -0.00147569 0)
(0.412439 -0.00179135 0)
(0.412315 -0.0021764 0)
(0.412152 -0.00264507 0)
(0.41194 -0.00321517 0)
(0.411662 -0.00390904 0)
(0.411303 -0.00475443 0)
(0.410827 -0.00578788 0)
(0.410215 -0.00704499 0)
(0.409336 -0.00863393 0)
(0.412462 -1.70435e-05 0)
(0.412468 -4.92867e-05 0)
(0.412483 -7.65702e-05 0)
(0.412504 -9.76099e-05 0)
(0.412528 -0.000113941 0)
(0.412552 -0.000128536 0)
(0.412576 -0.000144153 0)
(0.4126 -0.000162977 0)
(0.412623 -0.000186854 0)
(0.412644 -0.000217216 0)
(0.412662 -0.00025489 0)
(0.412676 -0.000300279 0)
(0.412685 -0.000353874 0)
(0.412688 -0.000416786 0)
(0.412685 -0.000491081 0)
(0.412672 -0.000579942 0)
(0.41265 -0.000687679 0)
(0.412616 -0.000819625 0)
(0.412565 -0.000982007 0)
(0.412496 -0.00118187 0)
(0.412402 -0.00142715 0)
(0.412278 -0.00172697 0)
(0.412116 -0.00209214 0)
(0.411907 -0.00253574 0)
(0.411638 -0.00307393 0)
(0.411293 -0.00372669 0)
(0.41085 -0.00451832 0)
(0.410272 -0.00547936 0)
(0.409538 -0.00663946 0)
(0.408498 -0.00807687 0)
(0.412462 -1.93906e-05 0)
(0.412469 -5.59413e-05 0)
(0.412486 -8.62356e-05 0)
(0.412508 -0.000108763 0)
(0.412532 -0.000125738 0)
(0.412556 -0.000140698 0)
(0.41258 -0.000156377 0)
(0.412603 -0.000174757 0)
(0.412624 -0.000197637 0)
(0.412643 -0.000226488 0)
(0.412658 -0.000262154 0)
(0.412668 -0.000305037 0)
(0.412673 -0.000355615 0)
(0.41267 -0.000414959 0)
(0.412658 -0.000485024 0)
(0.412637 -0.000568798 0)
(0.412604 -0.000670317 0)
(0.412556 -0.000794567 0)
(0.41249 -0.000947355 0)
(0.4124 -0.00113523 0)
(0.412283 -0.00136552 0)
(0.41213 -0.00164665 0)
(0.411932 -0.00198843 0)
(0.41168 -0.0024027 0)
(0.41136 -0.00290383 0)
(0.410951 -0.00350927 0)
(0.410434 -0.00423968 0)
(0.409767 -0.00511937 0)
(0.408927 -0.00617205 0)
(0.40776 -0.00744351 0)
(0.412462 -2.21519e-05 0)
(0.412471 -6.36134e-05 0)
(0.41249 -9.68796e-05 0)
(0.412515 -0.000120412 0)
(0.41254 -0.000137623 0)
(0.412564 -0.00015273 0)
(0.412587 -0.000168274 0)
(0.412609 -0.000185966 0)
(0.412629 -0.000207563 0)
(0.412646 -0.000234558 0)
(0.412658 -0.000267773 0)
(0.412665 -0.000307583 0)
(0.412665 -0.00035445 0)
(0.412656 -0.000409397 0)
(0.412638 -0.00047426 0)
(0.412608 -0.000551806 0)
(0.412564 -0.000645768 0)
(0.412504 -0.000760741 0)
(0.412423 -0.00090206 0)
(0.412315 -0.00107571 0)
(0.412175 -0.0012884 0)
(0.411995 -0.00154772 0)
(0.411765 -0.00186249 0)
(0.411474 -0.00224319 0)
(0.411106 -0.00270234 0)
(0.410642 -0.00325483 0)
(0.410059 -0.00391776 0)
(0.409315 -0.00470939 0)
(0.408388 -0.00564821 0)
(0.407128 -0.00674813 0)
(0.412463 -2.55751e-05 0)
(0.412474 -7.28382e-05 0)
(0.412497 -0.00010891 0)
(0.412525 -0.000132765 0)
(0.412551 -0.000149748 0)
(0.412575 -0.000164727 0)
(0.412598 -0.000179837 0)
(0.412619 -0.000196531 0)
(0.412638 -0.000216618 0)
(0.412654 -0.000241613 0)
(0.412663 -0.000272274 0)
(0.412666 -0.000308927 0)
(0.412662 -0.000352019 0)
(0.412648 -0.000402492 0)
(0.412623 -0.000462016 0)
(0.412586 -0.000533102 0)
(0.412533 -0.000619117 0)
(0.412461 -0.000724212 0)
(0.412366 -0.000853197 0)
(0.412242 -0.00101144 0)
(0.412082 -0.00120493 0)
(0.411877 -0.00144043 0)
(0.411618 -0.0017257 0)
(0.411292 -0.00206979 0)
(0.410882 -0.0024834 0)
(0.410369 -0.00297884 0)
(0.409728 -0.00356985 0)
(0.408921 -0.00426926 0)
(0.407923 -0.00509169 0)
(0.406602 -0.00602264 0)
(0.412463 -3.00721e-05 0)
(0.412478 -8.43577e-05 0)
(0.412507 -0.000122701 0)
(0.412539 -0.000146017 0)
(0.412566 -0.000162489 0)
(0.41259 -0.000177159 0)
(0.412613 -0.000191355 0)
(0.412634 -0.000206324 0)
(0.412652 -0.000224007 0)
(0.412666 -0.000245953 0)
(0.412673 -0.000272856 0)
(0.412673 -0.000305022 0)
(0.412665 -0.0003429 0)
(0.412647 -0.000387368 0)
(0.412616 -0.000439943 0)
(0.412572 -0.000502888 0)
(0.41251 -0.000579192 0)
(0.412428 -0.000672531 0)
(0.412321 -0.000787142 0)
(0.412182 -0.000927711 0)
(0.412003 -0.00109947 0)
(0.411777 -0.00130834 0)
(0.411492 -0.00156097 0)
(0.411135 -0.00186501 0)
(0.410688 -0.00222936 0)
(0.410133 -0.00266391 0)
(0.409444 -0.00317952 0)
(0.408584 -0.00378428 0)
(0.407531 -0.00449109 0)
(0.406175 -0.00526353 0)
(0.412465 -3.63947e-05 0)
(0.412485 -9.93202e-05 0)
(0.412522 -0.000138391 0)
(0.412559 -0.000159667 0)
(0.412587 -0.000175569 0)
(0.412612 -0.000190621 0)
(0.412635 -0.000204844 0)
(0.412656 -0.000219268 0)
(0.412674 -0.000235893 0)
(0.412686 -0.000256147 0)
(0.412691 -0.00028058 0)
(0.412689 -0.000309475 0)
(0.412677 -0.000343265 0)
(0.412655 -0.000382741 0)
(0.412619 -0.00042922 0)
(0.412568 -0.000484645 0)
(0.412499 -0.000551588 0)
(0.412408 -0.00063322 0)
(0.41229 -0.000733196 0)
(0.412138 -0.000855518 0)
(0.411944 -0.00100466 0)
(0.411699 -0.00118566 0)
(0.411391 -0.0014041 0)
(0.411007 -0.00166624 0)
(0.41053 -0.00197914 0)
(0.409939 -0.00235024 0)
(0.409209 -0.00278789 0)
(0.408308 -0.00329631 0)
(0.407211 -0.00388972 0)
(0.405836 -0.00451806 0)
(0.412467 -4.58846e-05 0)
(0.412497 -0.000119831 0)
(0.412545 -0.000157299 0)
(0.412587 -0.00017359 0)
(0.412616 -0.000185728 0)
(0.41264 -0.000197454 0)
(0.412663 -0.000208129 0)
(0.412685 -0.000218848 0)
(0.412702 -0.000231516 0)
(0.412713 -0.000247352 0)
(0.412716 -0.000266744 0)
(0.412712 -0.000289941 0)
(0.412697 -0.000317348 0)
(0.412671 -0.000349683 0)
(0.412631 -0.000388094 0)
(0.412575 -0.000434197 0)
(0.4125 -0.0004901 0)
(0.412402 -0.000558417 0)
(0.412274 -0.000642103 0)
(0.412111 -0.000744328 0)
(0.411904 -0.000868869 0)
(0.411643 -0.0010199 0)
(0.411317 -0.00120176 0)
(0.41091 -0.00141951 0)
(0.410408 -0.00167891 0)
(0.409788 -0.00198505 0)
(0.409027 -0.00234395 0)
(0.408092 -0.00275516 0)
(0.406961 -0.00324034 0)
(0.405565 -0.00373804 0)
(0.412471 -6.03538e-05 0)
(0.412517 -0.000146652 0)
(0.412581 -0.00018361 0)
(0.412629 -0.000201452 0)
(0.412659 -0.000216872 0)
(0.412684 -0.000230144 0)
(0.412708 -0.000240818 0)
(0.412729 -0.000250985 0)
(0.412745 -0.000262572 0)
(0.412755 -0.000276353 0)
(0.412758 -0.000292649 0)
(0.412751 -0.000311761 0)
(0.412734 -0.000334111 0)
(0.412705 -0.000360317 0)
(0.412661 -0.000391315 0)
(0.412601 -0.000428393 0)
(0.412521 -0.000473177 0)
(0.412416 -0.000527806 0)
(0.412281 -0.000594784 0)
(0.412109 -0.000676346 0)
(0.411891 -0.000775372 0)
(0.411618 -0.000895469 0)
(0.411276 -0.00103986 0)
(0.410852 -0.00121186 0)
(0.41033 -0.00141552 0)
(0.409688 -0.00165401 0)
(0.408904 -0.00193171 0)
(0.407942 -0.00224189 0)
(0.406788 -0.00261644 0)
(0.405351 -0.00299831 0)
(0.412479 -8.79326e-05 0)
(0.412549 -0.00016293 0)
(0.41263 -0.000176282 0)
(0.412681 -0.000184339 0)
(0.412712 -0.000195266 0)
(0.412738 -0.000204859 0)
(0.412764 -0.000212474 0)
(0.412786 -0.000219861 0)
(0.412802 -0.000228001 0)
(0.412811 -0.000238076 0)
(0.412813 -0.000249925 0)
(0.412806 -0.000263887 0)
(0.412787 -0.000280319 0)
(0.412756 -0.000299762 0)
(0.412709 -0.000322964 0)
(0.412646 -0.000350893 0)
(0.412561 -0.000384745 0)
(0.412452 -0.000425794 0)
(0.412311 -0.000475537 0)
(0.412132 -0.000536099 0)
(0.411906 -0.000609516 0)
(0.411622 -0.000697695 0)
(0.411269 -0.000803352 0)
(0.410833 -0.000929527 0)
(0.410296 -0.0010789 0)
(0.409638 -0.00125239 0)
(0.408841 -0.00145153 0)
(0.407857 -0.00166024 0)
(0.406691 -0.00191457 0)
(0.405117 -0.00208027 0)
(0.41249 -0.000156576 0)
(0.412638 -0.000290513 0)
(0.412753 -0.00027481 0)
(0.412786 -0.000270867 0)
(0.412809 -0.000276502 0)
(0.412834 -0.000281689 0)
(0.412857 -0.000285255 0)
(0.412873 -0.000288928 0)
(0.412881 -0.000293448 0)
(0.412882 -0.000298838 0)
(0.412875 -0.000305229 0)
(0.412859 -0.000312876 0)
(0.41283 -0.000322113 0)
(0.412789 -0.00033341 0)
(0.412731 -0.000347342 0)
(0.412653 -0.000364275 0)
(0.412552 -0.000384705 0)
(0.412422 -0.000410127 0)
(0.412257 -0.000442024 0)
(0.412051 -0.00047883 0)
(0.411793 -0.000523454 0)
(0.411474 -0.000578995 0)
(0.41108 -0.000644957 0)
(0.410599 -0.000722524 0)
(0.410013 -0.000813409 0)
(0.409304 -0.000918639 0)
(0.408452 -0.00103902 0)
(0.407421 -0.00115092 0)
(0.406185 -0.00129917 0)
(0.403872 -0.000926403 0)
(0.412111 -0.000108091 0)
(0.411833 -0.000183247 0)
(0.411408 -0.000195392 0)
(0.410919 -0.00020006 0)
(0.410429 -0.000205882 0)
(0.409943 -0.000210189 0)
(0.409453 -0.000213311 0)
(0.408956 -0.000216209 0)
(0.408452 -0.000219184 0)
(0.407941 -0.00022236 0)
(0.407421 -0.000225838 0)
(0.406892 -0.000229733 0)
(0.40635 -0.000234116 0)
(0.405794 -0.00023906 0)
(0.405222 -0.000244676 0)
(0.404628 -0.000251193 0)
(0.404009 -0.000258936 0)
(0.40336 -0.000268001 0)
(0.402674 -0.00027854 0)
(0.401942 -0.000291656 0)
(0.401156 -0.000307695 0)
(0.400304 -0.000326612 0)
(0.399372 -0.000349275 0)
(0.398345 -0.000376958 0)
(0.397206 -0.0004103 0)
(0.395937 -0.000447442 0)
(0.394518 -0.000492902 0)
(0.392949 -0.000512233 0)
(0.391285 -0.000619367 0)
(0.388041 -2.22288e-05 0)
(0.414615 -0.00186496 -1.43783e-18)
(0.419888 -0.00249972 -1.10683e-20)
(0.423662 -0.00294148 1.48026e-18)
(0.4256 -0.00352961 2.96885e-18)
(0.426678 -0.00430576 1.5127e-18)
(0.427431 -0.00524392 -1.50078e-18)
(0.42804 -0.00632178 1.5266e-18)
(0.428578 -0.0075358 0)
(0.429096 -0.008885 1.54388e-18)
(0.429618 -0.0103676 -8.24661e-21)
(0.430145 -0.0119882 1.08393e-19)
(0.430674 -0.013761 0)
(0.4312 -0.0157087 -1.81425e-18)
(0.431729 -0.0178611 0)
(0.432264 -0.0202558 0)
(0.432815 -0.0229411 -1.98224e-18)
(0.43339 -0.0259802 -1.89459e-18)
(0.433997 -0.0294569 -8.2994e-22)
(0.434648 -0.0334839 1.86995e-18)
(0.435356 -0.038215 2.7642e-19)
(0.436138 -0.0438624 -2.54492e-18)
(0.437015 -0.0507415 2.91968e-19)
(0.438016 -0.0592439 -1.50717e-19)
(0.439158 -0.0702764 2.26326e-18)
(0.440558 -0.0840273 3.07886e-19)
(0.44203 -0.105153 -1.56207e-19)
(0.444464 -0.127754 0)
(0.446052 -0.181963 -1.91644e-18)
(0.45262 -0.217418 -1.94428e-18)
(0.454426 -0.406192 0)
(0.423894 -0.0024913 1.44206e-18)
(0.425553 -0.00280533 -3.39998e-20)
(0.426483 -0.00342379 2.86836e-20)
(0.42657 -0.00426569 -1.50297e-18)
(0.42669 -0.0052498 -4.80105e-20)
(0.426983 -0.00633987 1.61901e-18)
(0.427393 -0.00753259 1.5104e-18)
(0.42785 -0.00883293 2.05513e-19)
(0.428327 -0.0102444 -1.05397e-19)
(0.428807 -0.0117742 1.71962e-18)
(0.429279 -0.0134378 1.88384e-18)
(0.429737 -0.015257 1.70682e-18)
(0.430184 -0.0172581 1.98632e-18)
(0.430623 -0.019472 1.80284e-18)
(0.431061 -0.0219375 1.97855e-18)
(0.431499 -0.0247051 4.18253e-18)
(0.431941 -0.0278405 1.96917e-18)
(0.43239 -0.0314309 -2.3001e-18)
(0.432847 -0.0355927 2.37429e-18)
(0.433314 -0.040484 -1.42663e-19)
(0.433791 -0.0463236 1.48201e-19)
(0.434275 -0.0534259 2.45861e-18)
(0.434745 -0.0622189 0)
(0.435195 -0.0735072 -1.59253e-19)
(0.435547 -0.08782 2.83246e-18)
(0.435653 -0.108862 0)
(0.435717 -0.132981 2.71857e-18)
(0.433884 -0.185274 -2.33005e-18)
(0.433865 -0.223758 -3.89463e-20)
(0.425722 -0.40466 1.86884e-19)
(0.423574 -0.00276205 -1.12542e-20)
(0.42425 -0.00330798 -1.13907e-20)
(0.424793 -0.00426585 -1.47287e-18)
(0.425192 -0.00534447 -4.77674e-20)
(0.425618 -0.00643653 4.89793e-20)
(0.426135 -0.00755936 -4.99086e-20)
(0.426655 -0.0087524 -1.58203e-18)
(0.427127 -0.0100406 0)
(0.427556 -0.0114398 0)
(0.427958 -0.0129655 0)
(0.42834 -0.0146356 -1.80144e-18)
(0.428705 -0.0164702 -1.02226e-19)
(0.429056 -0.0184935 -1.6629e-18)
(0.429394 -0.0207358 -1.95653e-18)
(0.429717 -0.023237 -2.14071e-18)
(0.430024 -0.0260491 -2.0755e-18)
(0.430313 -0.0292396 1.58155e-19)
(0.43058 -0.0328972 2.07023e-18)
(0.430817 -0.0371401 -2.13868e-18)
(0.431013 -0.0421284 -1.48767e-19)
(0.43115 -0.0480835 0)
(0.431199 -0.0553178 -5.24361e-18)
(0.431104 -0.0642817 1.64784e-19)
(0.430787 -0.0756902 -2.74869e-18)
(0.430098 -0.0903793 9.02427e-20)
(0.42868 -0.111064 0)
(0.426529 -0.13664 -5.84717e-18)
(0.421051 -0.186018 5.34012e-18)
(0.414837 -0.228914 -2.84935e-18)
(0.395868 -0.39937 -2.32332e-19)
(0.423511 -0.00402055 0)
(0.424043 -0.00476708 -1.51769e-18)
(0.424521 -0.00570496 7.25978e-23)
(0.424913 -0.00667639 2.43648e-20)
(0.425282 -0.00766566 0)
(0.425657 -0.00872998 0)
(0.426017 -0.00990668 -1.6729e-18)
(0.42635 -0.0112036 0)
(0.426668 -0.0126231 1.09421e-19)
(0.426978 -0.0141738 -2.24969e-19)
(0.427275 -0.0158704 3.26821e-22)
(0.427554 -0.0177327 -1.77515e-18)
(0.427811 -0.019786 1.22164e-19)
(0.428041 -0.0220632 1.9006e-18)
(0.428241 -0.0246059 1.29832e-19)
(0.428406 -0.0274677 2.02595e-18)
(0.428528 -0.0307171 -2.20707e-18)
(0.428596 -0.0344443 -2.31314e-18)
(0.428594 -0.0387686 0)
(0.428496 -0.0438516 2.33417e-18)
(0.428265 -0.0499158 1.60241e-19)
(0.427846 -0.0572737 2.79698e-18)
(0.42714 -0.0663777 -1.7288e-19)
(0.426017 -0.0779094 2.82567e-18)
(0.424195 -0.0928171 -2.91933e-18)
(0.421256 -0.113281 0)
(0.416642 -0.139697 3.15163e-18)
(0.407746 -0.186495 -2.96756e-18)
(0.394914 -0.232434 2.91396e-18)
(0.36605 -0.391133 6.5047e-20)
(0.423137 -0.00511851 0)
(0.423516 -0.00583437 1.5127e-18)
(0.423838 -0.00670019 0)
(0.42415 -0.00764837 0)
(0.424463 -0.00866985 0)
(0.424777 -0.0097855 0)
(0.425081 -0.0110064 1.69665e-18)
(0.425367 -0.0123331 5.44746e-20)
(0.425631 -0.0137713 -5.60603e-20)
(0.425873 -0.0153357 0)
(0.426088 -0.017046 0)
(0.426271 -0.0189251 1.21721e-19)
(0.42642 -0.021 -2.56411e-22)
(0.426528 -0.0233043 -2.19263e-18)
(0.426591 -0.02588 0)
(0.426598 -0.0287809 -2.20191e-18)
(0.426536 -0.0320764 0)
(0.426385 -0.0358569 2.51e-18)
(0.426119 -0.0402425 -3.08619e-19)
(0.425699 -0.0453946 -2.38465e-18)
(0.425069 -0.051535 1.35008e-18)
(0.424143 -0.0589731 0)
(0.422784 -0.0681573 0)
(0.420801 -0.0797436 0)
(0.417796 -0.0947217 1.61467e-18)
(0.413269 -0.114914 -1.68842e-18)
(0.406119 -0.141702 0)
(0.393882 -0.185907 -1.77962e-18)
(0.374332 -0.234028 -1.86461e-18)
(0.335873 -0.380001 1.20408e-18)
(0.422603 -0.00611551 7.43217e-19)
(0.422891 -0.0068637 7.84021e-19)
(0.423127 -0.00774734 8.14752e-19)
(0.423389 -0.00871624 7.58537e-19)
(0.423658 -0.00975744 9.06052e-19)
(0.423911 -0.010881 7.96533e-19)
(0.424138 -0.0120996 8.71665e-19)
(0.424339 -0.0134229 -8.95187e-19)
(0.424514 -0.0148625 5.72213e-20)
(0.42466 -0.0164344 8.2898e-19)
(0.424774 -0.0181573 9.75312e-19)
(0.42485 -0.0200528 9.43192e-19)
(0.424881 -0.0221473 1.29147e-19)
(0.424859 -0.024474 -1.07306e-18)
(0.424774 -0.0270756 1.37899e-19)
(0.42461 -0.0300062 -2.85861e-19)
(0.424348 -0.0333354 -1.04678e-18)
(0.42396 -0.0371538 -1.24272e-18)
(0.42341 -0.0415807 0)
(0.422644 -0.0467763 -1.6733e-19)
(0.421585 -0.0529594 2.92699e-20)
(0.420121 -0.0604341 1.82725e-19)
(0.418071 -0.0696386 1.36404e-18)
(0.415185 -0.0812055 3.02262e-19)
(0.410955 -0.0961162 -4.31353e-20)
(0.404792 -0.115959 1.86067e-18)
(0.395071 -0.142664 -1.17267e-19)
(0.379579 -0.184285 1.86227e-18)
(0.353301 -0.233524 2.07336e-18)
(0.306165 -0.365971 -1.40009e-18)
(0.421942 -0.00708215 -7.64014e-19)
(0.422155 -0.00784259 -7.69252e-19)
(0.422311 -0.00872498 -8.12722e-19)
(0.422507 -0.00969112 3.07523e-20)
(0.422712 -0.0107336 -1.65889e-18)
(0.42289 -0.0118613 -8.61385e-19)
(0.423037 -0.0130864 -1.88595e-18)
(0.423156 -0.0144187 1.06585e-19)
(0.423247 -0.015869 -5.86719e-20)
(0.423303 -0.0174516 -1.9325e-18)
(0.423317 -0.0191847 9.85241e-21)
(0.423283 -0.0210903 -9.58427e-19)
(0.423191 -0.0231956 1.00202e-18)
(0.423029 -0.0255347 -1.33396e-20)
(0.422784 -0.0281505 1.42381e-19)
(0.422435 -0.0310969 -1.47746e-19)
(0.421957 -0.034443 1.21993e-18)
(0.421315 -0.0382785 1.26975e-18)
(0.42046 -0.0427209 1.67173e-19)
(0.419325 -0.0479276 1.06225e-18)
(0.417812 -0.0541122 -1.17451e-18)