/*--------------------------------*- C++ -*----------------------------------*\
  =========                 |
  \\      /  F ield         | OpenFOAM: The Open Source CFD Toolbox
   \\    /   O peration     | Website:  https://openfoam.org
    \\  /    A nd           | Version:  11
     \\/     M anipulation  |
\*---------------------------------------------------------------------------*/
FoamFile
{
    format      ascii;
    class       volScalarField;
    location    "7.2";
    object      p;
}
// * * * * * * * * * * * * * * * * * * * * * * * * * * * * * * * * * * * * * //

dimensions      [0 2 -2 0 0 0 0];

internalField   nonuniform List<scalar> 
12600
(
1.17337
1.17323
1.17317
1.17314
1.17312
1.17308
1.17304
1.173
1.17294
1.17288
1.17281
1.17273
1.17263
1.17251
1.17236
1.17219
1.17197
1.17171
1.17139
1.171
1.1705
1.16989
1.16914
1.1682
1.16702
1.16552
1.16361
1.16117
1.15806
1.15399
1.17329
1.17322
1.17317
1.17314
1.17312
1.17308
1.17304
1.173
1.17294
1.17289
1.17282
1.17273
1.17263
1.17251
1.17237
1.1722
1.17199
1.17173
1.17142
1.17103
1.17055
1.16993
1.16919
1.16827
1.16711
1.16563
1.16375
1.16135
1.15825
1.15424
1.17326
1.17323
1.17318
1.17315
1.17312
1.17309
1.17305
1.173
1.17295
1.17289
1.17282
1.17274
1.17265
1.17253
1.17239
1.17222
1.17201
1.17176
1.17146
1.17108
1.1706
1.17002
1.1693
1.1684
1.16727
1.16583
1.164
1.16166
1.1586
1.1547
1.17324
1.17322
1.17318
1.17314
1.17312
1.17309
1.17305
1.17301
1.17296
1.1729
1.17283
1.17275
1.17266
1.17255
1.17241
1.17225
1.17205
1.17181
1.17151
1.17115
1.1707
1.17014
1.16944
1.16858
1.1675
1.16612
1.16436
1.16211
1.15915
1.15538
1.17322
1.17321
1.17318
1.17315
1.17312
1.17309
1.17306
1.17302
1.17297
1.17291
1.17285
1.17277
1.17268
1.17258
1.17245
1.17229
1.1721
1.17187
1.17159
1.17124
1.17082
1.17029
1.16963
1.16882
1.16779
1.16649
1.16483
1.1627
1.15988
1.1563
1.17321
1.1732
1.17318
1.17315
1.17313
1.1731
1.17306
1.17302
1.17298
1.17293
1.17287
1.17279
1.17271
1.17261
1.17248
1.17234
1.17216
1.17194
1.17168
1.17136
1.17096
1.17047
1.16986
1.1691
1.16815
1.16694
1.1654
1.16342
1.16078
1.15743
1.17321
1.1732
1.17318
1.17316
1.17313
1.1731
1.17307
1.17304
1.17299
1.17294
1.17289
1.17282
1.17274
1.17264
1.17253
1.17239
1.17223
1.17203
1.17179
1.17149
1.17112
1.17067
1.17012
1.16943
1.16856
1.16746
1.16606
1.16426
1.16184
1.15877
1.1732
1.1732
1.17318
1.17316
1.17314
1.17311
1.17308
1.17305
1.17301
1.17296
1.17291
1.17285
1.17277
1.17268
1.17258
1.17246
1.17231
1.17212
1.1719
1.17164
1.17131
1.17091
1.17041
1.16979
1.16902
1.16805
1.16681
1.16521
1.16305
1.1603
1.1732
1.1732
1.17319
1.17317
1.17314
1.17312
1.17309
1.17306
1.17302
1.17298
1.17293
1.17288
1.17281
1.17273
1.17264
1.17253
1.17239
1.17223
1.17204
1.1718
1.17151
1.17116
1.17073
1.17019
1.16953
1.16869
1.16762
1.16625
1.16439
1.16201
1.17321
1.1732
1.17319
1.17317
1.17315
1.17313
1.17311
1.17308
1.17304
1.173
1.17296
1.17291
1.17285
1.17278
1.1727
1.1726
1.17248
1.17234
1.17218
1.17198
1.17173
1.17143
1.17107
1.17062
1.17007
1.16938
1.1685
1.16738
1.16584
1.16387
1.17321
1.1732
1.17319
1.17318
1.17316
1.17314
1.17312
1.17309
1.17306
1.17303
1.17299
1.17295
1.17289
1.17283
1.17276
1.17268
1.17258
1.17247
1.17233
1.17216
1.17196
1.17172
1.17143
1.17107
1.17064
1.1701
1.16942
1.16856
1.16737
1.16585
1.17321
1.17321
1.1732
1.17319
1.17317
1.17315
1.17313
1.17311
1.17308
1.17305
1.17302
1.17298
1.17294
1.17289
1.17283
1.17276
1.17269
1.17259
1.17248
1.17235
1.1722
1.17202
1.1718
1.17154
1.17123
1.17085
1.17037
1.16978
1.16896
1.16792
1.17322
1.17321
1.17321
1.17319
1.17318
1.17316
1.17315
1.17313
1.1731
1.17308
1.17305
1.17302
1.17299
1.17295
1.1729
1.17285
1.17279
1.17272
1.17264
1.17255
1.17244
1.17232
1.17218
1.17201
1.17182
1.1716
1.17133
1.17101
1.17057
1.17002
1.17322
1.17322
1.17321
1.1732
1.17319
1.17318
1.17316
1.17314
1.17313
1.17311
1.17308
1.17306
1.17303
1.17301
1.17297
1.17294
1.1729
1.17286
1.17281
1.17275
1.17269
1.17263
1.17256
1.17248
1.17241
1.17234
1.17228
1.17223
1.17216
1.17211
1.17323
1.17323
1.17322
1.17321
1.1732
1.17319
1.17318
1.17316
1.17315
1.17313
1.17312
1.1731
1.17308
1.17307
1.17305
1.17303
1.17301
1.17299
1.17297
1.17295
1.17294
1.17293
1.17293
1.17295
1.17299
1.17307
1.1732
1.17341
1.17371
1.17414
1.17324
1.17324
1.17323
1.17322
1.17321
1.1732
1.17319
1.17318
1.17317
1.17316
1.17315
1.17314
1.17313
1.17312
1.17312
1.17312
1.17312
1.17312
1.17313
1.17315
1.17318
1.17323
1.1733
1.1734
1.17356
1.17377
1.17409
1.17453
1.17516
1.17604
1.17325
1.17325
1.17324
1.17323
1.17323
1.17322
1.17321
1.1732
1.17319
1.17319
1.17318
1.17318
1.17318
1.17318
1.17319
1.1732
1.17322
1.17325
1.17329
1.17335
1.17342
1.17352
1.17366
1.17384
1.17409
1.17443
1.17491
1.17557
1.17649
1.17777
1.17326
1.17326
1.17325
1.17324
1.17324
1.17323
1.17322
1.17322
1.17322
1.17321
1.17322
1.17322
1.17323
1.17324
1.17326
1.17329
1.17333
1.17338
1.17345
1.17353
1.17365
1.1738
1.17399
1.17425
1.17459
1.17504
1.17566
1.17649
1.17766
1.17926
1.17327
1.17327
1.17326
1.17326
1.17325
1.17324
1.17324
1.17324
1.17324
1.17324
1.17325
1.17326
1.17327
1.1733
1.17333
1.17337
1.17343
1.1735
1.17359
1.17371
1.17387
1.17406
1.17431
1.17463
1.17505
1.1756
1.17633
1.1773
1.17865
1.18049
1.17328
1.17328
1.17327
1.17327
1.17326
1.17326
1.17326
1.17326
1.17326
1.17327
1.17328
1.17329
1.17332
1.17335
1.1734
1.17345
1.17353
1.17362
1.17374
1.17388
1.17407
1.17431
1.17461
1.17498
1.17547
1.17609
1.17691
1.17798
1.17945
1.18143
1.17329
1.17329
1.17328
1.17328
1.17327
1.17327
1.17327
1.17327
1.17328
1.17329
1.17331
1.17333
1.17336
1.1734
1.17346
1.17353
1.17362
1.17373
1.17387
1.17404
1.17426
1.17453
1.17488
1.1753
1.17584
1.17652
1.1774
1.17854
1.18006
1.18208
1.1733
1.1733
1.17329
1.17329
1.17328
1.17328
1.17328
1.17329
1.1733
1.17331
1.17333
1.17336
1.1734
1.17345
1.17351
1.1736
1.1737
1.17383
1.17399
1.17419
1.17444
1.17474
1.17512
1.17559
1.17617
1.17689
1.1778
1.17896
1.18048
1.18245
1.17332
1.17331
1.17331
1.1733
1.17329
1.17329
1.1733
1.1733
1.17331
1.17333
1.17336
1.17339
1.17344
1.17349
1.17357
1.17366
1.17378
1.17392
1.1741
1.17432
1.17459
1.17493
1.17534
1.17583
1.17645
1.1772
1.17812
1.17927
1.18073
1.18256
1.17333
1.17333
1.17332
1.17331
1.1733
1.1733
1.17331
1.17332
1.17333
1.17335
1.17338
1.17342
1.17347
1.17353
1.17362
1.17372
1.17385
1.174
1.1742
1.17444
1.17473
1.17509
1.17552
1.17605
1.17668
1.17745
1.17837
1.17948
1.18083
1.18247
1.17335
1.17334
1.17333
1.17332
1.17331
1.17331
1.17332
1.17333
1.17334
1.17337
1.1734
1.17344
1.1735
1.17357
1.17366
1.17377
1.17391
1.17408
1.17429
1.17454
1.17485
1.17523
1.17568
1.17623
1.17688
1.17764
1.17855
1.1796
1.18083
1.18223
1.17336
1.17335
1.17334
1.17332
1.17332
1.17332
1.17333
1.17334
1.17336
1.17338
1.17342
1.17346
1.17352
1.1736
1.17369
1.17381
1.17396
1.17414
1.17436
1.17463
1.17496
1.17535
1.17582
1.17638
1.17703
1.1778
1.17867
1.17966
1.18076
1.1819
1.17339
1.17337
1.17334
1.17333
1.17332
1.17333
1.17333
1.17335
1.17337
1.17339
1.17343
1.17348
1.17354
1.17362
1.17372
1.17385
1.174
1.17419
1.17442
1.1747
1.17504
1.17544
1.17593
1.17649
1.17716
1.17791
1.17876
1.17968
1.18065
1.18156
1.17341
1.17339
1.17335
1.17333
1.17333
1.17334
1.17334
1.17335
1.17337
1.1734
1.17344
1.17349
1.17356
1.17364
1.17375
1.17387
1.17403
1.17423
1.17447
1.17476
1.1751
1.17552
1.17601
1.17659
1.17725
1.17799
1.17881
1.17968
1.18054
1.18127
1.17345
1.17339
1.17335
1.17334
1.17334
1.17334
1.17334
1.17336
1.17338
1.17341
1.17345
1.1735
1.17357
1.17365
1.17376
1.17389
1.17406
1.17426
1.1745
1.17479
1.17515
1.17557
1.17607
1.17665
1.17731
1.17805
1.17885
1.17966
1.18044
1.18107
1.17353
1.1734
1.17334
1.17334
1.17334
1.17334
1.17335
1.17336
1.17338
1.17341
1.17345
1.17351
1.17358
1.17366
1.17377
1.17391
1.17407
1.17427
1.17452
1.17482
1.17518
1.1756
1.17611
1.17669
1.17735
1.17809
1.17888
1.17966
1.18036
1.18075
1.15003
1.14828
1.14703
1.14607
1.14502
1.14383
1.14254
1.14121
1.13985
1.13843
1.13697
1.13545
1.13386
1.13218
1.13039
1.12845
1.12633
1.12397
1.1213
1.11824
1.11467
1.11044
1.10534
1.09907
1.09125
1.08121
1.06869
1.04933
1.03472
0.982123
1.15099
1.14964
1.14851
1.14753
1.14649
1.14535
1.14418
1.143
1.14181
1.14058
1.13932
1.13801
1.13664
1.13519
1.13364
1.13197
1.13014
1.1281
1.1258
1.12316
1.12008
1.11643
1.11203
1.10662
1.09989
1.09126
1.08037
1.0645
1.04983
1.00725
1.15123
1.1502
1.1493
1.14842
1.14749
1.14652
1.14554
1.14456
1.14356
1.14253
1.14147
1.14037
1.13922
1.13801
1.13672
1.13533
1.13381
1.13212
1.13021
1.12803
1.12548
1.12245
1.11879
1.1143
1.10868
1.1015
1.09236
1.0794
1.06604
1.03198
1.15196
1.15122
1.15057
1.14982
1.149
1.14819
1.14737
1.14655
1.14572
1.14488
1.14401
1.14312
1.1422
1.14123
1.14021
1.13911
1.1379
1.13657
1.13507
1.13335
1.13133
1.12893
1.12603
1.12245
1.11795
1.11218
1.10476
1.09439
1.08289
1.05618
1.15297
1.15244
1.15197
1.15134
1.15064
1.14998
1.14934
1.1487
1.14805
1.14739
1.14674
1.14606
1.14538
1.14466
1.14391
1.14311
1.14224
1.14128
1.14019
1.13895
1.13749
1.13574
1.13359
1.13093
1.12754
1.12315
1.11741
1.10941
1.1
1.07964
1.15424
1.1539
1.15361
1.15311
1.15256
1.15206
1.15158
1.15112
1.15065
1.15019
1.14974
1.14928
1.14883
1.14837
1.1479
1.14741
1.14688
1.14629
1.14564
1.14488
1.14397
1.14287
1.14148
1.13971
1.1374
1.13434
1.1302
1.12439
1.11709
1.10218
1.15577
1.1556
1.15547
1.15512
1.15471
1.15436
1.15405
1.15376
1.15348
1.15321
1.15297
1.15274
1.15253
1.15233
1.15214
1.15196
1.15177
1.15158
1.15135
1.15108
1.15073
1.15026
1.14962
1.14872
1.14744
1.14562
1.14299
1.13916
1.13389
1.1236
1.15753
1.15753
1.15757
1.15735
1.15709
1.15689
1.15675
1.15664
1.15654
1.15647
1.15643
1.15643
1.15646
1.15653
1.15662
1.15675
1.15691
1.1571
1.1573
1.1575
1.1577
1.15785
1.15792
1.15785
1.15754
1.15688
1.15563
1.15354
1.15016
1.14368
1.15953
1.15968
1.15987
1.1598
1.15967
1.15963
1.15966
1.15972
1.1598
1.15993
1.1601
1.16032
1.16059
1.16092
1.1613
1.16174
1.16224
1.1628
1.16341
1.16408
1.1648
1.16554
1.16628
1.16698
1.16757
1.16795
1.16794
1.16735
1.16567
1.16223
1.16173
1.16203
1.16236
1.16242
1.16244
1.16255
1.16274
1.16297
1.16324
1.16355
1.16393
1.16437
1.16488
1.16546
1.16612
1.16685
1.16768
1.1686
1.16961
1.17072
1.17193
1.17322
1.17458
1.17597
1.17736
1.17866
1.17972
1.18041
1.1802
1.17907
1.16411
1.16454
1.165
1.16519
1.16535
1.16561
1.16596
1.16635
1.16679
1.16729
1.16787
1.16852
1.16926
1.17008
1.171
1.17202
1.17316
1.17442
1.1758
1.17732
1.17897
1.18076
1.18267
1.18468
1.18676
1.18885
1.19081
1.19252
1.19353
1.19405
1.16662
1.16717
1.16774
1.16806
1.16835
1.16875
1.16925
1.1698
1.1704
1.17108
1.17185
1.1727
1.17364
1.1747
1.17586
1.17715
1.17857
1.18014
1.18186
1.18374
1.18579
1.18801
1.1904
1.19294
1.1956
1.19833
1.20102
1.20356
1.20554
1.20716
1.16921
1.16985
1.17052
1.17096
1.17138
1.17191
1.17254
1.17324
1.174
1.17484
1.17577
1.17681
1.17795
1.17921
1.18059
1.18212
1.18379
1.18563
1.18764
1.18984
1.19223
1.19482
1.1976
1.20057
1.20369
1.20693
1.21017
1.21332
1.21602
1.21839
1.1718
1.17253
1.17327
1.17382
1.17436
1.17501
1.17576
1.17659
1.17748
1.17847
1.17955
1.18075
1.18206
1.1835
1.18507
1.1868
1.18869
1.19076
1.19302
1.19547
1.19814
1.20102
1.20411
1.2074
1.21086
1.21444
1.21806
1.22157
1.2247
1.22747
1.17433
1.17512
1.17592
1.17656
1.1772
1.17796
1.17881
1.17975
1.18076
1.18187
1.18308
1.18441
1.18586
1.18745
1.18918
1.19107
1.19314
1.19539
1.19783
1.20049
1.20336
1.20645
1.20975
1.21326
1.21694
1.22072
1.22452
1.22817
1.23143
1.23411
1.17671
1.17754
1.17838
1.17909
1.17982
1.18066
1.1816
1.18262
1.18373
1.18493
1.18624
1.18768
1.18924
1.19094
1.19279
1.1948
1.197
1.19938
1.20195
1.20474
1.20775
1.21097
1.2144
1.21802
1.22179
1.22565
1.22949
1.23311
1.23629
1.23868
1.17886
1.17971
1.18057
1.18134
1.18213
1.18303
1.18404
1.18512
1.18629
1.18756
1.18894
1.19045
1.19208
1.19385
1.19578
1.19787
1.20014
1.2026
1.20525
1.20811
1.21117
1.21445
1.21792
1.22156
1.22532
1.22913
1.23288
1.23635
1.23934
1.24132
1.1807
1.18156
1.18242
1.18322
1.18406
1.185
1.18603
1.18715
1.18836
1.18966
1.19108
1.19262
1.19429
1.1961
1.19806
1.20018
1.20247
1.20495
1.20761
1.21048
1.21353
1.21678
1.22021
1.22377
1.22743
1.23108
1.23461
1.23779
1.2404
1.24172
1.18218
1.18303
1.18387
1.18468
1.18554
1.18649
1.18753
1.18866
1.18987
1.19118
1.1926
1.19414
1.1958
1.1976
1.19954
1.20165
1.20391
1.20635
1.20897
1.21178
1.21476
1.21791
1.2212
1.2246
1.22805
1.23143
1.23462
1.23733
1.23937
1.23991
1.18327
1.18408
1.18489
1.18569
1.18654
1.18748
1.1885
1.1896
1.19078
1.19206
1.19345
1.19494
1.19656
1.19831
1.20019
1.20223
1.20442
1.20677
1.20928
1.21196
1.2148
1.21778
1.22087
1.22402
1.22716
1.23016
1.23288
1.235
1.23638
1.23574
1.18395
1.1847
1.18547
1.18623
1.18705
1.18794
1.18891
1.18996
1.19109
1.1923
1.19362
1.19503
1.19657
1.19822
1.2
1.20192
1.20398
1.20619
1.20854
1.21103
1.21366
1.21639
1.2192
1.22201
1.22476
1.22728
1.22943
1.23083
1.23147
1.22911
1.18423
1.18492
1.18562
1.18633
1.18708
1.18791
1.18881
1.18977
1.19081
1.19192
1.19313
1.19444
1.19584
1.19736
1.19899
1.20075
1.20263
1.20464
1.20677
1.20902
1.21137
1.21379
1.21624
1.21864
1.2209
1.22285
1.22433
1.22487
1.22472
1.22028
1.18416
1.18478
1.18539
1.18602
1.1867
1.18743
1.18823
1.18908
1.18999
1.19098
1.19205
1.1932
1.19445
1.19579
1.19723
1.19877
1.20043
1.20219
1.20405
1.20599
1.20801
1.21005
1.21207
1.21397
1.21566
1.21693
1.21763
1.21715
1.21616
1.20956
1.18382
1.18434
1.18486
1.1854
1.18597
1.18659
1.18725
1.18797
1.18874
1.18957
1.19046
1.19143
1.19247
1.1936
1.1948
1.1961
1.19748
1.19893
1.20047
1.20205
1.20366
1.20526
1.20676
1.20809
1.20911
1.2096
1.20941
1.20773
1.20573
1.19654
1.18328
1.1837
1.18412
1.18454
1.18499
1.18547
1.18599
1.18654
1.18714
1.18778
1.18847
1.18922
1.19003
1.19089
1.19183
1.19282
1.19388
1.19499
1.19614
1.1973
1.19845
1.19952
1.20045
1.20111
1.20136
1.20095
1.19973
1.19664
1.19341
1.18125
1.18264
1.18296
1.18326
1.18356
1.18386
1.18419
1.18455
1.18492
1.18533
1.18576
1.18622
1.18672
1.18726
1.18784
1.18846
1.18911
1.1898
1.1905
1.19121
1.19189
1.1925
1.19298
1.19324
1.19314
1.19253
1.19108
1.18868
1.18396
1.1793
1.1637
1.18203
1.18223
1.18241
1.18255
1.18271
1.18287
1.18303
1.1832
1.18339
1.18358
1.18379
1.18401
1.18425
1.18451
1.18478
1.18506
1.18534
1.18559
1.18581
1.18596
1.18597
1.18578
1.18529
1.18434
1.18274
1.18011
1.17638
1.16981
1.16355
1.14394
1.18159
1.18162
1.18161
1.18162
1.18163
1.18164
1.18163
1.1816
1.18157
1.18151
1.18143
1.18135
1.18126
1.18115
1.18103
1.18087
1.18068
1.18044
1.1801
1.17963
1.17897
1.17803
1.17669
1.17477
1.17207
1.16811
1.1629
1.15421
1.14628
1.12193
1.18161
1.18134
1.18102
1.18082
1.18065
1.18045
1.18022
1.17999
1.17973
1.17941
1.17905
1.17865
1.17824
1.17777
1.17723
1.17664
1.17596
1.17518
1.17426
1.17314
1.17174
1.16998
1.1677
1.1647
1.16074
1.15527
1.14843
1.13715
1.12767
1.09758
1.1817
1.18111
1.18065
1.18041
1.18019
1.17987
1.17946
1.17898
1.17842
1.1778
1.1771
1.17631
1.17548
1.17457
1.17354
1.17241
1.17115
1.16975
1.16814
1.16627
1.16405
1.16136
1.15803
1.15383
1.1485
1.14131
1.13293
1.11809
1.10812
1.07039
1.04144
1.0095
0.973109
0.933742
0.891592
0.845992
0.796733
0.744644
0.690953
0.637031
0.584897
0.535754
0.491465
0.45774
0.439789
0.436525
0.441662
0.448099
0.451989
0.455184
0.45871
0.460327
0.459926
0.459474
0.460143
0.461845
0.463875
0.465301
0.465299
0.463709
1.08844
1.06034
1.0273
0.991771
0.953361
0.911236
0.864283
0.813065
0.757938
0.699755
0.640066
0.58124
0.525892
0.479119
0.450542
0.441568
0.444067
0.450084
0.453957
0.457572
0.460802
0.46149
0.460084
0.459598
0.461237
0.463875
0.466348
0.467985
0.466795
0.464583
1.09787
1.07269
1.04246
1.00853
0.971021
0.928948
0.882127
0.831313
0.776591
0.718649
0.658632
0.598876
0.542294
0.493309
0.462107
0.451123
0.452172
0.45671
0.459265
0.461194
0.462158
0.462033
0.460246
0.459175
0.460516
0.4632
0.465942
0.470143
0.46765
0.463283
1.1178
1.09465
1.0667
1.03584
1.00107
0.960658
0.914622
0.863279
0.806916
0.74647
0.683647
0.620971
0.56153
0.510114
0.476031
0.462424
0.461911
0.465701
0.468342
0.470115
0.470307
0.468641
0.465567
0.463636
0.463962
0.467837
0.473954
0.478169
0.46928
0.459264
1.12778
1.10779
1.08288
1.05488
1.02292
0.985259
0.941358
0.891341
0.835422
0.774274
0.709543
0.643968
0.58123
0.526629
0.489089
0.47259
0.470535
0.473984
0.477507
0.480551
0.482251
0.482315
0.481755
0.482589
0.485408
0.490189
0.493439
0.490751
0.48085
0.474501
1.13714
1.11945
1.09692
1.07118
1.04127
1.00559
0.96333
0.914438
0.859033
0.797597
0.731577
0.663755
0.598257
0.540821
0.50035
0.481527
0.478389
0.481921
0.486517
0.490878
0.494208
0.496491
0.498731
0.502229
0.507245
0.512131
0.515775
0.515572
0.515746
0.514332
1.1441
1.12841
1.10828
1.08494
1.05733
1.02381
0.983408
0.935784
0.880895
0.819136
0.751882
0.681972
0.613864
0.553752
0.510657
0.4898
0.485775
0.48955
0.495243
0.500961
0.505914
0.510151
0.514522
0.51993
0.526248
0.53232
0.537645
0.541794
0.547616
0.555299
1.14968
1.13581
1.11777
1.09659
1.07116
1.03981
1.00144
0.955419
0.901425
0.839674
0.771438
0.699589
0.628892
0.566056
0.520369
0.497555
0.492735
0.496875
0.503744
0.510893
0.517436
0.523411
0.529567
0.536565
0.544222
0.551844
0.559447
0.567378
0.578578
0.593968
1.15416
1.14187
1.1257
1.10649
1.08308
1.0538
1.01744
0.973122
0.92027
0.858848
0.789951
0.716411
0.643246
0.577699
0.529466
0.504808
0.499353
0.50401
0.512188
0.520853
0.528962
0.536527
0.544222
0.552579
0.561531
0.570821
0.580833
0.591975
0.60727
0.6258
1.15783
1.14692
1.13241
1.11497
1.09344
1.06613
1.03173
0.98916
0.937571
0.876674
0.807349
0.732342
0.656863
0.588679
0.53799
0.511628
0.505691
0.511051
0.520654
0.530878
0.540491
0.549468
0.558438
0.567926
0.57812
0.589119
0.601271
0.614514
0.631739
0.650681
1.16088
1.15117
1.13812
1.12228
1.10248
1.07705
1.04457
1.00378
0.953561
0.893349
0.823788
0.747498
0.669837
0.599081
0.546011
0.518066
0.511795
0.518028
0.529152
0.540947
0.551974
0.562166
0.572157
0.582587
0.593977
0.606587
0.620295
0.634223
0.651332
0.669468
1.16348
1.15479
1.14303
1.12862
1.11041
1.08674
1.05612
1.01712
0.96836
0.908986
0.839368
0.761964
0.682237
0.608958
0.553563
0.524139
0.517683
0.524949
0.537682
0.551038
0.563364
0.574557
0.585327
0.596531
0.609063
0.623048
0.637396
0.650452
0.665409
0.682727
1.16572
1.15793
1.1473
1.13417
1.11739
1.09537
1.06654
1.02931
0.982063
0.92365
0.854138
0.775779
0.694093
0.618337
0.560663
0.529862
0.523371
0.531824
0.546247
0.56113
0.574615
0.586583
0.597897
0.609729
0.623416
0.63846
0.652098
0.662055
0.673514
0.69179
1.16767
1.16068
1.15104
1.13905
1.12358
1.10309
1.07596
1.04047
0.99477
0.937416
0.86815
0.788979
0.705437
0.627243
0.567331
0.535255
0.528871
0.538667
0.554846
0.571201
0.585683
0.598187
0.609822
0.622254
0.637153
0.652557
0.663489
0.668097
0.676834
0.699526
1.16941
1.16311
1.15436
1.14339
1.1291
1.11002
1.0845
1.05071
1.00658
0.950359
0.881462
0.801608
0.716302
0.635706
0.573592
0.540335
0.534179
0.545493
0.563479
0.581227
0.596525
0.609316
0.62112
0.634243
0.650046
0.664683
0.670284
0.669237
0.679077
0.709369
1.17095
1.16527
1.15732
1.14725
1.13404
1.11626
1.09227
1.06012
1.01756
0.962544
0.894125
0.813707
0.726721
0.64375
0.579466
0.545165
0.539294
0.552311
0.57214
0.591185
0.607102
0.61994
0.631968
0.645723
0.661894
0.673561
0.672278
0.668548
0.684378
0.72337
1.17234
1.16722
1.15997
1.15073
1.13849
1.1219
1.09935
1.0688
1.0278
0.974031
0.906184
0.825312
0.736722
0.651398
0.584965
0.549684
0.544269
0.559138
0.580819
0.601052
0.617375
0.630093
0.642372
0.65647
0.671945
0.678269
0.671171
0.670139
0.695244
0.743085
1.17359
1.16897
1.16237
1.15386
1.14251
1.12703
1.10583
1.0768
1.03735
0.984873
0.917683
0.836455
0.746332
0.658668
0.590094
0.553857
0.549158
0.565984
0.589506
0.61081
0.627317
0.639815
0.651695
0.666142
0.67889
0.679053
0.670049
0.676727
0.712513
0.762805
1.17472
1.17056
1.16453
1.1567
1.14616
1.13169
1.11176
1.08421
1.04628
0.995122
0.928662
0.847169
0.755575
0.665581
0.594866
0.55775
0.553967
0.572851
0.598194
0.62044
0.636988
0.648773
0.660243
0.673655
0.682011
0.677786
0.671852
0.689101
0.731864
0.778299
1.17574
1.172
1.16651
1.15928
1.14948
1.13596
1.11721
1.09107
1.05465
1.00482
0.939156
0.857481
0.764475
0.672155
0.599296
0.561377
0.558689
0.579737
0.606884
0.629914
0.646354
0.656851
0.667579
0.678246
0.682368
0.676678
0.677786
0.705896
0.750069
0.788361
1.17666
1.17331
1.1683
1.16164
1.15252
1.13987
1.12223
1.09744
1.06249
1.01402
0.9492
0.867421
0.773055
0.678404
0.603398
0.564748
0.563331
0.58665
0.615583
0.639264
0.65458
0.664383
0.672717
0.680076
0.681707
0.676859
0.687897
0.724091
0.764095
0.793901
1.17748
1.17449
1.16994
1.1638
1.15531
1.14346
1.12686
1.10336
1.06985
1.02274
0.958826
0.877014
0.781336
0.684345
0.607183
0.567875
0.567901
0.5936
0.624278
0.648452
0.662099
0.670159
0.67564
0.680579
0.680543
0.680051
0.701579
0.740637
0.773004
0.79621
1.17822
1.17557
1.17144
1.16578
1.15787
1.14677
1.13114
1.10887
1.07677
1.03102
0.96806
0.886281
0.789334
0.689989
0.610658
0.570763
0.572404
0.6006
0.632926
0.656779
0.66929
0.673767
0.67705
0.680483
0.680003
0.686464
0.716308
0.754411
0.779924
0.797454
1.17887
1.17654
1.17281
1.1676
1.16023
1.14982
1.13511
1.11401
1.08329
1.03891
0.976937
0.895255
0.79708
0.69536
0.613854
0.573439
0.576859
0.60766
0.64144
0.664469
0.674624
0.67577
0.677959
0.680022
0.681066
0.695443
0.730978
0.765964
0.786412
0.798505
1.17944
1.17741
1.17406
1.16926
1.16239
1.15263
1.13878
1.1188
1.08941
1.0464
0.98545
0.903922
0.804553
0.700443
0.61669
0.575807
0.581266
0.614786
0.649636
0.671511
0.677657
0.676995
0.678381
0.679631
0.68413
0.706121
0.744589
0.775794
0.791786
0.799916
1.17992
1.17818
1.1752
1.17081
1.16439
1.15522
1.1422
1.12331
1.09525
1.0536
0.993716
0.912403
0.811863
0.705361
0.619573
0.578199
0.585688
0.621858
0.657404
0.676704
0.678984
0.677661
0.678433
0.6797
0.688928
0.717902
0.756682
0.783551
0.795589
0.802531
1.18031
1.17884
1.17622
1.17224
1.16629
1.15753
1.14525
1.12735
1.10057
1.06029
1.00148
0.920412
0.818716
0.709705
0.621233
0.579736
0.589914
0.628558
0.663852
0.679749
0.679739
0.67781
0.678541
0.680922
0.695277
0.72972
0.767031
0.789384
0.798536
0.806332
1.18064
1.1794
1.17711
1.17348
1.16805
1.16014
1.14856
1.13161
1.10607
1.06718
1.00955
0.928883
0.826293
0.715168
0.624796
0.582167
0.594457
0.634533
0.66776
0.68117
0.680451
0.678604
0.67934
0.683854
0.703973
0.741157
0.776039
0.794098
0.801182
0.810195
1.18093
1.17989
1.17787
1.17446
1.16914
1.16137
1.1504
1.13444
1.10991
1.07212
1.01529
0.934608
0.830689
0.716945
0.624737
0.582917
0.597842
0.639581
0.670148
0.68114
0.679885
0.677604
0.677715
0.684013
0.708722
0.750552
0.782916
0.796378
0.802586
0.81267
1.18124
1.18048
1.17896
1.17619
1.17161
1.16462
1.15449
1.13966
1.11681
1.08105
1.02626
0.946608
0.841615
0.724881
0.628594
0.585056
0.601119
0.64378
0.67294
0.682114
0.67987
0.678247
0.68138
0.69412
0.72283
0.763323
0.790781
0.801147
0.807676
0.815382
0.864343
0.824401
0.814657
0.834666
0.871638
0.914605
0.955479
0.976993
0.978144
0.969812
0.960074
0.950024
0.942432
0.937652
0.934982
0.934432
0.935922
0.939278
0.944211
0.950467
0.957785
0.965802
0.974524
0.983563
0.993209
1.00282
1.01369
1.02443
1.03824
1.04159
0.823069
0.786105
0.787224
0.823346
0.881923
0.936707
0.973579
0.994548
0.995655
0.983738
0.969148
0.955267
0.944552
0.936359
0.930987
0.928058
0.927949
0.930114
0.934109
0.939643
0.94642
0.954209
0.962786
0.971746
0.981163
0.990484
1.00021
1.0089
1.01936
1.0261
0.797454
0.769039
0.773772
0.808488
0.872645
0.939487
0.983208
1.00367
1.00899
0.998461
0.981035
0.963466
0.947915
0.935912
0.927656
0.920923
0.918554
0.918649
0.921346
0.926037
0.932258
0.939724
0.948173
0.957271
0.966862
0.976606
0.986635
0.996343
1.00691
1.01762
0.793488
0.772468
0.773837
0.800882
0.856649
0.918684
0.968149
1.00017
1.01088
1.00415
0.987806
0.96818
0.948811
0.93282
0.91982
0.912141
0.908457
0.905748
0.907255
0.911177
0.917159
0.924805
0.933711
0.943529
0.954022
0.964917
0.976138
0.987413
0.998762
1.00991
0.801432
0.789043
0.78444
0.800405
0.8424
0.894308
0.939084
0.971247
0.990294
0.995697
0.986961
0.969065
0.947697
0.927528
0.910515
0.898927
0.890752
0.888571
0.89012
0.892872
0.898242
0.90589
0.91512
0.925476
0.936699
0.948495
0.96062
0.972854
0.985011
0.996792
0.808574
0.806003
0.798777
0.804346
0.831562
0.869936
0.907126
0.937496
0.95847
0.968682
0.968607
0.958861
0.941831
0.921082
0.900392
0.883076
0.870732
0.864313
0.863044
0.867052
0.87242
0.880434
0.890021
0.901011
0.913091
0.925846
0.938992
0.952357
0.96579
0.978939
0.808788
0.81486
0.808788
0.808023
0.823104
0.848507
0.876198
0.901406
0.921021
0.932933
0.936314
0.931743
0.920477
0.904277
0.885234
0.865879
0.849147
0.836937
0.831522
0.830825
0.836083
0.845722
0.855628
0.867757
0.881641
0.896322
0.911223
0.926211
0.94125
0.955978
0.803349
0.813949
0.81086
0.807795
0.814521
0.829174
0.84732
0.865475
0.880753
0.890902
0.894614
0.891621
0.882724
0.869481
0.853444
0.836324
0.819792
0.805462
0.79546
0.79036
0.791529
0.798621
0.810196
0.823339
0.838886
0.856204
0.87389
0.891446
0.908827
0.925623
0.794066
0.806183
0.805067
0.802042
0.803936
0.810621
0.820352
0.830946
0.840118
0.845877
0.8468
0.842259
0.832539
0.818752
0.802737
0.786102
0.770489
0.757117
0.746936
0.740738
0.739177
0.743259
0.752269
0.765429
0.782522
0.802091
0.822742
0.843746
0.864617
0.884594
0.780369
0.792562
0.792714
0.790972
0.790321
0.791624
0.79465
0.798237
0.800803
0.800755
0.796759
0.788051
0.774687
0.757502
0.738034
0.71821
0.699972
0.684935
0.674338
0.668665
0.667825
0.671835
0.680501
0.693875
0.71144
0.732376
0.755409
0.780004
0.805083
0.829268
0.759859
0.773433
0.77494
0.774958
0.773284
0.771362
0.769536
0.767363
0.763854
0.757801
0.748003
0.733656
0.714734
0.691892
0.666463
0.640414
0.615947
0.595132
0.579698
0.571014
0.569387
0.574316
0.58496
0.600501
0.621217
0.644406
0.669054
0.697539
0.72778
0.75713
0.738349
0.751704
0.753751
0.755056
0.753199
0.749626
0.744669
0.738306
0.729954
0.718688
0.703418
0.683309
0.658281
0.628922
0.596371
0.562528
0.529747
0.500379
0.476457
0.459771
0.451681
0.452805
0.462534
0.480235
0.504805
0.532007
0.559843
0.591368
0.626703
0.662802
0.71531
0.728162
0.730657
0.732476
0.730824
0.726668
0.720065
0.711139
0.699553
0.684559
0.665123
0.640379
0.610015
0.574628
0.5353
0.493776
0.452427
0.41372
0.379938
0.352992
0.334524
0.325826
0.327628
0.339813
0.36202
0.39252
0.428537
0.467615
0.50754
0.547457
0.691302
0.702657
0.706189
0.708101
0.706957
0.702949
0.695921
0.68597
0.672872
0.655986
0.634328
0.606979
0.573319
0.533651
0.489159
0.441438
0.392683
0.345453
0.302301
0.265446
0.236518
0.216779
0.207355
0.209387
0.223175
0.247929
0.281931
0.322814
0.367984
0.416373
0.666142
0.676234
0.680122
0.682374
0.681915
0.678785
0.672564
0.663042
0.650046
0.633081
0.611282
0.58369
0.549548
0.50867
0.461696
0.410491
0.356826
0.303148
0.252155
0.206382
0.167859
0.13804
0.11785
0.108298
0.110634
0.12527
0.151618
0.188216
0.232568
0.282659
0.639546
0.649131
0.652924
0.655514
0.65598
0.654628
0.650441
0.64263
0.631209
0.615748
0.595594
0.569848
0.537718
0.498804
0.453342
0.402123
0.347225
0.290777
0.235252
0.183136
0.136643
0.0976799
0.0678209
0.048153
0.0397474
0.0435232
0.0597507
0.0878085
0.126065
0.172221
0.611078
0.621037
0.624852
0.627877
0.629801
0.630825
0.629209
0.624378
0.616024
0.603747
0.586965
0.56488
0.536709
0.501944
0.460664
0.413108
0.360933
0.306065
0.250705
0.197063
0.147134
0.102742
0.0656658
0.037629
0.0201778
0.0144554
0.0210257
0.0396201
0.069422
0.108198
0.580669
0.591615
0.59572
0.599692
0.603377
0.606481
0.608401
0.60837
0.604638
0.5969
0.58477
0.567777
0.545285
0.516635
0.481535
0.440682
0.394551
0.344645
0.292853
0.241454
0.192564
0.147976
0.109335
0.0781196
0.0556932
0.0431823
0.0421482
0.0524081
0.0735302
0.103601
0.548416
0.560833
0.565232
0.570227
0.575826
0.582798
0.589913
0.595131
0.597134
0.595017
0.588574
0.577548
0.561648
0.540393
0.513394
0.480767
0.442958
0.400922
0.356298
0.310825
0.266319
0.224637
0.187543
0.156706
0.133622
0.119533
0.114204
0.118959
0.133445
0.155774
0.515722
0.529288
0.533525
0.539678
0.547739
0.559326
0.572593
0.584171
0.592917
0.597358
0.597359
0.592841
0.583806
0.570143
0.55159
0.528024
0.499647
0.467245
0.431932
0.394946
0.357906
0.322288
0.289964
0.262701
0.241604
0.227447
0.220726
0.221639
0.231958
0.249284
0.484555
0.498292
0.501432
0.508137
0.518373
0.535339
0.556256
0.575613
0.59174
0.603209
0.609912
0.611984
0.609629
0.603071
0.59238
0.577484
0.558472
0.535758
0.510035
0.482253
0.453672
0.42665
0.401979
0.38013
0.36254
0.349872
0.343244
0.344456
0.354198
0.366132
0.456907
0.470051
0.47134
0.477684
0.48897
0.511119
0.540743
0.569439
0.593457
0.611926
0.625037
0.633266
0.637012
0.636656
0.632589
0.625013
0.614032
0.599961
0.583292
0.564685
0.54505
0.525463
0.507158
0.49148
0.479742
0.471511
0.466587
0.468562
0.478636
0.487381
0.435429
0.447094
0.446384
0.451649
0.462707
0.488763
0.527867
0.566244
0.598117
0.622985
0.641669
0.65513
0.66405
0.668875
0.670056
0.668087
0.663232
0.655755
0.646144
0.634978
0.622948
0.610822
0.59935
0.589408
0.581746
0.57671
0.574412
0.578478
0.589942
0.599302
0.42229
0.430715
0.428331
0.432275
0.442448
0.470977
0.520714
0.567408
0.605712
0.63565
0.658731
0.676313
0.689314
0.698257
0.703446
0.70541
0.70474
0.70178
0.696938
0.690759
0.683807
0.676746
0.67034
0.665264
0.66168
0.659453
0.659553
0.66473
0.675303
0.68331
0.418124
0.421119
0.417176
0.419184
0.42832
0.461054
0.517476
0.572186
0.615156
0.648456
0.674766
0.695578
0.711835
0.723963
0.732159
0.736792
0.738443
0.738009
0.735876
0.732556
0.728596
0.724603
0.721225
0.718972
0.717926
0.717929
0.719747
0.725476
0.735275
0.743195
0.421768
0.4199
0.412867
0.410672
0.419719
0.457272
0.518303
0.578362
0.623872
0.658983
0.687449
0.710754
0.729699
0.744573
0.755375
0.76225
0.765185
0.765783
0.764571
0.762086
0.759115
0.756367
0.75452
0.753916
0.754558
0.756116
0.758921
0.764447
0.773209
0.781009
0.431584
0.42624
0.415189
0.408917
0.41706
0.460267
0.525422
0.58604
0.6309
0.666107
0.69532
0.719862
0.740438
0.757334
0.770461
0.779656
0.784751
0.786044
0.784975
0.782585
0.779825
0.77734
0.775628
0.775301
0.776397
0.778447
0.781492
0.786599
0.794584
0.802385
0.443807
0.437216
0.423273
0.414572
0.423307
0.471939
0.542016
0.598118
0.639692
0.673503
0.701947
0.725895
0.745977
0.762601
0.775897
0.786011
0.793074
0.796059
0.795307
0.793831
0.792539