/*--------------------------------*- C++ -*----------------------------------*\
  =========                 |
  \\      /  F ield         | OpenFOAM: The Open Source CFD Toolbox
   \\    /   O peration     | Website:  https://openfoam.org
    \\  /    A nd           | Version:  11
     \\/     M anipulation  |
\*---------------------------------------------------------------------------*/
FoamFile
{
    format      ascii;
    class       volScalarField;
    location    "7.2";
    object      p;
}
// * * * * * * * * * * * * * * * * * * * * * * * * * * * * * * * * * * * * * //

dimensions      [0 2 -2 0 0 0 0];

internalField   nonuniform List<scalar> 
12600
(
0.0986102
0.0984735
0.0984113
0.0983954
0.0983828
0.0983655
0.098347
0.0983293
0.0983123
0.0982954
0.0982782
0.0982605
0.0982422
0.0982231
0.0982031
0.0981818
0.0981588
0.0981336
0.0981053
0.098074
0.0980384
0.0979964
0.0979463
0.0978861
0.0978118
0.0977175
0.0975949
0.0974285
0.0971974
0.0968079
0.0985326
0.0984643
0.0984133
0.098394
0.0983805
0.0983639
0.0983459
0.0983284
0.0983115
0.0982947
0.0982776
0.09826
0.0982418
0.0982229
0.0982031
0.0981818
0.098159
0.0981342
0.0981063
0.0980755
0.0980404
0.0979995
0.0979511
0.0978922
0.0978196
0.0977272
0.0976111
0.0974552
0.0972832
0.0971254
0.0984975
0.0984654
0.0984211
0.0983957
0.0983804
0.0983646
0.0983471
0.0983295
0.0983127
0.0982959
0.0982789
0.0982614
0.0982432
0.0982244
0.0982049
0.0981839
0.0981615
0.0981377
0.0981101
0.0980798
0.0980454
0.0980058
0.097959
0.0979023
0.0978329
0.0977461
0.097637
0.0974979
0.097339
0.0971488
0.0984721
0.0984521
0.0984178
0.0983924
0.0983767
0.0983618
0.0983451
0.0983281
0.0983115
0.098295
0.0982783
0.098261
0.0982431
0.0982246
0.0982054
0.0981846
0.0981626
0.0981383
0.0981127
0.0980834
0.0980503
0.0980125
0.0979681
0.0979149
0.0978501
0.0977697
0.0976691
0.0975434
0.0973863
0.0971873
0.0984532
0.0984403
0.0984151
0.0983923
0.0983763
0.0983617
0.0983456
0.098329
0.0983126
0.0982963
0.0982797
0.0982626
0.0982451
0.0982269
0.0982083
0.0981873
0.0981657
0.0981424
0.0981174
0.0980894
0.098058
0.0980223
0.0979808
0.0979315
0.0978721
0.0977992
0.0977085
0.0975953
0.0974465
0.0972591
0.0984389
0.0984301
0.098411
0.0983907
0.0983745
0.09836
0.0983445
0.0983284
0.0983122
0.0982961
0.0982797
0.0982628
0.0982455
0.0982274
0.0982081
0.098189
0.0981681
0.0981457
0.0981217
0.0980952
0.0980657
0.0980325
0.0979943
0.0979497
0.0978966
0.0978323
0.0977525
0.0976535
0.0975197
0.0973517
0.0984278
0.0984213
0.0984064
0.0983888
0.0983731
0.0983589
0.0983441
0.0983285
0.0983127
0.0982969
0.0982808
0.0982643
0.0982472
0.0982296
0.098211
0.0981921
0.0981719
0.0981505
0.0981275
0.0981026
0.0980752
0.0980447
0.0980104
0.0979709
0.0979247
0.0978698
0.0978024
0.0977196
0.0976058
0.0974643
0.0984191
0.098414
0.098402
0.0983866
0.0983718
0.0983579
0.0983436
0.0983285
0.098313
0.0982973
0.0982814
0.0982652
0.0982485
0.0982312
0.0982132
0.0981948
0.0981754
0.0981549
0.0981332
0.09811
0.0980849
0.0980574
0.0980271
0.0979931
0.0979543
0.0979095
0.0978558
0.0977912
0.0977013
0.0975924
0.0984121
0.098408
0.098398
0.0983845
0.0983706
0.0983571
0.0983432
0.0983285
0.0983134
0.098298
0.0982824
0.0982665
0.0982501
0.0982333
0.0982159
0.0981981
0.0981795
0.0981601
0.0981398
0.0981183
0.0980955
0.0980712
0.0980451
0.0980168
0.0979859
0.0979518
0.0979125
0.0978677
0.097805
0.0977334
0.0984066
0.0984031
0.0983946
0.0983826
0.0983696
0.0983564
0.0983428
0.0983286
0.0983138
0.0982987
0.0982834
0.0982678
0.0982518
0.0982354
0.0982186
0.0982014
0.0981836
0.0981653
0.0981463
0.0981267
0.0981063
0.0980851
0.0980633
0.0980409
0.0980179
0.0979947
0.0979705
0.0979464
0.0979131
0.0978822
0.0984024
0.0983994
0.0983918
0.0983809
0.0983687
0.0983559
0.0983427
0.0983288
0.0983143
0.0982996
0.0982845
0.0982692
0.0982536
0.0982377
0.0982214
0.0982049
0.098188
0.0981707
0.0981532
0.0981353
0.0981173
0.0980993
0.0980818
0.0980651
0.09805
0.0980376
0.0980286
0.0980257
0.098023
0.0980349
0.0983993
0.0983965
0.0983897
0.0983796
0.098368
0.0983556
0.0983427
0.0983291
0.098315
0.0983005
0.0982857
0.0982707
0.0982555
0.09824
0.0982243
0.0982084
0.0981924
0.0981762
0.09816
0.0981439
0.0981282
0.0981133
0.0980999
0.0980887
0.0980812
0.0980793
0.0980849
0.0981029
0.0981308
0.0981859
0.0983971
0.0983945
0.0983882
0.0983788
0.0983676
0.0983556
0.0983429
0.0983295
0.0983157
0.0983014
0.0982869
0.0982723
0.0982574
0.0982424
0.0982272
0.098212
0.0981968
0.0981817
0.0981668
0.0981524
0.0981389
0.0981269
0.0981173
0.0981113
0.0981107
0.0981185
0.098138
0.0981755
0.0982329
0.0983299
0.0983958
0.0983934
0.0983873
0.0983783
0.0983675
0.0983557
0.0983432
0.0983301
0.0983165
0.0983025
0.0982882
0.0982738
0.0982593
0.0982448
0.0982302
0.0982156
0.0982012
0.0981871
0.0981735
0.0981607
0.0981492
0.0981398
0.0981336
0.0981322
0.0981379
0.0981544
0.0981861
0.0982411
0.0983255
0.098461
0.0983954
0.098393
0.0983871
0.0983783
0.0983677
0.0983561
0.0983437
0.0983308
0.0983173
0.0983035
0.0982896
0.0982755
0.0982613
0.0982472
0.0982331
0.0982191
0.0982055
0.0981923
0.0981799
0.0981685
0.0981589
0.0981518
0.0981486
0.0981511
0.0981621
0.0981858
0.0982277
0.0982975
0.0984048
0.0985735
0.0983957
0.0983934
0.0983875
0.0983788
0.0983682
0.0983567
0.0983444
0.0983316
0.0983183
0.0983047
0.0982909
0.0982771
0.0982633
0.0982496
0.0982359
0.0982226
0.0982097
0.0981974
0.098186
0.0981759
0.0981679
0.0981628
0.098162
0.0981677
0.0981828
0.098212
0.0982618
0.0983426
0.0984677
0.098662
0.0983969
0.0983945
0.0983886
0.0983797
0.098369
0.0983575
0.0983453
0.0983325
0.0983193
0.0983059
0.0982923
0.0982788
0.0982653
0.0982519
0.0982387
0.0982259
0.0982137
0.0982021
0.0981917
0.0981827
0.098176
0.0981725
0.0981736
0.0981816
0.0981996
0.0982324
0.0982872
0.0983749
0.0985114
0.0987219
0.0983989
0.0983965
0.0983902
0.098381
0.0983702
0.0983585
0.0983463
0.0983335
0.0983204
0.0983071
0.0982937
0.0982804
0.0982672
0.0982542
0.0982414
0.0982291
0.0982175
0.0982066
0.098197
0.0981889
0.0981833
0.0981809
0.0981833
0.0981927
0.0982122
0.0982467
0.0983035
0.0983935
0.0985342
0.0987501
0.0984019
0.0983992
0.0983925
0.0983828
0.0983715
0.0983597
0.0983474
0.0983346
0.0983215
0.0983083
0.0982951
0.098282
0.098269
0.0982563
0.098244
0.0982322
0.098221
0.0982108
0.0982018
0.0981945
0.0981896
0.098188
0.0981911
0.098201
0.0982207
0.0982548
0.0983104
0.0983979
0.0985353
0.0987448
0.0984057
0.0984027
0.0983954
0.0983849
0.0983731
0.098361
0.0983487
0.0983358
0.0983227
0.0983095
0.0982964
0.0982835
0.0982708
0.0982584
0.0982464
0.098235
0.0982243
0.0982146
0.0982062
0.0981994
0.098195
0.0981938
0.098197
0.0982066
0.0982252
0.0982571
0.0983085
0.0983889
0.0985152
0.0987066
0.0984106
0.0984072
0.0983989
0.0983874
0.0983749
0.0983626
0.09835
0.098337
0.0983238
0.0983107
0.0982977
0.098285
0.0982725
0.0982604
0.0982487
0.0982377
0.0982274
0.0982181
0.09821
0.0982037
0.0981995
0.0981983
0.0982012
0.0982096
0.098226
0.0982538
0.0982984
0.0983673
0.0984756
0.0986378
0.0984167
0.0984127
0.098403
0.0983901
0.0983768
0.0983642
0.0983515
0.0983383
0.098325
0.0983119
0.098299
0.0982864
0.0982741
0.0982622
0.0982509
0.0982401
0.0982302
0.0982213
0.0982135
0.0982074
0.0982033
0.0982018
0.0982039
0.0982106
0.0982238
0.098246
0.0982814
0.0983354
0.0984197
0.0985435
0.0984243
0.0984193
0.0984077
0.0983929
0.0983788
0.098366
0.098353
0.0983395
0.0983261
0.0983129
0.0983002
0.0982877
0.0982756
0.0982639
0.0982527
0.0982423
0.0982326
0.0982239
0.0982164
0.0982104
0.0982062
0.0982042
0.098205
0.0982095
0.0982187
0.0982343
0.0982588
0.0982953
0.0983514
0.0984297
0.0984336
0.0984272
0.0984127
0.0983957
0.0983809
0.0983678
0.0983545
0.0983407
0.0983271
0.0983141
0.0983014
0.0982891
0.0982771
0.0982656
0.0982547
0.0982445
0.0982351
0.0982266
0.0982193
0.0982133
0.0982088
0.0982061
0.0982056
0.0982075
0.0982122
0.0982204
0.0982331
0.0982505
0.098276
0.0983055
0.0984452
0.0984365
0.0984178
0.0983982
0.0983829
0.0983696
0.0983558
0.0983416
0.0983279
0.0983148
0.0983021
0.0982899
0.098278
0.0982667
0.0982559
0.0982459
0.0982367
0.0982284
0.0982212
0.0982151
0.0982103
0.0982069
0.0982048
0.098204
0.0982042
0.0982047
0.0982052
0.0982033
0.0981981
0.098179
0.0984599
0.0984472
0.0984224
0.0984003
0.0983852
0.0983719
0.0983576
0.0983431
0.0983293
0.0983162
0.0983036
0.0982914
0.0982796
0.0982684
0.0982579
0.098248
0.0982389
0.0982308
0.0982236
0.0982174
0.0982123
0.0982081
0.0982045
0.098201
0.0981966
0.0981897
0.0981782
0.0981577
0.0981243
0.0980606
0.0984792
0.0984595
0.0984256
0.0984009
0.0983861
0.0983726
0.0983577
0.0983429
0.0983291
0.098316
0.0983036
0.0982914
0.0982798
0.0982688
0.0982584
0.0982487
0.0982398
0.0982318
0.0982247
0.0982184
0.0982129
0.0982081
0.0982033
0.0981973
0.0981888
0.0981749
0.0981524
0.098115
0.0980583
0.097957
0.098505
0.098473
0.0984294
0.0984045
0.0983902
0.0983757
0.0983599
0.0983448
0.0983309
0.0983178
0.0983052
0.0982931
0.0982815
0.0982705
0.0982601
0.0982505
0.0982418
0.0982338
0.0982267
0.0982205
0.0982146
0.098209
0.0982031
0.0981952
0.0981831
0.0981633
0.0981309
0.0980779
0.0980041
0.0978815
0.0985402
0.0984721
0.0984218
0.0984032
0.0983906
0.0983753
0.0983591
0.098344
0.0983302
0.0983173
0.0983048
0.0982928
0.0982813
0.0982705
0.0982603
0.0982508
0.0982421
0.0982343
0.0982273
0.098221
0.0982153
0.0982096
0.0982028
0.0981934
0.0981788
0.0981545
0.0981137
0.098046
0.0979501
0.0978393
0.098618
0.0984815
0.0984199
0.0984047
0.0983931
0.098377
0.0983603
0.0983451
0.0983313
0.0983182
0.0983057
0.0982937
0.0982822
0.0982714
0.0982612
0.0982518
0.0982431
0.0982354
0.0982284
0.0982221
0.0982167
0.0982111
0.0982037
0.0981935
0.0981777
0.098151
0.0981049
0.0980259
0.0978759
0.0976046
0.0970712
0.0964416
0.0961741
0.0962405
0.0962968
0.0962581
0.0961753
0.0961
0.0960405
0.0959949
0.095965
0.0959541
0.095965
0.0959995
0.0960602
0.0961503
0.0962738
0.0964351
0.0966388
0.0968893
0.0971905
0.0975399
0.0979462
0.0983144
0.0988595
0.098432
0.0997705
0.09289
0.0982803
0.050437
0.097501
0.0969272
0.0965731
0.0965523
0.0965383
0.0964678
0.0963833
0.0963191
0.0962834
0.0962661
0.0962655
0.0962852
0.0963286
0.0963981
0.0964973
0.0966305
0.096803
0.0970208
0.0972906
0.09762
0.0980167
0.0984869
0.0990364
0.0996332
0.10035
0.100583
0.101829
0.0973747
0.101667
0.0625366
0.0970556
0.0967674
0.0965958
0.0966088
0.0966189
0.096571
0.0965223
0.0964978
0.0964947
0.0965061
0.0965339
0.0965839
0.0966601
0.0967657
0.096905
0.0970835
0.0973078
0.0975854
0.0979257
0.0983392
0.0988383
0.0994362
0.100146
0.100966
0.101926
0.102723
0.104139
0.101788
0.105475
0.0747348
0.0969982
0.0968954
0.0968288
0.0968126
0.0967975
0.0967638
0.0967389
0.0967376
0.0967569
0.0967934
0.0968501
0.096932
0.0970431
0.0971872
0.0973695
0.0975966
0.0978765
0.0982188
0.0986351
0.0991397
0.0997496
0.100485
0.101369
0.102422
0.103669
0.104991
0.106756
0.106263
0.109782
0.0868351
0.0970446
0.0970007
0.0969745
0.0969595
0.0969514
0.0969476
0.0969561
0.0969837
0.0970302
0.0970957
0.0971838
0.0972993
0.0974468
0.0976312
0.0978587
0.0981373
0.0984763
0.0988873
0.0993848
0.0999867
0.100715
0.101598
0.102668
0.103966
0.105531
0.107355
0.109612
0.110759
0.114537
0.0987502
0.0971429
0.0971374
0.0971477
0.0971509
0.0971579
0.0971766
0.0972103
0.0972618
0.0973331
0.0974264
0.0975456
0.0976952
0.0978804
0.0981069
0.098382
0.0987146
0.099116
0.0995998
0.100183
0.100888
0.101742
0.102781
0.104049
0.105603
0.107506
0.109828
0.112666
0.115281
0.119629
0.110349
0.0972767
0.0972984
0.0973345
0.0973546
0.0973776
0.0974177
0.0974765
0.0975542
0.0976528
0.0977759
0.0979275
0.0981127
0.098337
0.0986073
0.0989319
0.0993211
0.0997878
0.100348
0.101022
0.101835
0.102821
0.104022
0.105496
0.107316
0.109572
0.112389
0.115864
0.119795
0.124949
0.121467
0.0974341
0.0974784
0.0975366
0.0975755
0.0976175
0.0976797
0.0977631
0.0978663
0.0979919
0.0981444
0.0983285
0.0985496
0.0988139
0.0991291
0.0995047
0.0999524
0.100487
0.101126
0.101893
0.102818
0.103941
0.105311
0.106997
0.10909
0.111706
0.115014
0.11915
0.124262
0.130399
0.13192
0.0976107
0.0976745
0.0977522
0.0978095
0.0978708
0.0979544
0.0980612
0.0981897
0.0983424
0.0985246
0.0987416
0.098999
0.099304
0.0996649
0.100093
0.1006
0.101203
0.101923
0.102786
0.103826
0.105088
0.106629
0.10853
0.110898
0.113873
0.117665
0.122461
0.128629
0.135855
0.141546
0.0978
0.0978814
0.0979765
0.098052
0.0981324
0.0982369
0.0983666
0.0985198
0.0986994
0.0989109
0.0991603
0.0994539
0.0997993
0.100206
0.100686
0.101253
0.101925
0.102727
0.103686
0.104841
0.106242
0.107955
0.11007
0.112709
0.116037
0.120294
0.125726
0.132828
0.14118
0.150197
0.0979973
0.0980939
0.0982043
0.0982969
0.098396
0.0985205
0.098672
0.0988489
0.0990543
0.0992943
0.0995753
0.0999041
0.100289
0.100741
0.101271
0.101897
0.102638
0.103519
0.104573
0.105842
0.107379
0.10926
0.111583
0.114485
0.118149
0.122844
0.128868
0.13678
0.146214
0.157672
0.0981955
0.0983051
0.0984285
0.098537
0.0986538
0.0987971
0.0989688
0.0991679
0.0993978
0.0996647
0.0999756
0.100338
0.100761
0.101255
0.101835
0.102517
0.103323
0.104281
0.105426
0.106803
0.108471
0.110511
0.113031
0.116179
0.120156
0.125251
0.131806
0.1404
0.150781
0.1637
0.0983874
0.0985077
0.0986415
0.0987642
0.0988972
0.0990575
0.0992474
0.0994666
0.0997186
0.10001
0.100348
0.100741
0.101199
0.101733
0.102358
0.103092
0.10396
0.104989
0.106218
0.107695
0.109484
0.111671
0.114371
0.117741
0.121998
0.127445
0.134456
0.1436
0.154727
0.168251
0.098565
0.0986933
0.0988347
0.0989694
0.0991165
0.0992915
0.099497
0.0997334
0.100005
0.100317
0.10068
0.101099
0.101587
0.102156
0.102821
0.103602
0.104523
0.105616
0.10692
0.108486
0.110382
0.112699
0.115556
0.119119
0.123615
0.129354
0.136735
0.146289
0.157954
0.171754
0.0987198
0.0988533
0.0989995
0.0991435
0.099302
0.0994887
0.0997064
0.0999564
0.100243
0.100573
0.100954
0.101396
0.101909
0.102506
0.103204
0.104024
0.10499
0.106136
0.107502
0.109143
0.111128
0.113552
0.116538
0.120258
0.124943
0.130908
0.13856
0.14838
0.160387
0.173985
0.0988437
0.0989795
0.0991274
0.0992774
0.099444
0.0996386
0.0998646
0.100124
0.100421
0.100763
0.101158
0.101615
0.102146
0.102764
0.103487
0.104335
0.105335
0.106521
0.107935
0.109632
0.111685
0.114189
0.117272
0.121106
0.125925
0.132039
0.139857
0.149791
0.161908
0.174598
0.0989295
0.0990644
0.0992108
0.0993632
0.0995339
0.0997322
0.0999618
0.100225
0.100527
0.100875
0.101277
0.101743
0.102284
0.102914
0.103651
0.104516
0.105537
0.106748
0.108192
0.109925
0.112021
0.114575
0.117716
0.121616
0.126507
0.132689
0.140558
0.150442
0.162369
0.173758
0.0989716
0.0991024
0.099244
0.0993947
0.0995648
0.0997621
0.09999
0.100252
0.100553
0.1009
0.101301
0.101767
0.102308
0.10294
0.10368
0.10455
0.105577
0.106795
0.10825
0.109996
0.112107
0.114678
0.117838
0.121753
0.12665
0.132812
0.140613
0.150262
0.161693
0.171538
0.0989666
0.09909
0.0992236
0.0993683
0.0995328
0.0997236
0.0999442
0.100198
0.100491
0.10083
0.101222
0.101679
0.102211
0.102834
0.103564
0.104424
0.105441
0.10665
0.108094
0.109828
0.111925
0.114479
0.117613
0.12149
0.126325
0.132378
0.139985
0.149214
0.159971
0.167826
0.0989143
0.0990271
0.0991494
0.0992836
0.0994373
0.099616
0.0998234
0.100063
0.100341
0.100663
0.101039
0.101477
0.101989
0.102591
0.103298
0.104134
0.105125
0.106305
0.107716
0.109413
0.111466
0.113966
0.117032
0.120816
0.125522
0.131376
0.138674
0.147309
0.157325
0.162465
0.0988174
0.0989162
0.099024
0.0991432
0.0992807
0.0994418
0.0996299
0.0998488
0.100104
0.100402
0.100752
0.101162
0.101644
0.102213
0.102885
0.103682
0.10463
0.105762
0.107119
0.108754
0.110734
0.113146
0.116101
0.119742
0.124254
0.129824
0.13671
0.144583
0.153808
0.155676
0.098683
0.0987647
0.0988546
0.0989542
0.0990704
0.0992083
0.0993712
0.0995629
0.0997885
0.100055
0.10037
0.100742
0.101184
0.101708
0.102332
0.103076
0.103965
0.105031
0.106313
0.107862
0.109742
0.112032
0.114837
0.118286
0.122542
0.127746
0.134129
0.141082
0.149478
0.147697
0.0985197
0.0985812
0.0986498
0.0987257
0.0988157
0.0989253
0.0990577
0.0992161
0.0994056
0.0996326
0.0999048
0.100231
0.100622
0.101092
0.101655
0.102332
0.103147
0.10413
0.105318
0.106759
0.108511
0.110649
0.113267
0.116478
0.120423
0.12519
0.130998
0.136884
0.14441
0.138297
0.098341
0.0983793
0.0984229
0.0984707
0.0985299
0.0986064
0.0987026
0.0988217
0.0989686
0.0991495
0.0993716
0.0996435
0.0999753
0.10038
0.100872
0.10147
0.102198
0.103082
0.104159
0.105472
0.107073
0.109032
0.111431
0.114364
0.117953
0.122221
0.127396
0.132067
0.138719
0.127474
0.0981599
0.0981721
0.0981863
0.0982022
0.0982284
0.0982692
0.0983259
0.0984009
0.0984994
0.0986277
0.0987926
0.0990022
0.0992662
0.0995964
0.100007
0.100516
0.101144
0.101917
0.102867
0.104035
0.105467
0.107224
0.109377
0.112
0.115196
0.118913
0.123415
0.126708
0.132544
0.11544
0.0979971
0.0979796
0.0979552
0.0979315
0.0979198
0.0979211
0.0979346
0.0979626
0.0980098
0.0980818
0.0981848
0.0983266
0.0985166
0.0987656
0.0990871
0.0994971
0.100015
0.100666
0.101477
0.102485
0.103732
0.105268
0.107154
0.109444
0.112218
0.115339
0.119146
0.120915
0.125998
0.10238
0.0978723
0.0978223
0.0977526
0.0976911
0.0976444
0.0976026
0.0975646
0.0975373
0.0975265
0.0975357
0.0975705
0.0976385
0.0977482
0.0979098
0.0981353
0.0984398
0.0988411
0.0993608
0.100025
0.100863
0.101914
0.103218
0.104823
0.10676
0.109093
0.111582
0.114693
0.114738
0.119199
0.0885401
0.0978312
0.0976882
0.097527
0.0974276
0.0973632
0.0972942
0.0972142
0.0971356
0.0970675
0.0970116
0.0969746
0.0969646
0.0969895
0.0970577
0.0971805
0.0973716
0.0976476
0.0980276
0.0985344
0.0991946
0.100039
0.101099
0.102411
0.103982
0.105866
0.107686
0.110141
0.108238
0.112323
0.0741176
0.0981077
0.0977838
0.0974455
0.0972584
0.097143
0.0970247
0.096898
0.0967693
0.0966386
0.096515
0.0964025
0.096312
0.096251
0.0962257
0.0962459
0.0963247
0.0964769
0.0967192
0.0970708
0.0975538
0.0981926
0.0990097
0.10003
0.101233
0.102668
0.10379
0.105655
0.101568
0.105511
0.059318
0.0979588
0.097429
0.0971344
0.0970383
0.0969707
0.0968395
0.0966637
0.0964718
0.0962764
0.0960845
0.0958896
0.0957121
0.095557
0.0954256
0.095327
0.0952752
0.095285
0.0953706
0.0955488
0.0958375
0.0962552
0.0968151
0.0975338
0.098354
0.0993563
0.0997145
0.10116
0.0945616
0.0986858
0.0443624
0.030941
0.0168363
0.000908428
-0.0157971
-0.0325624
-0.0491405
-0.0652918
-0.080681
-0.0948787
-0.107347
-0.1175
-0.124765
-0.1286
-0.129052
-0.12684
-0.123215
-0.11961
-0.116616
-0.114253
-0.112842
-0.112283
-0.111758
-0.110814
-0.109584
-0.108032
-0.105882
-0.103318
-0.101285
-0.0994144
-0.0980581
0.0915674
0.0810965
0.0695693
0.0580767
0.046059
0.033199
0.0197518
0.00597305
-0.0079157
-0.0216009
-0.0348026
-0.0473997
-0.0583443
-0.0670258
-0.0742731
-0.0801376
-0.0852532
-0.0902604
-0.0950813
-0.0995842
-0.103546
-0.106524
-0.107954
-0.10691
-0.102276
-0.0948078
-0.0876928
-0.0837633
-0.0834082
-0.0841751
0.0886585
0.0815292
0.073389
0.064206
0.0537889
0.0422508
0.0296899
0.0164579
0.00329631
-0.00939261
-0.0215937
-0.0329757
-0.042999
-0.0513596
-0.0582113
-0.0636987
-0.0683117
-0.0721318
-0.0752786
-0.0781498
-0.0801029
-0.0802991
-0.0786699
-0.075615
-0.07203
-0.0695383
-0.0698997
-0.0730994
-0.078192
-0.0826816
0.0974465
0.0923547
0.0859056
0.0785707
0.0702842
0.0608326
0.0502256
0.038704
0.026547
0.0139878
0.00139638
-0.0106651
-0.0216353
-0.0310949
-0.0388886
-0.045098
-0.049987
-0.0536673
-0.0561903
-0.0576164
-0.0577032
-0.0563575
-0.0540431
-0.0515283
-0.0495164
-0.0482547
-0.0477525
-0.0474846
-0.0466522
-0.0454996
0.0966163
0.0928904
0.0883217
0.0829207
0.0764851
0.068891
0.0601031
0.050158
0.0392091
0.027558
0.0156185
0.00388921
-0.00708252
-0.0167878
-0.0248988
-0.031332
-0.0361699
-0.0395052
-0.0413892
-0.0418993
-0.0410979
-0.0392083
-0.0366491
-0.0338309
-0.0309076
-0.0277625
-0.024142
-0.0198418
-0.0146213
-0.00918157
0.0969611
0.0941783
0.0906153
0.0861886
0.0808042
0.0743354
0.0666915
0.0578575
0.0479252
0.0371263
0.0258279
0.0145121
0.00374435
-0.00591338
-0.0140359
-0.0204178
-0.0250432
-0.0279867
-0.0293005
-0.0291211
-0.0276221
-0.0250536
-0.0217033
-0.017773
-0.0132931
-0.00818701
-0.00238034
0.00405869
0.0110729
0.0179046
0.0963538
0.0941473
0.0913072
0.0877486
0.083322
0.0778885
0.0713313
0.0635874
0.0546833
0.0447749
0.0341744
0.0233478
0.0128752
0.00336217
-0.00468646
-0.0109658
-0.0153765
-0.0179448
-0.0187821
-0.0180015
-0.0158256
-0.0125033
-0.0082661
-0.00326837
0.00242016
0.00873972
0.0155485
0.0225563
0.0294967
0.0354144
0.0958523
0.0940664
0.0917498
0.0887916
0.0850309
0.0803527
0.074625
0.0677548
0.0597207
0.0506183
0.0407045
0.0304103
0.020309
0.011033
0.00314804
-0.00296113
-0.00712488
-0.00934171
-0.00969846
-0.00834688
-0.00552451
-0.00148605
0.00354092
0.00937311
0.0158466
0.0227496
0.0297703
0.036538
0.0427389
0.0475687
0.0953678
0.0938523
0.0918772
0.0893365
0.0861222
0.0820526
0.0769969
0.0708498
0.0635567
0.0551686
0.0458944
0.0361276
0.0264273
0.0174418
0.00978265
0.00389771
1.17938e-05
-0.00184115
-0.0017333
0.000152731
0.0035621
0.0082225
0.0138769
0.0202777
0.0271614
0.0342036
0.0410355
0.0473451
0.0528557
0.0570723
0.0949948
0.0936707
0.0919443
0.0897276
0.0868981
0.083298
0.0787832
0.0732331
0.0665711
0.0588126
0.0501236
0.0408599
0.0315618
0.0228854
0.0154768
0.00983527
0.00623029
0.00473
0.0052665
0.00763429
0.011554
0.016722
0.0228337
0.0295735
0.0366058
0.0435583
0.0501052
0.0560293
0.0611112
0.0651461
0.0947274
0.0935341
0.0919788
0.0899985
0.087469
0.0842371
0.0801572
0.0751011
0.0689752
0.0617664
0.0536042
0.0448093
0.0359004
0.0275351
0.0203855
0.014993
0.0116652
0.0105031
0.0114352
0.0142333
0.0185866
0.0241519
0.0305739
0.0374838
0.0445105
0.0512925
0.0575856
0.0632331
0.0680801
0.0720982
0.0945634
0.093462
0.0920278
0.0902237
0.0879274
0.0849852
0.081254
0.0766036
0.0709298
0.0641967
0.0565027
0.0481371
0.039596
0.0315339
0.0246424
0.0194977
0.0164403
0.0155973
0.0168895
0.0200648
0.0247771
0.0306409
0.0372562
0.0442215
0.0511622
0.0577602
0.0638407
0.0692604
0.0738995
0.0777931
0.0944909
0.0934554
0.0921074
0.0904352
0.0883203
0.085609
0.0821585
0.0778423
0.0725499
0.0662269
0.0589466
0.0509697
0.0427701
0.0349965
0.0283547
0.0234498
0.0206516
0.0201048
0.021721
0.0252228
0.030227
0.0363075
0.043029
0.0499763
0.0567927
0.0632096
0.069081
0.0742473
0.0786057
0.082159
0.0944966
0.0935103
0.0922257
0.0906545
0.0886806
0.0861513
0.0829288
0.0788898
0.0739186
0.0679481
0.0610307
0.0534021
0.0455152
0.038011
0.0316061
0.026929
0.0243731
0.0241002
0.0260076
0.0297901
0.035028
0.0412592
0.0480238
0.0549065
0.0615757
0.067802
0.0734267
0.0782787
0.0822691
0.0852463
0.0945672
0.0936196
0.0923836
0.0908914
0.089029
0.0866447
0.0836076
0.079798
0.0750971
0.0694285
0.0628275
0.0555081
0.0479038
0.0406474
0.0344637
0.0300004
0.0276674
0.0276466
0.0298153
0.0338374
0.0392596
0.0455894
0.0523522
0.0591405
0.0656426
0.0716466
0.0769715
0.0814572
0.0849638
0.0871593
0.0946906
0.0937751
0.0925784
0.0911501
0.0893784
0.0871119
0.0842254
0.0806051
0.0761312
0.0707203
0.0643936
0.0573463
0.0499942
0.0429621
0.036981
0.0327131
0.03059
0.0307988
0.0331999
0.0374263
0.042992
0.0493799
0.0561079
0.06278
0.0690951
0.0748378
0.079822
0.0839052
0.0868264
0.0882693
0.0948553
0.0939688
0.0928058
0.091431
0.0897348
0.0875667
0.0848042
0.0813404
0.0770564
0.0718643
0.0657735
0.0589629
0.0518331
0.0450008
0.0392022
0.0351134
0.0331846
0.0336017
0.0362097
0.0406104
0.0462869
0.0527017
0.0593696
0.0659044
0.0720108
0.0774708
0.0820571
0.0856319
0.0876873
0.0883002
0.095051
0.0941927
0.0930608
0.0917327
0.0901007
0.0880179
0.0853593
0.0820251
0.0778999
0.0728925
0.0670027
0.0603958
0.0534584
0.0468008
0.0411639
0.0372369
0.0354861
0.0360936
0.0388868
0.0434366
0.0491978
0.055616
0.0622053
0.0685851
0.0744607
0.0795992
0.0837237
0.0866642
0.0877414
0.0872079
0.0952691
0.0944396
0.0933378
0.0920531
0.090478
0.0884622
0.0858983
0.0826743
0.0786825
0.0738303
0.0681099
0.0616753
0.0549014
0.048393
0.0428963
0.0391132
0.037524
0.038306
0.0412674
0.0459466
0.0517727
0.0581769
0.0646728
0.0708835
0.07651
0.0812801
0.0848691
0.0870405
0.0869844
0.0851727
0.0955039
0.0947037
0.0936319
0.0923889
0.0908677
0.0889172
0.0864294
0.0833001
0.0794209
0.0746981
0.0691187
0.062827
0.056188
0.0498028
0.0444244
0.0407674
0.0393238
0.0402664
0.0433823
0.0481772
0.0540551
0.060433
0.0668252
0.0728568
0.0782125
0.0825634
0.085539
0.0868132
0.0855742
0.0823614
0.0957503
0.0949798
0.0939386
0.0927363
0.0912669
0.0893778
0.0869593
0.0839119
0.080128
0.0755126
0.0700485
0.063872
0.0573398
0.0510516
0.0457688
0.0422194
0.0409074
0.0420002
0.0452594
0.0501597
0.0560834
0.0624292
0.068711
0.0745573
0.0796154
0.0834881
0.0857723
0.0860456
0.0836564
0.0792391
0.096002
0.0952628
0.0942525
0.0930909
0.0916728
0.0898436
0.0874914
0.0845165
0.0808141
0.0762874
0.0709158
0.0648283
0.0583754
0.0521576
0.046947
0.0434867
0.0422932
0.0435274
0.0469239
0.0519255
0.057892
0.0642009
0.0703707
0.076033
0.0807598
0.0840927
0.0856225
0.0848579
0.0814204
0.0761417
0.0962562
0.0955478
0.094569
0.0934488
0.0920821
0.0903126
0.0880261
0.0851188
0.0814873
0.077034
0.0717344
0.0657112
0.0593103
0.0531356
0.0479743
0.0445853
0.0434979
0.0448677
0.0484
0.0535032
0.0595151
0.065781
0.0718492
0.0773199
0.0816702
0.0844133
0.0851499
0.0833579
0.0790404
0.0731921
0.0965108
0.0958343
0.0948869
0.0938075
0.0924925
0.090783
0.0885638
0.0857216
0.0821535
0.0777614
0.0725169
0.0665353
0.060159
0.0539982
0.0488594
0.0455213
0.0445285
0.0460315
0.0497019
0.0549121
0.0609787
0.0672142
0.0731966
0.0784596
0.082384
0.0844959
0.0844209
0.0816402
0.076632
0.0705613
0.0967599
0.0961196
0.0952044
0.0941647
0.0929008
0.0912529
0.0890961
0.0863255
0.0828175
0.078476
0.0732712
0.0673112
0.0609356
0.0547623
0.0496248
0.0463162
0.0454052
0.047041
0.0508525
0.0561798
0.062304
0.0685013
0.0744188
0.0794513
0.0829074
0.0843662
0.0834731
0.0797553
0.0742788
0.0682745
0.0969909
0.0964007
0.0955213
0.0945205
0.0933053
0.0917196
0.0896339
0.0869313
0.0834862
0.0791897
0.0740097
0.0680477
0.0616439
0.0554239
0.0502694
0.0469829
0.0461435
0.0479158
0.0518779
0.0573282
0.0635421
0.0697895
0.075611
0.0803432
0.0832909
0.0840813
0.0823711
0.0777837
0.0719243
0.0661764
0.0972032
0.0966687
0.0958307
0.0948754
0.0937079
0.0921823
0.0901697
0.0875273
0.0841417
0.0798881
0.0747276
0.0687477
0.0622895
0.055987
0.0506978
0.0474379
0.0466905
0.0486175
0.0527602
0.0583538
0.0645829
0.070844
0.0766508
0.0810704
0.0834971
0.0836298
0.0811341
0.0757137
0.0694289
0.0642695
0.0973927
0.0969002
0.0961206
0.095223
0.0941091
0.0926512
0.090737
0.0882237
0.0848936
0.0806801
0.075531
0.0695233
0.0629993
0.0566618
0.0513726
0.047893
0.0471842
0.0492542
0.0535956
0.0594332
0.0659013
0.0721964
0.0778244
0.0818308
0.0836559
0.0830165
0.0795869
0.0733806
0.0670739
0.0630959
0.0975957
0.0971103
0.0963808
0.0955078
0.094414
0.0929838
0.0910762
0.0885792
0.0853507
0.0811936
0.0760045
0.0699123
0.0632629
0.0568125
0.0514271
0.0480822
0.0474614
0.0496824
0.0541638
0.0600112
0.0663501
0.0728741
0.078578
0.0822344
0.0836623
0.0830846
0.0783067
0.0708805
0.0644385
0.06154
0.097858
0.0973924
0.096789
0.0960141
0.0950149
0.0937072
0.091956
0.0895963
0.0864774
0.0824149
0.07728
0.0710966
0.0642506
0.0575239
0.0518391
0.0482681
0.047714
0.0502085
0.0551495
0.0614813
0.0682622
0.0747737
0.079922
0.0830271
0.083419
0.080966
0.074991
0.067616
0.0627599
0.0613556
0.0223077
0.0437733
0.056614
0.0589508
0.0633081
0.0631718
0.0639898
0.0662516
0.068887
0.071539
0.073954
0.0760856
0.0778874
0.0794177
0.0806789
0.0817215
0.0825792
0.0832862
0.0838709
0.0843584
0.084779
0.0851351
0.085481
0.0857653
0.0861637
0.0864682
0.0870311
0.087428
0.0885002
0.0874741
0.0203312
0.0423436
0.0572889
0.0605087
0.063198
0.0627055
0.0627084
0.064704
0.0673218
0.0700535
0.0725966
0.0748636
0.0768115
0.0784736
0.0798637
0.0810232
0.0819884
0.0827907
0.0834603
0.0840198
0.0845017
0.0849089
0.0852931
0.0856087
0.0859566
0.0862218
0.0865978
0.0867436
0.0871924
0.0868033
0.0190686
0.0397136
0.0574716
0.0634266
0.0626523
0.0623036
0.0612983
0.0627783
0.0653162
0.0681365
0.0708481
0.0732939
0.0754389
0.07729
0.0788591
0.0801817
0.0812943
0.0822265
0.0830077
0.0836622
0.0842189
0.0846895
0.085108
0.0854661
0.0858015
0.0860721
0.0863803
0.0865992
0.0869138
0.087108
0.0178416
0.0374474
0.0573154
0.0665536
0.0632552
0.0615251
0.059888
0.0607893
0.0632942
0.0663368
0.0693163
0.0719967
0.074365
0.076422
0.0781695
0.0796429
0.0808831
0.0819214
0.082788
0.0835104
0.0841168
0.0846264
0.085066
0.0854481
0.0858002
0.0861164
0.086449
0.086762
0.0871221
0.0874413
0.0157712
0.0349249
0.0566108
0.0689989
0.065349
0.0596553
0.058345
0.0586508
0.060975
0.0643086
0.0676471
0.0706043
0.0732152
0.0754988
0.0774404
0.0790746
0.0804496
0.0816002
0.0825581
0.0833533
0.0840148
0.084566
0.0850319
0.0854313
0.0857886
0.0861129
0.0864291
0.0867348
0.0870522
0.0873691
0.012652
0.0312656
0.0544268
0.0708175
0.0679301
0.0584051
0.0561064
0.0559567
0.0579266
0.0616247
0.0654892
0.0688112
0.0717106
0.0742696
0.0764547
0.0782931
0.0798417
0.0811403
0.0822217
0.0831181
0.0838594
0.0844714
0.0849786
0.0854021
0.0857642
0.0860808
0.0863711
0.0866481
0.0869219
0.0872361
0.00857717
0.0266345
0.0508227
0.0711049
0.0707101
0.0584432
0.052326
0.0525945
0.0540494
0.0580549
0.062703
0.0665603
0.0698273
0.0727261
0.0752156
0.0773093
0.079074
0.0805573
0.0817944
0.0828198
0.0836651
0.0843579
0.0849235
0.0853853
0.0857657
0.086085
0.0863628
0.0866193
0.086859
0.0871429
0.00335581
0.0207891
0.0456092
0.0687889
0.072716
0.0591854
0.0484198
0.0478547
0.0492582
0.053401
0.0591451
0.0637926
0.0675403
0.0708498
0.0737065
0.0761062
0.0781277
0.0798305
0.081254
0.0824358
0.0834104
0.0842069
0.0848517
0.0853695
0.0857836
0.0861162
0.0863878
0.086622
0.0868221
0.0870586
-0.00313064
0.013557
0.0384319
0.0641554
0.0723513
0.0602456
0.0450678
0.0411944
0.0431787
0.0473795
0.0544789
0.0603042
0.0647277
0.0685416
0.0718378
0.0746021
0.0769271
0.0788892
0.0805349
0.0819063
0.0830409
0.0839702
0.0847215
0.0853197
0.0857883
0.0861499
0.0864258
0.0866419
0.0868025
0.0869879
-0.0110583
0.00452019
0.0293512
0.0567072
0.0689558
0.0601847
0.0421686
0.0336675
0.0352777
0.0398095
0.0480832
0.0556966
0.0611728
0.0656593
0.0694954
0.0726966
0.0753792
0.0776446
0.0795518
0.0811492
0.0824791
0.0835755
0.0844668
0.0851779
0.0857316
0.0861494
0.0864517