/*--------------------------------*- C++ -*----------------------------------*\
  =========                 |
  \\      /  F ield         | OpenFOAM: The Open Source CFD Toolbox
   \\    /   O peration     | Website:  https://openfoam.org
    \\  /    A nd           | Version:  11
     \\/     M anipulation  |
\*---------------------------------------------------------------------------*/
FoamFile
{
    format      ascii;
    class       surfaceScalarField;
    location    "7.2";
    object      phi;
}
// * * * * * * * * * * * * * * * * * * * * * * * * * * * * * * * * * * * * * //

dimensions      [0 3 -1 0 0 0 0];

internalField   nonuniform List<scalar> 
24840
(
1.532e-05
1.32974e-08
1.53018e-05
1.81882e-08
1.52852e-05
1.66358e-08
1.52692e-05
1.60618e-08
1.52534e-05
1.57429e-08
1.52383e-05
1.51433e-08
1.5224e-05
1.42273e-08
1.5211e-05
1.29944e-08
1.51995e-05
1.15197e-08
1.51897e-05
9.79069e-09
1.51822e-05
7.55059e-09
1.51773e-05
4.92303e-09
1.51755e-05
1.80265e-09
1.51775e-05
-2.06795e-09
1.51843e-05
-6.81392e-09
1.5197e-05
-1.26881e-08
1.5217e-05
-1.99303e-08
1.52455e-05
-2.85646e-08
1.52852e-05
-3.96302e-08
1.53389e-05
-5.37236e-08
1.54083e-05
-6.942e-08
1.54968e-05
-8.85477e-08
1.56107e-05
-1.13804e-07
1.57558e-05
-1.45188e-07
1.59396e-05
-1.83752e-07
1.61705e-05
-2.30889e-07
1.64596e-05
-2.89095e-07
1.68152e-05
-3.55664e-07
1.72718e-05
-4.56605e-07
-4.70229e-07
1.77421e-05
1.53392e-05
7.42049e-09
1.53433e-05
1.41429e-08
1.53466e-05
1.32918e-08
1.535e-05
1.2701e-08
1.53537e-05
1.2052e-08
1.53579e-05
1.08771e-08
1.5363e-05
9.17506e-09
1.53691e-05
6.86157e-09
1.53765e-05
4.08876e-09
1.53855e-05
8.16919e-10
1.53965e-05
-3.39108e-09
1.54097e-05
-8.28308e-09
1.54256e-05
-1.41561e-08
1.54448e-05
-2.12484e-08
1.54678e-05
-2.98587e-08
1.54954e-05
-4.02807e-08
1.55283e-05
-5.27721e-08
1.55682e-05
-6.84428e-08
1.56158e-05
-8.72434e-08
1.56714e-05
-1.0939e-07
1.57416e-05
-1.39569e-07
1.58322e-05
-1.79188e-07
1.59451e-05
-2.26664e-07
1.60839e-05
-2.84047e-07
1.62548e-05
-3.54601e-07
1.64656e-05
-4.41687e-07
1.67263e-05
-5.49802e-07
1.70489e-05
-6.78305e-07
1.74486e-05
-8.56264e-07
-9.64424e-07
1.79428e-05
1.53361e-05
4.66482e-09
1.53398e-05
1.04423e-08
1.53424e-05
1.06673e-08
1.53454e-05
9.70498e-09
1.53488e-05
8.68388e-09
1.53526e-05
7.03491e-09
1.53572e-05
4.64303e-09
1.53627e-05
1.3068e-09
1.53694e-05
-2.63416e-09
1.53778e-05
-7.50221e-09
1.53879e-05
-1.34937e-08
1.54002e-05
-2.06424e-08
1.54153e-05
-2.92003e-08
1.54335e-05
-3.94827e-08
1.54555e-05
-5.19032e-08
1.54822e-05
-6.69731e-08
1.55147e-05
-8.52508e-08
1.55541e-05
-1.07833e-07
1.56024e-05
-1.35534e-07
1.56622e-05
-1.69209e-07
1.57349e-05
-2.12261e-07
1.5823e-05
-2.67239e-07
1.5931e-05
-3.3471e-07
1.60642e-05
-4.17219e-07
1.62287e-05
-5.19135e-07
1.64323e-05
-6.45251e-07
1.66849e-05
-8.02409e-07
1.6998e-05
-9.91441e-07
1.73879e-05
-1.24611e-06
-1.45625e-06
1.78797e-05
1.5335e-05
2.98767e-09
1.53381e-05
7.36824e-09
1.53407e-05
8.1024e-09
1.53433e-05
7.03165e-09
1.53465e-05
5.52049e-09
1.53502e-05
3.29684e-09
1.53546e-05
2.59798e-10
1.53599e-05
-4.03266e-09
1.53665e-05
-9.18538e-09
1.53745e-05
-1.55329e-08
1.53843e-05
-2.32781e-08
1.53963e-05
-3.25897e-08
1.54108e-05
-4.37319e-08
1.54284e-05
-5.70986e-08
1.54497e-05
-7.32198e-08
1.54755e-05
-9.27789e-08
1.55069e-05
-1.16604e-07
1.5545e-05
-1.45917e-07
1.55914e-05
-1.82007e-07
1.56486e-05
-2.2636e-07
1.57184e-05
-2.82044e-07
1.58033e-05
-3.52124e-07
1.59072e-05
-4.3869e-07
1.60353e-05
-5.45238e-07
1.61933e-05
-6.77218e-07
1.6389e-05
-8.40921e-07
1.66319e-05
-1.04526e-06
1.69342e-05
-1.29375e-06
1.73096e-05
-1.62153e-06
-1.9359e-06
1.77892e-05
1.53344e-05
1.92456e-09
1.53367e-05
5.02384e-09
1.53391e-05
5.73172e-09
1.53416e-05
4.57124e-09
1.53445e-05
2.56469e-09
1.53481e-05
-2.70027e-10
1.53524e-05
-4.05128e-09
1.53575e-05
-9.16937e-09
1.53638e-05
-1.54849e-08
1.53715e-05
-2.32311e-08
1.53809e-05
-3.26693e-08
1.53924e-05
-4.40355e-08
1.54063e-05
-5.76371e-08
1.54231e-05
-7.39387e-08
1.54435e-05
-9.3581e-08
1.54681e-05
-1.17408e-07
1.5498e-05
-1.46478e-07
1.55343e-05
-1.82196e-07
1.55785e-05
-2.26221e-07
1.56327e-05
-2.80535e-07
1.56988e-05
-3.48182e-07
1.57793e-05
-4.32643e-07
1.58779e-05
-5.37238e-07
1.59991e-05
-6.66491e-07
1.61488e-05
-8.26879e-07
1.6334e-05
-1.02618e-06
1.6564e-05
-1.27522e-06
1.6851e-05
-1.58076e-06
1.72074e-05
-1.97794e-06
-2.39403e-06
1.76656e-05
1.53341e-05
1.19454e-09
1.53359e-05
3.1911e-09
1.53381e-05
3.55939e-09
1.53404e-05
2.21223e-09
1.53432e-05
-2.24716e-10
1.53466e-05
-3.6287e-09
1.53507e-05
-8.14153e-09
1.53556e-05
-1.40718e-08
1.53616e-05
-2.14701e-08
1.53689e-05
-3.05393e-08
1.53778e-05
-4.15719e-08
1.53886e-05
-5.48603e-08
1.54017e-05
-7.07664e-08
1.54176e-05
-8.98201e-08
1.54368e-05
-1.12764e-07
1.546e-05
-1.40589e-07
1.5488e-05
-1.74554e-07
1.55221e-05
-2.16263e-07
1.55636e-05
-2.67671e-07
1.56142e-05
-3.31144e-07
1.56759e-05
-4.09897e-07
1.57511e-05
-5.0782e-07
1.5843e-05
-6.29184e-07
1.5956e-05
-7.79477e-07
1.60953e-05
-9.6619e-07
1.62677e-05
-1.19855e-06
1.64816e-05
-1.48918e-06
1.67491e-05
-1.84824e-06
1.70816e-05
-2.31046e-06
-2.82452e-06
1.75121e-05
1.53339e-05
6.50339e-10
1.53354e-05
1.71916e-09
1.53373e-05
1.62391e-09
1.53395e-05
1.98978e-11
1.53421e-05
-2.8245e-09
1.53452e-05
-6.7822e-09
1.53491e-05
-1.19829e-08
1.53537e-05
-1.8696e-08
1.53593e-05
-2.7087e-08
1.53662e-05
-3.73823e-08
1.53745e-05
-4.98952e-08
1.53846e-05
-6.49628e-08
1.53968e-05
-8.29977e-08
1.54116e-05
-1.0459e-07
1.54294e-05
-1.30577e-07
1.54509e-05
-1.62082e-07
1.54769e-05
-2.00537e-07
1.55084e-05
-2.47741e-07
1.55466e-05
-3.05892e-07
1.55931e-05
-3.77677e-07
1.56498e-05
-4.66553e-07
1.57187e-05
-5.7679e-07
1.5803e-05
-7.13412e-07
1.59063e-05
-8.82779e-07
1.60334e-05
-1.09335e-06
1.61906e-05
-1.3557e-06
1.63855e-05
-1.68413e-06
1.66295e-05
-2.09223e-06
1.69332e-05
-2.61416e-06
-3.22099e-06
1.73297e-05
1.53338e-05
2.18885e-10
1.5335e-05
5.08815e-10
1.53367e-05
-8.35262e-11
1.53387e-05
-2.0087e-09
1.53411e-05
-5.24198e-09
1.53441e-05
-9.71616e-09
1.53476e-05
-1.55508e-08
1.53519e-05
-2.29998e-08
1.53571e-05
-3.22973e-08
1.53635e-05
-4.37092e-08
1.53711e-05
-5.75697e-08
1.53804e-05
-7.42525e-08
1.53917e-05
-9.42151e-08
1.54052e-05
-1.18105e-07
1.54214e-05
-1.46841e-07
1.5441e-05
-1.81664e-07
1.54646e-05
-2.24157e-07
1.54932e-05
-2.7629e-07
1.55278e-05
-3.40473e-07
1.55697e-05
-4.19654e-07
1.56207e-05
-5.17542e-07
1.56827e-05
-6.3875e-07
1.57582e-05
-7.88904e-07
1.58505e-05
-9.75115e-07
1.59639e-05
-1.20671e-06
1.61037e-05
-1.49549e-06
1.62768e-05
-1.85729e-06
1.64935e-05
-2.30893e-06
1.67635e-05
-2.8841e-06
-3.57664e-06
1.71191e-05
1.53337e-05
-1.40122e-10
1.53347e-05
-5.09918e-10
1.53362e-05
-1.58828e-09
1.53381e-05
-3.86256e-09
1.53403e-05
-7.46538e-09
1.5343e-05
-1.24123e-08
1.53463e-05
-1.88253e-08
1.53502e-05
-2.69491e-08
1.5355e-05
-3.70606e-08
1.53607e-05
-4.94668e-08
1.53677e-05
-6.45258e-08
1.53761e-05
-8.26409e-08
1.53862e-05
-1.04309e-07
1.53983e-05
-1.30228e-07
1.54128e-05
-1.61389e-07
1.54303e-05
-1.99133e-07
1.54513e-05
-2.45169e-07
1.54767e-05
-3.01615e-07
1.55072e-05
-3.71055e-07
1.55442e-05
-4.56649e-07
1.5589e-05
-5.62332e-07
1.56433e-05
-6.93012e-07
1.57092e-05
-8.54785e-07
1.57894e-05
-1.05537e-06
1.58876e-05
-1.30485e-06
1.60081e-05
-1.61603e-06
1.61569e-05
-2.0061e-06
1.63428e-05
-2.49487e-06
1.65743e-05
-3.11551e-06
-3.88439e-06
1.6882e-05
1.53336e-05
-4.48586e-10
1.53345e-05
-1.37762e-09
1.53358e-05
-2.91044e-09
1.53375e-05
-5.53899e-09
1.53395e-05
-9.49595e-09
1.5342e-05
-1.48709e-08
1.5345e-05
-2.17976e-08
1.53485e-05
-3.05183e-08
1.53528e-05
-4.13404e-08
1.5358e-05
-5.46079e-08
1.53641e-05
-7.07033e-08
1.53716e-05
-9.00537e-08
1.53804e-05
-1.13188e-07
1.53911e-05
-1.40848e-07
1.54037e-05
-1.74084e-07
1.54189e-05
-2.14319e-07
1.54371e-05
-2.63366e-07
1.5459e-05
-3.23462e-07
1.54853e-05
-3.9733e-07
1.55169e-05
-4.88293e-07
1.5555e-05
-6.00468e-07
1.5601e-05
-7.38995e-07
1.56565e-05
-9.10318e-07
1.57238e-05
-1.12262e-06
1.58055e-05
-1.38653e-06
1.59052e-05
-1.7157e-06
1.60274e-05
-2.12837e-06
1.61794e-05
-2.6469e-06
1.63679e-05
-3.30394e-06
-4.1372e-06
1.66207e-05
1.53336e-05
-7.12103e-10
1.53343e-05
-2.12548e-09
1.53355e-05
-4.07546e-09
1.5337e-05
-7.04884e-09
1.53389e-05
-1.13361e-08
1.53411e-05
-1.70857e-08
1.53437e-05
-2.44523e-08
1.53469e-05
-3.36827e-08
1.53507e-05
-4.5105e-08
1.53551e-05
-5.9093e-08
1.53605e-05
-7.60509e-08
1.53669e-05
-9.64259e-08
1.53745e-05
-1.20773e-07
1.53835e-05
-1.49866e-07
1.53942e-05
-1.84806e-07
1.5407e-05
-2.27078e-07
1.54222e-05
-2.78574e-07
1.54403e-05
-3.41623e-07
1.5462e-05
-4.19047e-07
1.5488e-05
-5.14285e-07
1.55191e-05
-6.31584e-07
1.55564e-05
-7.76241e-07
1.5601e-05
-9.54926e-07
1.56545e-05
-1.17611e-06
1.57188e-05
-1.45083e-06
1.57963e-05
-1.79324e-06
1.58903e-05
-2.22231e-06
1.60058e-05
-2.76244e-06
1.61474e-05
-3.4455e-06
-4.32845e-06
1.63386e-05
1.53336e-05
-9.36812e-10
1.53342e-05
-2.77925e-09
1.53352e-05
-5.10639e-09
1.53366e-05
-8.39896e-09
1.53382e-05
-1.29826e-08
1.53402e-05
-1.90506e-08
1.53425e-05
-2.67803e-08
1.53453e-05
-3.64258e-08
1.53485e-05
-4.833e-08
1.53523e-05
-6.28893e-08
1.53568e-05
-8.05269e-08
1.53621e-05
-1.01705e-07
1.53683e-05
-1.26998e-07
1.53756e-05
-1.57205e-07
1.53843e-05
-1.93461e-07
1.53945e-05
-2.37296e-07
1.54066e-05
-2.90658e-07
1.54209e-05
-3.55934e-07
1.54379e-05
-4.36012e-07
1.5458e-05
-5.34398e-07
1.54818e-05
-6.55408e-07
1.551e-05
-8.04418e-07
1.55432e-05
-9.882e-07
1.55825e-05
-1.21536e-06
1.56287e-05
-1.49707e-06
1.56832e-05
-1.84775e-06
1.57476e-05
-2.28666e-06
1.58247e-05
-2.83952e-06
1.59163e-05
-3.53712e-06
-4.45244e-06
1.60403e-05
1.53335e-05
-1.13184e-09
1.53341e-05
-3.35478e-09
1.5335e-05
-6.01855e-09
1.53362e-05
-9.59741e-09
1.53377e-05
-1.44372e-08
1.53394e-05
-2.07637e-08
1.53414e-05
-2.87752e-08
1.53437e-05
-3.87351e-08
1.53464e-05
-5.09967e-08
1.53494e-05
-6.59725e-08
1.5353e-05
-8.40999e-08
1.53572e-05
-1.05853e-07
1.5362e-05
-1.31816e-07
1.53676e-05
-1.62805e-07
1.53741e-05
-1.99977e-07
1.53817e-05
-2.44889e-07
1.53905e-05
-2.99518e-07
1.54009e-05
-3.66283e-07
1.5413e-05
-4.48096e-07
1.54271e-05
-5.48483e-07
1.54434e-05
-6.71769e-07
1.54623e-05
-8.23324e-07
1.5484e-05
-1.0099e-06
1.55088e-05
-1.24008e-06
1.55366e-05
-1.52493e-06
1.55677e-05
-1.87879e-06
1.56018e-05
-2.32076e-06
1.56393e-05
-2.87704e-06
1.5679e-05
-3.57683e-06
-4.50493e-06
1.57315e-05
1.53335e-05
-1.30351e-09
1.5334e-05
-3.86388e-09
1.53348e-05
-6.82643e-09
1.53359e-05
-1.06543e-08
1.53371e-05
-1.5704e-08
1.53386e-05
-2.22248e-08
1.53403e-05
-3.0434e-08
1.53421e-05
-4.06035e-08
1.53442e-05
-5.30934e-08
1.53466e-05
-6.83261e-08
1.53492e-05
-8.67485e-08
1.53522e-05
-1.08841e-07
1.53556e-05
-1.35193e-07
1.53594e-05
-1.66628e-07
1.53638e-05
-2.0431e-07
1.53687e-05
-2.49804e-07
1.53742e-05
-3.05095e-07
1.53806e-05
-3.72601e-07
1.53877e-05
-4.55225e-07
1.53957e-05
-5.56465e-07
1.54045e-05
-6.80593e-07
1.54141e-05
-8.32893e-07
1.54242e-05
-1.01998e-06
1.54343e-05
-1.25023e-06
1.54438e-05
-1.5344e-06
1.54514e-05
-1.88639e-06
1.54552e-05
-2.32459e-06
1.5453e-05
-2.87483e-06
1.54402e-05
-3.56402e-06
-4.48373e-06
1.5419e-05
1.53335e-05
-1.45627e-09
1.53339e-05
-4.31758e-09
1.53347e-05
-7.54353e-09
1.53356e-05
-1.15805e-08
1.53367e-05
-1.67893e-08
1.53379e-05
-2.34371e-08
1.53392e-05
-3.17574e-08
1.53406e-05
-4.20288e-08
1.53422e-05
-5.46146e-08
1.53438e-05
-6.99416e-08
1.53455e-05
-8.84614e-08
1.53473e-05
-1.10655e-07
1.53492e-05
-1.37113e-07
1.53512e-05
-1.68653e-07
1.53534e-05
-2.06436e-07
1.53556e-05
-2.52018e-07
1.53579e-05
-3.07367e-07
1.53601e-05
-3.74872e-07
1.53623e-05
-4.5739e-07
1.53642e-05
-5.58347e-07
1.53655e-05
-6.81906e-07
1.53658e-05
-8.33184e-07
1.53643e-05
-1.01856e-06
1.53601e-05
-1.24602e-06
1.53516e-05
-1.52581e-06
1.53362e-05
-1.87102e-06
1.53105e-05
-2.29886e-06
1.52694e-05
-2.83378e-06
1.5205e-05
-3.49966e-06
-4.38924e-06
1.51105e-05
1.53335e-05
-1.59392e-09
1.53339e-05
-4.72654e-09
1.53345e-05
-8.18328e-09
1.53353e-05
-1.23879e-08
1.53362e-05
-1.77014e-08
1.53372e-05
-2.44063e-08
1.53382e-05
-3.27496e-08
1.53392e-05
-4.30137e-08
1.53401e-05
-5.55612e-08
1.5341e-05
-7.08187e-08
1.53418e-05
-8.92375e-08
1.53424e-05
-1.11295e-07
1.53429e-05
-1.37574e-07
1.53431e-05
-1.68882e-07
1.5343e-05
-2.0636e-07
1.53426e-05
-2.51539e-07
1.53415e-05
-3.06348e-07
1.53398e-05
-3.73121e-07
1.5337e-05
-4.54636e-07
1.53329e-05
-5.54206e-07
1.53268e-05
-6.75829e-07
1.5318e-05
-8.24387e-07
1.53054e-05
-1.00591e-06
1.52872e-05
-1.22789e-06
1.52612e-05
-1.49981e-06
1.52239e-05
-1.83366e-06
1.517e-05
-2.24495e-06
1.5092e-05
-2.75585e-06
1.49788e-05
-3.38642e-06
-4.22473e-06
1.48143e-05
1.53335e-05
-1.72035e-09
1.53338e-05
-5.10186e-09
1.53344e-05
-8.76004e-09
1.53351e-05
-1.30898e-08
1.53359e-05
-1.84507e-08
1.53366e-05
-2.51409e-08
1.53373e-05
-3.34182e-08
1.53378e-05
-4.35654e-08
1.53382e-05
-5.59403e-08
1.53383e-05
-7.0965e-08
1.53382e-05
-8.90858e-08
1.53377e-05
-1.10772e-07
1.53367e-05
-1.36591e-07
1.53351e-05
-1.67333e-07
1.53329e-05
-2.04107e-07
1.53298e-05
-2.48403e-07
1.53255e-05
-3.0209e-07
1.53198e-05
-3.67422e-07
1.53122e-05
-4.47067e-07
1.53022e-05
-5.44188e-07
1.5289e-05
-6.62571e-07
1.52714e-05
-8.06803e-07
1.52479e-05
-9.82482e-07
1.52165e-05
-1.19648e-06
1.51741e-05
-1.45734e-06
1.51161e-05
-1.77569e-06
1.50361e-05
-2.16491e-06
1.49243e-05
-2.64407e-06
1.47665e-05
-3.22869e-06
-3.99661e-06
1.45384e-05
1.53335e-05
-1.83996e-09
1.53338e-05
-5.45606e-09
1.53343e-05
-9.28992e-09
1.53349e-05
-1.3701e-08
1.53355e-05
-1.90495e-08
1.53361e-05
-2.56519e-08
1.53364e-05
-3.37746e-08
1.53365e-05
-4.36959e-08
1.53364e-05
-5.57649e-08
1.53358e-05
-7.03957e-08
1.53347e-05
-8.80252e-08
1.53331e-05
-1.09109e-07
1.53307e-05
-1.34195e-07
1.53274e-05
-1.64044e-07
1.5323e-05
-1.99728e-07
1.53173e-05
-2.42676e-07
1.53099e-05
-2.9468e-07
1.53003e-05
-3.5789e-07
1.52881e-05
-4.34838e-07
1.52724e-05
-5.28504e-07
1.52523e-05
-6.42425e-07
1.52263e-05
-7.80839e-07
1.51927e-05
-9.4885e-07
1.51488e-05
-1.15261e-06
1.50911e-05
-1.3996e-06
1.50143e-05
-1.69889e-06
1.49108e-05
-2.0614e-06
1.47691e-05
-2.5024e-06
1.45728e-05
-3.03239e-06
-3.71417e-06
1.42904e-05
1.53335e-05
-1.95817e-09
1.53338e-05
-5.80432e-09
1.53343e-05
-9.79172e-09
1.53348e-05
-1.42379e-08
1.53353e-05
-1.95114e-08
1.53356e-05
-2.59528e-08
1.53357e-05
-3.38335e-08
1.53354e-05
-4.34216e-08
1.53347e-05
-5.5054e-08
1.53334e-05
-6.91338e-08
1.53315e-05
-8.6084e-08
1.53287e-05
-1.06341e-07
1.53249e-05
-1.30429e-07
1.532e-05
-1.59074e-07
1.53135e-05
-1.93295e-07
1.53053e-05
-2.3445e-07
1.52949e-05
-2.84236e-07
1.52817e-05
-3.44679e-07
1.5265e-05
-4.18151e-07
1.52439e-05
-5.07423e-07
1.52172e-05
-6.15752e-07
1.51834e-05
-7.46992e-07
1.51402e-05
-9.05703e-07
1.50849e-05
-1.09727e-06
1.50133e-05
-1.32801e-06
1.49197e-05
-1.60532e-06
1.47958e-05
-1.93749e-06
1.4629e-05
-2.33557e-06
1.44013e-05
-2.80473e-06
-3.3892e-06
1.40763e-05
1.53335e-05
-2.08219e-09
1.53338e-05
-6.16601e-09
1.53343e-05
-1.02878e-08
1.53348e-05
-1.47184e-08
1.53351e-05
-1.98516e-08
1.53352e-05
-2.60598e-08
1.5335e-05
-3.36131e-08
1.53344e-05
-4.2763e-08
1.53331e-05
-5.38318e-08
1.53312e-05
-6.72091e-08
1.53284e-05
-8.33e-08
1.53246e-05
-1.02516e-07
1.53195e-05
-1.25353e-07
1.5313e-05
-1.52494e-07
1.53046e-05
-1.849e-07
1.5294e-05
-2.23842e-07
1.52806e-05
-2.70906e-07
1.52639e-05
-3.27978e-07
1.5243e-05
-3.97251e-07
1.52169e-05
-4.81266e-07
1.51841e-05
-5.82978e-07
1.51429e-05
-7.05831e-07
1.5091e-05
-8.53821e-07
1.50253e-05
-1.03153e-06
1.49414e-05
-1.24412e-06
1.48333e-05
-1.49725e-06
1.46924e-05
-1.79656e-06
1.45056e-05
-2.14875e-06
1.42546e-05
-2.55373e-06
-3.03516e-06
1.39006e-05
1.53335e-05
-2.22215e-09
1.53339e-05
-6.56708e-09
1.53344e-05
-1.08049e-08
1.53348e-05
-1.51618e-08
1.53351e-05
-2.00867e-08
1.5335e-05
-2.59907e-08
1.53345e-05
-3.3132e-08
1.53335e-05
-4.17424e-08
1.53318e-05
-5.21277e-08
1.53292e-05
-6.46611e-08
1.53257e-05
-7.97227e-08
1.53209e-05
-9.76943e-08
1.53145e-05
-1.19038e-07
1.53064e-05
-1.44395e-07
1.52962e-05
-1.74654e-07
1.52833e-05
-2.10991e-07
1.52673e-05
-2.54866e-07
1.52473e-05
-3.0801e-07
1.52225e-05
-3.72421e-07
1.51916e-05
-4.50396e-07
1.51532e-05
-5.44574e-07
1.51054e-05
-6.57981e-07
1.50456e-05
-7.94045e-07
1.49706e-05
-9.56563e-07
1.48761e-05
-1.14955e-06
1.47558e-05
-1.37701e-06
1.46014e-05
-1.6421e-06
1.43999e-05
-1.94728e-06
1.41339e-05
-2.28772e-06
-2.66623e-06
1.37649e-05
1.53335e-05
-2.3933e-09
1.5334e-05
-7.04373e-09
1.53346e-05
-1.1375e-08
1.5335e-05
-1.55868e-08
1.53351e-05
-2.02274e-08
1.53349e-05
-2.57644e-08
1.53342e-05
-3.2424e-08
1.53328e-05
-4.03943e-08
1.53307e-05
-4.99764e-08
1.53276e-05
-6.15296e-08
1.53232e-05
-7.54014e-08
1.53175e-05
-9.1938e-08
1.531e-05
-1.11567e-07
1.53005e-05
-1.3488e-07
1.52885e-05
-1.62688e-07
1.52736e-05
-1.96058e-07
1.5255e-05
-2.36317e-07
1.52321e-05
-2.85026e-07
1.52036e-05
-3.43977e-07
1.51684e-05
-4.15212e-07
1.51249e-05
-5.01052e-07
1.5071e-05
-6.04106e-07
1.50042e-05
-7.27251e-07
1.49212e-05
-8.73535e-07
1.48176e-05
-1.04592e-06
1.46875e-05
-1.24691e-06
1.45229e-05
-1.47749e-06
1.43119e-05
-1.73633e-06
1.40389e-05
-2.0147e-06
-2.29611e-06
1.36688e-05
1.53336e-05
-2.61953e-09
1.53342e-05
-7.64901e-09
1.53348e-05
-1.20344e-08
1.53352e-05
-1.60085e-08
1.53353e-05
-2.03034e-08
1.5335e-05
-2.54124e-08
1.53341e-05
-3.15026e-08
1.53324e-05
-3.87402e-08
1.53298e-05
-4.74156e-08
1.53262e-05
-5.7865e-08
1.53212e-05
-7.03995e-08
1.53146e-05
-8.5326e-08
1.5306e-05
-1.03037e-07
1.52952e-05
-1.2407e-07
1.52817e-05
-1.49147e-07
1.52648e-05
-1.79224e-07
1.5244e-05
-2.1548e-07
1.52183e-05
-2.59299e-07
1.51866e-05
-3.12258e-07
1.51475e-05
-3.76142e-07
1.50994e-05
-4.52951e-07
1.50402e-05
-5.44892e-07
1.49673e-05
-6.54326e-07
1.48773e-05
-7.83618e-07
1.47662e-05
-9.34807e-07
1.46284e-05
-1.10913e-06
1.44568e-05
-1.30584e-06
1.4241e-05
-1.52055e-06
1.39681e-05
-1.74179e-06
-1.93695e-06
1.36089e-05
1.53337e-05
-2.94016e-09
1.53345e-05
-8.45931e-09
1.53353e-05
-1.28218e-08
1.53357e-05
-1.64428e-08
1.53357e-05
-2.03317e-08
1.53353e-05
-2.49566e-08
1.53342e-05
-3.03986e-08
1.53322e-05
-3.68134e-08
1.53293e-05
-4.44848e-08
1.53252e-05
-5.37186e-08
1.53195e-05
-6.47829e-08
1.53122e-05
-7.79399e-08
1.53027e-05
-9.35503e-08
1.52907e-05
-1.12091e-07
1.52757e-05
-1.34192e-07
1.52572e-05
-1.60685e-07
1.52343e-05
-1.92597e-07
1.52061e-05
-2.31126e-07
1.51715e-05
-2.77631e-07
1.5129e-05
-3.33636e-07
1.50769e-05
-4.00829e-07
1.5013e-05
-4.81037e-07
1.49348e-05
-5.76148e-07
1.48392e-05
-6.87932e-07
1.4722e-05
-8.17667e-07
1.45785e-05
-9.65584e-07
1.44024e-05
-1.12979e-06
1.41856e-05
-1.30374e-06
1.39185e-05
-1.47468e-06
-1.59826e-06
1.35798e-05
1.53338e-05
-3.42779e-09
1.53349e-05
-9.58137e-09
1.53359e-05
-1.37619e-08
1.53363e-05
-1.69024e-08
1.53364e-05
-2.03463e-08
1.53358e-05
-2.44289e-08
1.53346e-05
-2.91426e-08
1.53324e-05
-3.46539e-08
1.53292e-05
-4.12343e-08
1.53246e-05
-4.91537e-08
1.53184e-05
-5.86307e-08
1.53104e-05
-6.98748e-08
1.53001e-05
-8.32219e-08
1.52871e-05
-9.90852e-08
1.52709e-05
-1.17992e-07
1.52508e-05
-1.40649e-07
1.52261e-05
-1.67923e-07
1.51958e-05
-2.00818e-07
1.51587e-05
-2.40472e-07
1.51132e-05
-2.88152e-07
1.50576e-05
-3.45245e-07
1.49898e-05
-4.13223e-07
1.49072e-05
-4.93556e-07
1.48068e-05
-5.87513e-07
1.46849e-05
-6.95774e-07
1.45372e-05
-8.17865e-07
1.43588e-05
-9.51415e-07
1.41438e-05
-1.08871e-06
1.38865e-05
-1.2174e-06
-1.28682e-06
1.3575e-05
1.53341e-05
-4.22857e-09
1.53357e-05
-1.11707e-08
1.53368e-05
-1.4837e-08
1.53373e-05
-1.73877e-08
1.53373e-05
-2.03712e-08
1.53367e-05
-2.38423e-08
1.53353e-05
-2.77505e-08
1.5333e-05
-3.22938e-08
1.53294e-05
-3.77114e-08
1.53245e-05
-4.42314e-08
1.53179e-05
-5.20179e-08
1.53093e-05
-6.1225e-08
1.52982e-05
-7.21768e-08
1.52843e-05
-8.5205e-08
1.52671e-05
-1.00735e-07
1.52458e-05
-1.19344e-07
1.52196e-05
-1.41732e-07
1.51875e-05
-1.68707e-07
1.51482e-05
-2.01184e-07
1.51002e-05
-2.40175e-07
1.50417e-05
-2.86781e-07
1.49707e-05
-3.42148e-07
1.48845e-05
-4.07391e-07
1.47804e-05
-4.83373e-07
1.46549e-05
-5.70325e-07
1.45044e-05
-6.67355e-07
1.43254e-05
-7.72429e-07
1.41143e-05
-8.7763e-07
1.38702e-05
-9.7328e-07
-1.00591e-06
1.35893e-05
1.53347e-05
-5.61201e-09
1.5337e-05
-1.34587e-08
1.53382e-05
-1.6037e-08
1.53388e-05
-1.79597e-08
1.53389e-05
-2.04488e-08
1.53382e-05
-2.32114e-08
1.53367e-05
-2.62481e-08
1.53342e-05
-2.97719e-08
1.53305e-05
-3.39684e-08
1.53253e-05
-3.90334e-08
1.53183e-05
-4.50407e-08
1.53091e-05
-5.20887e-08
1.52975e-05
-6.05424e-08
1.52829e-05
-7.0611e-08
1.52648e-05
-8.26224e-08
1.52425e-05
-9.7021e-08
1.52151e-05
-1.14335e-07
1.51816e-05
-1.35176e-07
1.51406e-05
-1.60233e-07
1.50907e-05
-1.90275e-07
1.50301e-05
-2.26131e-07
1.49566e-05
-2.68657e-07
1.48679e-05
-3.18685e-07
1.47613e-05
-3.76799e-07
1.46339e-05
-4.42964e-07
1.44828e-05
-5.16214e-07
1.4306e-05
-5.9561e-07
1.41018e-05
-6.73498e-07
1.38746e-05
-7.46046e-07
-7.55088e-07
1.36238e-05
1.53357e-05
-7.99552e-09
1.53387e-05
-1.64205e-08
1.53399e-05
-1.72765e-08
1.53407e-05
-1.87689e-08
1.53409e-05
-2.06265e-08
1.53403e-05
-2.25567e-08
1.53387e-05
-2.46765e-08
1.5336e-05
-2.71398e-08
1.53321e-05
-3.00385e-08
1.53267e-05
-3.36098e-08
1.53195e-05
-3.78109e-08
1.531e-05
-4.25977e-08
1.52979e-05
-4.8473e-08
1.52828e-05
-5.54811e-08
1.5264e-05
-6.38709e-08
1.5241e-05
-7.39465e-08
1.52127e-05
-8.60615e-08
1.51781e-05
-1.00633e-07
1.5136e-05
-1.18142e-07
1.50849e-05
-1.3913e-07
1.5023e-05
-1.64194e-07
1.49483e-05
-1.93963e-07
1.48586e-05
-2.29058e-07
1.47518e-05
-2.69932e-07
1.46254e-05
-3.16541e-07
1.44774e-05
-3.68301e-07
1.43068e-05
-4.25005e-07
1.41121e-05
-4.78729e-07
1.38981e-05
-5.32084e-07
-5.18369e-07
1.36614e-05
1.53391e-05
-1.37995e-08
1.53423e-05
-1.95586e-08
1.53435e-05
-1.85113e-08
1.53438e-05
-1.90994e-08
1.53434e-05
-2.01627e-08
1.5342e-05
-2.11798e-08
1.53396e-05
-2.22672e-08
1.5336e-05
-2.35431e-08
1.5331e-05
-2.50494e-08
1.53244e-05
-2.69521e-08
1.53157e-05
-2.91756e-08
1.53048e-05
-3.16556e-08
1.52911e-05
-3.47944e-08
1.52742e-05
-3.855e-08
1.52534e-05
-4.3072e-08
1.5228e-05
-4.85414e-08
1.51971e-05
-5.51655e-08
1.51596e-05
-6.31924e-08
1.51144e-05
-7.29108e-08
1.50599e-05
-8.46501e-08
1.49945e-05
-9.87777e-08
1.49162e-05
-1.15686e-07
1.48229e-05
-1.35753e-07
1.47122e-05
-1.59266e-07
1.45819e-05
-1.86242e-07
1.44297e-05
-2.16004e-07
1.42516e-05
-2.46905e-07
1.40454e-05
-2.72582e-07
1.38072e-05
-2.9383e-07
-2.21965e-07
1.35107e-05
1.53195e-05
1.53e-05
1.52815e-05
1.52624e-05
1.52422e-05
1.5221e-05
1.51988e-05
1.51752e-05
1.51502e-05
1.51232e-05
1.5094e-05
1.50624e-05
1.50276e-05
1.4989e-05
1.4946e-05
1.48974e-05
1.48423e-05
1.47791e-05
1.47062e-05
1.46215e-05
1.45227e-05
1.4407e-05
1.42713e-05
1.4112e-05
1.39258e-05
1.37098e-05
1.34629e-05
1.31903e-05
1.28965e-05
1.26745e-05
1.749e-05
-8.14392e-06
8.39603e-06
1.72486e-05
-8.28937e-06
8.53074e-06
1.69771e-05
-8.43302e-06
8.70454e-06
1.66727e-05
-8.56833e-06
8.87271e-06
1.63417e-05
-8.7036e-06
9.03458e-06
1.59897e-05
-8.84325e-06
9.19523e-06
1.56201e-05
-8.98867e-06
9.35828e-06
1.5235e-05
-9.1407e-06
9.52584e-06
1.48354e-05
-9.3001e-06
9.69965e-06
1.44216e-05
-9.46732e-06
9.8811e-06
1.3993e-05
-9.64251e-06
1.00711e-05
1.35487e-05
-9.82583e-06
1.02702e-05
1.30874e-05
-1.00177e-05
1.04789e-05
1.26082e-05
-1.02188e-05
1.06979e-05
1.21101e-05
-1.04301e-05
1.09283e-05
1.1592e-05
-1.06532e-05
1.11713e-05
1.10525e-05
-1.08896e-05
1.14291e-05
1.04902e-05
-1.11415e-05
1.17038e-05
9.90302e-06
-1.14113e-05
1.19984e-05
9.28848e-06
-1.17022e-05
1.23167e-05
8.64341e-06
-1.20181e-05
1.26632e-05
7.96367e-06
-1.23643e-05
1.3044e-05
7.24386e-06
-1.2747e-05
1.34668e-05
6.47693e-06
-1.31746e-05
1.39415e-05
5.65245e-06
-1.36576e-05
1.44821e-05
4.75714e-06
-1.42099e-05
1.51053e-05
3.78607e-06
-1.48469e-05
1.5818e-05
2.63415e-06
-1.56261e-05
1.6778e-05
1.49551e-06
-1.63743e-05
1.75129e-05
-1.78354e-05
1.9331e-05
1.76684e-05
-7.8695e-06
1.73588e-05
-7.97976e-06
1.70229e-05
-8.09717e-06
1.66707e-05
-8.21617e-06
1.63066e-05
-8.33949e-06
1.59325e-05
-8.46908e-06
1.55488e-05
-8.60498e-06
1.51551e-05
-8.74698e-06
1.47501e-05
-8.89516e-06
1.43324e-05
-9.04965e-06
1.39006e-05
-9.21068e-06
1.34534e-05
-9.37863e-06
1.29899e-05
-9.55414e-06
1.25092e-05
-9.73806e-06
1.20104e-05
-9.93138e-06
1.14926e-05
-1.01353e-05
1.09542e-05
-1.03513e-05
1.03937e-05
-1.0581e-05
9.80903e-06
-1.08266e-05
9.19756e-06
-1.10907e-05
8.55605e-06
-1.13766e-05
7.88031e-06
-1.16885e-05
7.16492e-06
-1.20316e-05
6.40272e-06
-1.24124e-05
5.5841e-06
-1.2839e-05
4.69675e-06
-1.33226e-05
3.7242e-06
-1.38744e-05
2.62351e-06
-1.45254e-05
1.44901e-06
-1.51998e-05
-1.63864e-05
1.75619e-05
-7.5517e-06
1.72298e-05
-7.64766e-06
1.6885e-05
-7.75241e-06
1.6532e-05
-7.86314e-06
1.61714e-05
-7.97885e-06
1.58017e-05
-8.09943e-06
1.54216e-05
-8.22484e-06
1.50297e-05
-8.35513e-06
1.46251e-05
-8.49054e-06
1.42069e-05
-8.63141e-06
1.37744e-05
-8.77817e-06
1.3327e-05
-8.9313e-06
1.28643e-05
-9.09139e-06
1.23853e-05
-9.25911e-06
1.18892e-05
-9.43526e-06
1.13747e-05
-9.62079e-06
1.08403e-05
-9.81688e-06
1.02843e-05
-1.0025e-05
9.70447e-06
-1.02468e-05
9.09821e-06
-1.04844e-05
8.46218e-06
-1.07406e-05
7.79211e-06
-1.10185e-05
7.08255e-06
-1.1322e-05
6.3264e-06
-1.16562e-05
5.51439e-06
-1.2027e-05
4.63423e-06
-1.24424e-05
3.66949e-06
-1.29096e-05
2.59323e-06
-1.34491e-05
1.40984e-06
-1.40164e-05
-1.49766e-05
1.74615e-05
-7.22391e-06
1.71247e-05
-7.31094e-06
1.6778e-05
-7.40569e-06
1.64223e-05
-7.50742e-06
1.60574e-05
-7.61396e-06
1.56823e-05
-7.7243e-06
1.52961e-05
-7.83867e-06
1.48984e-05
-7.95747e-06
1.44889e-05
-8.081e-06
1.4067e-05
-8.20953e-06
1.36322e-05
-8.34335e-06
1.31838e-05
-8.48285e-06
1.27208e-05
-8.62847e-06
1.22425e-05
-8.78073e-06
1.17475e-05
-8.94031e-06
1.12347e-05
-9.108e-06
1.07026e-05
-9.28475e-06
1.01493e-05
-9.4717e-06
9.5728e-06
-9.67021e-06
8.97028e-06
-9.8819e-06
8.33842e-06
-1.01087e-05
7.67301e-06
-1.03531e-05
6.96869e-06
-1.06177e-05
6.2186e-06
-1.09061e-05
5.4139e-06
-1.12223e-05
4.54297e-06
-1.15715e-05
3.59069e-06
-1.19573e-05
2.53628e-06
-1.23947e-05
1.36656e-06
-1.28467e-05
-1.361e-05
1.73295e-05
-6.88784e-06
1.69855e-05
-6.96696e-06
1.66325e-05
-7.05272e-06
1.62708e-05
-7.14573e-06
1.59003e-05
-7.24343e-06
1.55204e-05
-7.34436e-06
1.51304e-05
-7.44873e-06
1.473e-05
-7.55706e-06
1.43186e-05
-7.66958e-06
1.38955e-05
-7.78645e-06
1.34601e-05
-7.90789e-06
1.30114e-05
-8.03421e-06
1.25488e-05
-8.16581e-06
1.20711e-05
-8.30312e-06
1.15775e-05
-8.44667e-06
1.10666e-05
-8.59708e-06
1.05369e-05
-8.75505e-06
9.9866e-06
-8.92142e-06
9.41354e-06
-9.09715e-06
8.81501e-06
-9.28338e-06
8.18771e-06
-9.48143e-06
7.52751e-06
-9.69287e-06
6.82926e-06
-9.91946e-06
6.08642e-06
-1.01633e-05
5.29068e-06
-1.04265e-05
4.43132e-06
-1.07121e-05
3.49473e-06
-1.10207e-05
2.46257e-06
-1.13626e-05
1.31677e-06
-1.17009e-05
-1.22933e-05
1.71693e-05
-6.54507e-06
1.68194e-05
-6.61703e-06
1.64614e-05
-6.69468e-06
1.60952e-05
-6.77955e-06
1.57206e-05
-6.86886e-06
1.53371e-05
-6.96084e-06
1.4944e-05
-7.05567e-06
1.45409e-05
-7.15393e-06
1.41272e-05
-7.25585e-06
1.37022e-05
-7.36151e-06
1.32654e-05
-7.47108e-06
1.2816e-05
-7.58481e-06
1.23532e-05
-7.703e-06
1.18761e-05
-7.82597e-06
1.13835e-05
-7.9541e-06
1.08742e-05
-8.08779e-06
1.03467e-05
-8.22753e-06
9.79912e-06
-8.37386e-06
9.22936e-06
-8.52738e-06
8.63476e-06
-8.68878e-06
8.01212e-06
-8.85879e-06
7.35748e-06
-9.03823e-06
6.66594e-06
-9.22793e-06
5.93141e-06
-9.42877e-06
5.14622e-06
-9.64132e-06
4.30065e-06
-9.86655e-06
3.3825e-06
-1.01026e-05
2.37558e-06
-1.03556e-05
1.26164e-06
-1.05869e-05
-1.10316e-05
1.69809e-05
-6.19632e-06
1.66256e-05
-6.26168e-06
1.62628e-05
-6.33184e-06
1.58922e-05
-6.40899e-06
1.55136e-05
-6.49026e-06
1.51265e-05
-6.5737e-06
1.47303e-05
-6.65947e-06
1.43245e-05
-6.74819e-06
1.39087e-05
-6.84004e-06
1.34823e-05
-6.93506e-06
1.30445e-05
-7.03333e-06
1.25947e-05
-7.13503e-06
1.21321e-05
-7.24036e-06
1.16556e-05
-7.34953e-06
1.11643e-05
-7.46275e-06
1.06568e-05
-7.58026e-06
1.01316e-05
-7.70233e-06
9.58693e-06
-7.82922e-06
9.02074e-06
-7.9612e-06
8.43047e-06
-8.09851e-06
7.81306e-06
-8.24137e-06
7.16477e-06
-8.38994e-06
6.48105e-06
-8.54421e-06
5.75627e-06
-8.70399e-06
4.98351e-06
-8.86856e-06
4.15407e-06
-9.03711e-06
3.25722e-06
-9.20576e-06
2.27894e-06
-9.37736e-06
1.20285e-06
-9.51084e-06
-9.82878e-06
1.6765e-05
-5.84221e-06
1.64048e-05
-5.90145e-06
1.60376e-05
-5.96468e-06
1.56631e-05
-6.03452e-06
1.5281e-05
-6.10812e-06
1.48908e-05
-6.18345e-06
1.44919e-05
-6.26064e-06
1.4084e-05
-6.34029e-06
1.36666e-05
-6.42256e-06
1.32389e-05
-6.50741e-06
1.28004e-05
-6.59487e-06
1.23504e-05
-6.68503e-06
1.18881e-05
-6.778e-06
1.14124e-05
-6.87388e-06
1.09225e-05
-6.97275e-06
1.04169e-05
-7.07467e-06
9.89421e-06
-7.17969e-06
9.3528e-06
-7.28781e-06
8.7906e-06
-7.399e-06
8.20521e-06
-7.51312e-06
7.59375e-06
-7.62991e-06
6.95275e-06
-7.74895e-06
6.27805e-06
-7.86951e-06
5.56456e-06
-7.9905e-06
4.80612e-06
-8.11011e-06
3.99509e-06
-8.22608e-06
3.12225e-06
-8.33292e-06
2.1757e-06
-8.43081e-06
1.14184e-06
-8.47698e-06
-8.68694e-06
1.65231e-05
-5.48328e-06
1.61585e-05
-5.53688e-06
1.57875e-05
-5.59367e-06
1.54096e-05
-5.6566e-06
1.50244e-05
-5.7229e-06
1.46314e-05
-5.79052e-06
1.42304e-05
-5.85956e-06
1.38207e-05
-5.93059e-06
1.34018e-05
-6.00373e-06
1.29733e-05
-6.07888e-06
1.25344e-05
-6.15601e-06
1.20845e-05
-6.23513e-06
1.16228e-05
-6.31627e-06
1.11483e-05
-6.39941e-06
1.06601e-05
-6.48449e-06
1.01568e-05
-6.57142e-06
9.63718e-06
-6.66005e-06
9.09953e-06
-6.75017e-06
8.54196e-06
-6.84143e-06
7.96222e-06
-6.93338e-06
7.35765e-06
-7.02534e-06
6.72509e-06
-7.11638e-06
6.06077e-06
-7.20519e-06
5.3602e-06
-7.28993e-06
4.61797e-06
-7.36789e-06
3.82752e-06
-7.43562e-06
2.98112e-06
-7.48652e-06
2.06884e-06
-7.51854e-06
1.08008e-06
-7.48822e-06
-7.60686e-06
1.62576e-05
-5.12015e-06
1.58892e-05
-5.16852e-06
1.55149e-05
-5.21936e-06
1.5134e-05
-5.27576e-06
1.47462e-05
-5.3351e-06
1.43511e-05
-5.39541e-06
1.39483e-05
-5.45672e-06
1.35373e-05
-5.51955e-06
1.31175e-05
-5.584e-06
1.26886e-05
-5.64992e-06
1.22497e-05
-5.71719e-06
1.18004e-05
-5.78578e-06
1.13397e-05
-5.85561e-06
1.08669e-05
-5.92656e-06
1.03808e-05
-5.99846e-06
9.88048e-06
-6.07105e-06
9.36445e-06
-6.14403e-06
8.83125e-06
-6.21696e-06
8.27908e-06
-6.28927e-06
7.70589e-06
-6.36018e-06
7.10926e-06
-6.4287e-06
6.48634e-06