/*--------------------------------*- C++ -*----------------------------------*\
  =========                 |
  \\      /  F ield         | OpenFOAM: The Open Source CFD Toolbox
   \\    /   O peration     | Website:  https://openfoam.org
    \\  /    A nd           | Version:  11
     \\/     M anipulation  |
\*---------------------------------------------------------------------------*/
FoamFile
{
    format      ascii;
    class       volVectorField;
    location    "7.2";
    object      U;
}
// * * * * * * * * * * * * * * * * * * * * * * * * * * * * * * * * * * * * * //

dimensions      [0 1 -1 0 0 0 0];

internalField   nonuniform List<vector> 
12600
(
(0.399657 0.000110157 0)
(0.399395 0.000185326 0)
(0.398996 0.000189542 0)
(0.398547 0.000187938 0)
(0.398115 0.0001881 0)
(0.39771 0.000185884 0)
(0.397328 0.000181292 0)
(0.396972 0.000175318 0)
(0.39665 0.00016718 0)
(0.39637 0.000155795 0)
(0.396142 0.000141309 0)
(0.395976 0.000124917 0)
(0.395885 0.000106882 0)
(0.395884 8.10878e-05 0)
(0.395994 4.37636e-05 0)
(0.396242 -5.30768e-06 0)
(0.396659 -6.05491e-05 0)
(0.397282 -0.000119486 0)
(0.398158 -0.000196282 0)
(0.399359 -0.000302712 0)
(0.40095 -0.000424878 0)
(0.402991 -0.000558711 0)
(0.405599 -0.000726644 0)
(0.408938 -0.000942586 0)
(0.413187 -0.00121601 0)
(0.418553 -0.00155282 0)
(0.425277 -0.00197604 0)
(0.43364 -0.0024233 0)
(0.443988 -0.00325411 0)
(0.458694 -0.00290427 0)
(0.400033 0.000154452 0)
(0.400174 0.000271303 0)
(0.400325 0.000247696 0)
(0.4004 0.000232321 0)
(0.400479 0.000222194 0)
(0.40058 0.00020853 0)
(0.400701 0.00018884 0)
(0.400847 0.000162469 0)
(0.401022 0.000132687 0)
(0.401234 9.95397e-05 0)
(0.401492 5.77067e-05 0)
(0.401805 6.59819e-06 0)
(0.402182 -5.67367e-05 0)
(0.402638 -0.000132655 0)
(0.403184 -0.000222247 0)
(0.403843 -0.000329386 0)
(0.404628 -0.000461096 0)
(0.405553 -0.000626779 0)
(0.40672 -0.000832218 0)
(0.408053 -0.00108107 0)
(0.409599 -0.00139087 0)
(0.411724 -0.00178573 0)
(0.414367 -0.00227777 0)
(0.417618 -0.00288122 0)
(0.421622 -0.00362224 0)
(0.426561 -0.00453136 0)
(0.432651 -0.00565498 0)
(0.440215 -0.00696611 0)
(0.449518 -0.00887164 0)
(0.461251 -0.00956953 0)
(0.400021 7.76057e-05 0)
(0.400099 0.000138535 0)
(0.400201 0.000131985 0)
(0.400284 0.000120615 0)
(0.40036 0.000110626 0)
(0.400448 9.37691e-05 0)
(0.400556 6.82378e-05 0)
(0.400688 3.15032e-05 0)
(0.400847 -1.55408e-05 0)
(0.401041 -7.40189e-05 0)
(0.401279 -0.000141939 0)
(0.40157 -0.000221859 0)
(0.401924 -0.000317096 0)
(0.402355 -0.000431307 0)
(0.402877 -0.00057031 0)
(0.403508 -0.000740377 0)
(0.404273 -0.000945656 0)
(0.405203 -0.00120065 0)
(0.406335 -0.00150952 0)
(0.407729 -0.00187218 0)
(0.409448 -0.00234975 0)
(0.411534 -0.00298386 0)
(0.414066 -0.00376068 0)
(0.41718 -0.00469795 0)
(0.421027 -0.00584722 0)
(0.425795 -0.00726659 0)
(0.431667 -0.00903289 0)
(0.439072 -0.0111509 0)
(0.447917 -0.0140262 0)
(0.460222 -0.016171 0)
(0.400014 5.02192e-05 0)
(0.400068 0.000116943 0)
(0.400152 0.00013263 0)
(0.40023 0.000123316 0)
(0.400303 0.000108476 0)
(0.400388 8.28821e-05 0)
(0.400492 4.53503e-05 0)
(0.400619 -1.47879e-06 0)
(0.400772 -6.15263e-05 0)
(0.400961 -0.000135414 0)
(0.401191 -0.000226216 0)
(0.401472 -0.000336121 0)
(0.401815 -0.00046802 0)
(0.402231 -0.0006266 0)
(0.402736 -0.000818073 0)
(0.403345 -0.00104999 0)
(0.404085 -0.00133166 0)
(0.404983 -0.0016784 0)
(0.406076 -0.00210422 0)
(0.407414 -0.00262832 0)
(0.409057 -0.0032945 0)
(0.411062 -0.00413392 0)
(0.413503 -0.00516228 0)
(0.416501 -0.00642397 0)
(0.420196 -0.0079874 0)
(0.424779 -0.00992618 0)
(0.430419 -0.0123457 0)
(0.437565 -0.0152709 0)
(0.446058 -0.0191676 0)
(0.458108 -0.0226666 0)
(0.400009 3.29766e-05 0)
(0.400047 8.08014e-05 0)
(0.400113 9.00992e-05 0)
(0.400183 7.42162e-05 0)
(0.400254 4.81047e-05 0)
(0.400335 1.27569e-05 0)
(0.400436 -3.65642e-05 0)
(0.400559 -9.89106e-05 0)
(0.400707 -0.000176228 0)
(0.400888 -0.000270844 0)
(0.401109 -0.000386272 0)
(0.401378 -0.000524966 0)
(0.401706 -0.000690612 0)
(0.402105 -0.000888993 0)
(0.402586 -0.00112794 0)
(0.403169 -0.00141772 0)
(0.403874 -0.0017711 0)
(0.404729 -0.00220559 0)
(0.40577 -0.00274119 0)
(0.407041 -0.00340133 0)
(0.408598 -0.0042249 0)
(0.410498 -0.00525492 0)
(0.412813 -0.00653052 0)
(0.415654 -0.00810647 0)
(0.419153 -0.010061 0)
(0.423494 -0.0124871 0)
(0.428828 -0.0155167 0)
(0.435619 -0.0192181 0)
(0.443637 -0.0240606 0)
(0.455266 -0.0289396 0)
(0.400007 2.09504e-05 0)
(0.400035 5.33199e-05 0)
(0.400088 6.01746e-05 0)
(0.400153 4.44138e-05 0)
(0.400221 1.60781e-05 0)
(0.400299 -2.33622e-05 0)
(0.400394 -7.80414e-05 0)
(0.40051 -0.00015096 0)
(0.400652 -0.000242074 0)
(0.400823 -0.000353956 0)
(0.401033 -0.000490271 0)
(0.401288 -0.000654536 0)
(0.401599 -0.000851315 0)
(0.401974 -0.00108725 0)
(0.402428 -0.00137156 0)
(0.402977 -0.00171654 0)
(0.40364 -0.0021377 0)
(0.404443 -0.00265514 0)
(0.40542 -0.00329295 0)
(0.40661 -0.00408031 0)
(0.408064 -0.00505898 0)
(0.409836 -0.00627829 0)
(0.411997 -0.00778937 0)
(0.414647 -0.00965884 0)
(0.417905 -0.0119797 0)
(0.421946 -0.0148658 0)
(0.426904 -0.0184742 0)
(0.433243 -0.0229176 0)
(0.440676 -0.0286628 0)
(0.451712 -0.0348804 0)
(0.400005 1.24106e-05 0)
(0.400027 3.19163e-05 0)
(0.400072 3.34761e-05 0)
(0.400129 1.44046e-05 0)
(0.400193 -2.07581e-05 0)
(0.400266 -7.03555e-05 0)
(0.400356 -0.000135879 0)
(0.400465 -0.000220802 0)
(0.400598 -0.000326742 0)
(0.400759 -0.000456586 0)
(0.400956 -0.000614305 0)
(0.401194 -0.00080414 0)
(0.401483 -0.0010313 0)
(0.401833 -0.00130327 0)
(0.402255 -0.00163058 0)
(0.402764 -0.00202736 0)
(0.403378 -0.0025116 0)
(0.404121 -0.00310602 0)
(0.405023 -0.00383838 0)
(0.406119 -0.00474262 0)
(0.407454 -0.00586328 0)
(0.40908 -0.00725452 0)
(0.411062 -0.00897859 0)
(0.413488 -0.011115 0)
(0.416464 -0.0137705 0)
(0.420152 -0.0170775 0)
(0.424667 -0.021216 0)
(0.430462 -0.0263447 0)
(0.437201 -0.0329235 0)
(0.447473 -0.0404162 0)
(0.400004 5.8445e-06 0)
(0.400022 1.43144e-05 0)
(0.40006 9.44487e-06 0)
(0.400111 -1.39436e-05 0)
(0.40017 -5.44474e-05 0)
(0.400239 -0.000110824 0)
(0.400322 -0.000184458 0)
(0.400424 -0.000278814 0)
(0.400547 -0.000396704 0)
(0.400697 -0.000541499 0)
(0.400878 -0.000717493 0)
(0.401098 -0.000929433 0)
(0.401363 -0.00118313 0)
(0.401684 -0.00148685 0)
(0.402069 -0.00185231 0)
(0.402533 -0.00229533 0)
(0.403092 -0.0028361 0)
(0.403767 -0.00349981 0)
(0.404584 -0.00431731 0)
(0.405574 -0.0053263 0)
(0.406778 -0.00657462 0)
(0.40824 -0.0081215 0)
(0.410018 -0.0100383 0)
(0.41219 -0.0124154 0)
(0.414846 -0.0153716 0)
(0.418133 -0.0190566 0)
(0.422142 -0.0236719 0)
(0.427307 -0.0294211 0)
(0.433249 -0.036757 0)
(0.442576 -0.0454459 0)
(0.400003 5.38217e-07 0)
(0.400018 -3.53513e-07 0)
(0.400051 -1.18332e-05 0)
(0.400096 -3.98766e-05 0)
(0.40015 -8.53312e-05 0)
(0.400214 -0.000148137 0)
(0.400291 -0.000229946 0)
(0.400384 -0.000334016 0)
(0.400497 -0.000463746 0)
(0.400634 -0.000622985 0)
(0.400798 -0.000816341 0)
(0.400997 -0.00104899 0)
(0.401236 -0.00132732 0)
(0.401524 -0.00166031 0)
(0.40187 -0.00206074 0)
(0.402284 -0.00254584 0)
(0.402782 -0.00313764 0)
(0.403382 -0.00386346 0)
(0.404105 -0.00475667 0)
(0.40498 -0.00585812 0)
(0.406038 -0.00721888 0)
(0.407321 -0.00890255 0)
(0.408876 -0.0109876 0)
(0.410768 -0.0135733 0)
(0.413073 -0.0167894 0)
(0.415915 -0.0208008 0)
(0.419362 -0.0258281 0)
(0.423815 -0.032117 0)
(0.428867 -0.0401136 0)
(0.437063 -0.0498889 0)
(0.400003 -3.87076e-06 0)
(0.400016 -1.28953e-05 0)
(0.400044 -3.05078e-05 0)
(0.400084 -6.31977e-05 0)
(0.400133 -0.000113607 0)
(0.400192 -0.000182571 0)
(0.400262 -0.000271739 0)
(0.400346 -0.000384286 0)
(0.400448 -0.000524131 0)
(0.40057 -0.000695669 0)
(0.400717 -0.000903841 0)
(0.400893 -0.00115418 0)
(0.401104 -0.00145354 0)
(0.401356 -0.00181153 0)
(0.401658 -0.00224182 0)
(0.40202 -0.00276286 0)
(0.402452 -0.00339822 0)
(0.40297 -0.00417702 0)
(0.403593 -0.00513473 0)
(0.404343 -0.0063147 0)
(0.405246 -0.00777077 0)
(0.406336 -0.00957009 0)
(0.40765 -0.0117966 0)
(0.409241 -0.0145566 0)
(0.411166 -0.0179889 0)
(0.413527 -0.0222705 0)
(0.416365 -0.0276384 0)
(0.420035 -0.0343755 0)
(0.424112 -0.042921 0)
(0.430994 -0.0536417 0)
(0.400003 -7.74469e-06 0)
(0.400014 -2.34679e-05 0)
(0.400038 -4.69029e-05 0)
(0.400074 -8.44389e-05 0)
(0.400118 -0.000139481 0)
(0.400171 -0.000213742 0)
(0.400234 -0.000309229 0)
(0.400309 -0.000429183 0)
(0.400399 -0.000577821 0)
(0.400506 -0.000759948 0)
(0.400633 -0.000980824 0)
(0.400785 -0.00124629 0)
(0.400966 -0.0015636 0)
(0.401181 -0.00194287 0)
(0.401437 -0.0023985 0)
(0.401741 -0.00294991 0)
(0.402104 -0.00362187 0)
(0.402536 -0.00444491 0)
(0.403052 -0.00545608 0)
(0.40367 -0.0067006 0)
(0.40441 -0.00823438 0)
(0.405296 -0.0101272 0)
(0.406357 -0.0124668 0)
(0.40763 -0.0153646 0)
(0.409154 -0.0189656 0)
(0.411004 -0.023456 0)
(0.413195 -0.0290848 0)
(0.416022 -0.0361659 0)
(0.419053 -0.0451297 0)
(0.424453 -0.0566173 0)
(0.400002 -1.09187e-05 0)
(0.400012 -3.28146e-05 0)
(0.400033 -6.15471e-05 0)
(0.400065 -0.000103443 0)
(0.400105 -0.000162661 0)
(0.400152 -0.000241597 0)
(0.400207 -0.000342481 0)
(0.400273 -0.00046862 0)
(0.400351 -0.000624481 0)
(0.400442 -0.000815233 0)
(0.400549 -0.00104642 0)
(0.400675 -0.00132411 0)
(0.400825 -0.00165583 0)
(0.401 -0.00205211 0)
(0.401208 -0.00252789 0)
(0.401452 -0.00310331 0)
(0.401741 -0.00380405 0)
(0.402083 -0.00466164 0)
(0.402489 -0.00571423 0)
(0.40297 -0.00700826 0)
(0.403539 -0.00860098 0)
(0.404214 -0.0105638 0)
(0.405011 -0.0129865 0)
(0.405954 -0.0159835 0)
(0.407062 -0.0197034 0)
(0.408383 -0.0243376 0)
(0.409902 -0.0301419 0)
(0.411841 -0.037453 0)
(0.413775 -0.0466889 0)
(0.417545 -0.0587293 0)
(0.400002 -1.37188e-05 0)
(0.40001 -4.09991e-05 0)
(0.400029 -7.44245e-05 0)
(0.400057 -0.000120363 0)
(0.400092 -0.000183322 0)
(0.400134 -0.000266126 0)
(0.400182 -0.000371304 0)
(0.400238 -0.00050231 0)
(0.400303 -0.000663792 0)
(0.400377 -0.000861158 0)
(0.400464 -0.00110016 0)
(0.400564 -0.00138705 0)
(0.40068 -0.00172957 0)
(0.400815 -0.00213852 0)
(0.400973 -0.00262921 0)
(0.401156 -0.00322228 0)
(0.401369 -0.00394396 0)
(0.401618 -0.00482638 0)
(0.401909 -0.0059083 0)
(0.402249 -0.00723674 0)
(0.402645 -0.00886946 0)
(0.403103 -0.0108783 0)
(0.403632 -0.0133538 0)
(0.404238 -0.0164108 0)
(0.404922 -0.0201984 0)
(0.405702 -0.0249089 0)
(0.406535 -0.0307994 0)
(0.407561 -0.0382185 0)
(0.408369 -0.0475665 0)
(0.410401 -0.0599118 0)
(0.400002 -1.61725e-05 0)
(0.400009 -4.8202e-05 0)
(0.400026 -8.58429e-05 0)
(0.400051 -0.000135356 0)
(0.400081 -0.000201434 0)
(0.400117 -0.000287268 0)
(0.400158 -0.000395656 0)
(0.400204 -0.000530172 0)
(0.400255 -0.000695573 0)
(0.400313 -0.000897438 0)
(0.400378 -0.00114168 0)
(0.400452 -0.00143468 0)
(0.400534 -0.00178428 0)
(0.400628 -0.00220144 0)
(0.400734 -0.00270165 0)
(0.400854 -0.0033058 0)
(0.40099 -0.00404036 0)
(0.401145 -0.00493765 0)
(0.40132 -0.00603655 0)
(0.401517 -0.00738402 0)
(0.401736 -0.00903751 0)
(0.401977 -0.0110683 0)
(0.402235 -0.0135657 0)
(0.402503 -0.0166432 0)
(0.402763 -0.020447 0)
(0.403002 -0.025166 0)
(0.40315 -0.0310514 0)
(0.403258 -0.0384526 0)
(0.402939 -0.0477441 0)
(0.403174 -0.0601202 0)
(0.400001 -1.8346e-05 0)
(0.400008 -5.45986e-05 0)
(0.400023 -9.59677e-05 0)
(0.400045 -0.000148528 0)
(0.400072 -0.000217075 0)
(0.400102 -0.000305069 0)
(0.400135 -0.000415527 0)
(0.400171 -0.000552124 0)
(0.40021 -0.000719693 0)
(0.400251 -0.000923909 0)
(0.400294 -0.00117078 0)
(0.40034 -0.00146673 0)
(0.400389 -0.00181963 0)
(0.40044 -0.00224046 0)
(0.400494 -0.00274475 0)
(0.400551 -0.00335336 0)
(0.40061 -0.00409272 0)
(0.400669 -0.00499494 0)
(0.400728 -0.00609852 0)
(0.400782 -0.00744976 0)
(0.400825 -0.00910501 0)
(0.400849 -0.0111338 0)
(0.400838 -0.0136231 0)
(0.400772 -0.0166823 0)
(0.400615 -0.0204519 0)
(0.400323 -0.0251127 0)
(0.399802 -0.0309031 0)
(0.399012 -0.0381606 0)
(0.397592 -0.0472243 0)
(0.396033 -0.0593422 0)
(0.400001 -2.02923e-05 0)
(0.400007 -6.0331e-05 0)
(0.400021 -0.000104971 0)
(0.40004 -0.000160035 0)
(0.400063 -0.000230349 0)
(0.400088 -0.000319583 0)
(0.400114 -0.00043094 0)
(0.40014 -0.000568172 0)
(0.400165 -0.00073613 0)
(0.400189 -0.000940516 0)
(0.400211 -0.00118736 0)
(0.40023 -0.00148308 0)
(0.400244 -0.00183549 0)
(0.400254 -0.00225547 0)
(0.400256 -0.00275839 0)
(0.400249 -0.00336489 0)
(0.400231 -0.004101 0)
(0.400196 -0.00499831 0)
(0.400139 -0.00609445 0)
(0.400051 -0.00743447 0)
(0.399921 -0.00907292 0)
(0.399732 -0.0110766 0)
(0.399459 -0.0135285 0)
(0.399068 -0.0165323 0)
(0.398507 -0.0202196 0)
(0.397706 -0.0247586 0)
(0.396545 -0.0303682 0)
(0.394898 -0.0373614 0)
(0.392437 -0.0460314 0)
(0.389158 -0.057602 0)
(0.400001 -2.20643e-05 0)
(0.400007 -6.55406e-05 0)
(0.400019 -0.000113035 0)
(0.400036 -0.000170042 0)
(0.400056 -0.000241379 0)
(0.400076 -0.000330906 0)
(0.400094 -0.00044198 0)
(0.400111 -0.000578382 0)
(0.400123 -0.000744932 0)
(0.40013 -0.000947302 0)
(0.400131 -0.00119149 0)
(0.400122 -0.00148381 0)
(0.400103 -0.00183195 0)
(0.400071 -0.00224659 0)
(0.400022 -0.00274277 0)
(0.399953 -0.00334066 0)
(0.399858 -0.00406566 0)
(0.39973 -0.00494842 0)
(0.39956 -0.00602533 0)
(0.399334 -0.00733966 0)
(0.399035 -0.00894345 0)
(0.39864 -0.0109 0)
(0.398114 -0.0132869 0)
(0.397412 -0.0162004 0)
(0.396467 -0.0197608 0)
(0.395185 -0.0241196 0)
(0.393428 -0.02947 0)
(0.39099 -0.0360888 0)
(0.387576 -0.0442129 0)
(0.382724 -0.0549647 0)
(0.400001 -2.37202e-05 0)
(0.400006 -7.03806e-05 0)
(0.400018 -0.000120358 0)
(0.400033 -0.000178733 0)
(0.40005 -0.000250314 0)
(0.400065 -0.000339166 0)
(0.400077 -0.000448772 0)
(0.400084 -0.000582888 0)
(0.400083 -0.000746243 0)
(0.400074 -0.000944426 0)
(0.400054 -0.00118333 0)
(0.400019 -0.00146914 0)
(0.399967 -0.00180932 0)
(0.399894 -0.00221421 0)
(0.399795 -0.00269839 0)
(0.399665 -0.00328137 0)
(0.399495 -0.00398761 0)
(0.399277 -0.00484654 0)
(0.398997 -0.0058929 0)
(0.398637 -0.00716772 0)
(0.398176 -0.00871997 0)
(0.397583 -0.0106086 0)
(0.396817 -0.0129051 0)
(0.395822 -0.0156965 0)
(0.394519 -0.0190898 0)
(0.392795 -0.0232169 0)
(0.390496 -0.0282401 0)
(0.387354 -0.0343896 0)
(0.383104 -0.0418384 0)
(0.376893 -0.0515364 0)
(0.400001 -2.53245e-05 0)
(0.400006 -7.50342e-05 0)
(0.400017 -0.000127169 0)
(0.400032 -0.000186315 0)
(0.400046 -0.000257329 0)
(0.400056 -0.000344529 0)
(0.400062 -0.000451486 0)
(0.400059 -0.000581866 0)
(0.400047 -0.000740267 0)
(0.400022 -0.000932144 0)
(0.399981 -0.00116323 0)
(0.399921 -0.00143949 0)
(0.399836 -0.00176809 0)
(0.399724 -0.00215896 0)
(0.399577 -0.00262607 0)
(0.399388 -0.00318805 0)
(0.399147 -0.00386821 0)
(0.398842 -0.00469445 0)
(0.398456 -0.00569953 0)
(0.397969 -0.00692186 0)
(0.397354 -0.00840685 0)
(0.396574 -0.0102085 0)
(0.395583 -0.0123914 0)
(0.394316 -0.0150327 0)
(0.392686 -0.0182243 0)
(0.390564 -0.0220764 0)
(0.387787 -0.026717 0)
(0.384042 -0.0323224 0)
(0.379095 -0.0389962 0)
(0.371798 -0.0474594 0)
(0.400001 -2.6965e-05 0)
(0.400006 -7.97242e-05 0)
(0.400018 -0.000133731 0)
(0.400031 -0.000193015 0)
(0.400044 -0.00026262 0)
(0.40005 -0.000347195 0)
(0.400049 -0.000450344 0)
(0.400038 -0.000575579 0)
(0.400015 -0.000727304 0)
(0.399974 -0.0009108 0)
(0.399914 -0.0011316 0)
(0.399829 -0.00139539 0)
(0.399714 -0.00170897 0)
(0.399564 -0.00208175 0)
(0.39937 -0.00252695 0)
(0.399125 -0.00306215 0)
(0.398816 -0.00370927 0)
(0.398428 -0.00449446 0)
(0.397943 -0.00544821 0)
(0.397336 -0.006606 0)
(0.396576 -0.00800933 0)
(0.395623 -0.00970692 0)
(0.394424 -0.0117559 0)
(0.392909 -0.0142228 0)
(0.390984 -0.0171841 0)
(0.388513 -0.020727 0)
(0.385329 -0.0249441 0)
(0.381094 -0.0299537 0)
(0.375605 -0.0357888 0)
(0.36753 -0.0429043 0)
(0.400001 -2.87564e-05 0)
(0.400007 -8.47449e-05 0)
(0.400019 -0.000140362 0)
(0.400033 -0.000199072 0)
(0.400044 -0.0002664 0)
(0.400047 -0.000347423 0)
(0.40004 -0.000445619 0)
(0.400021 -0.000564292 0)
(0.399986 -0.000707674 0)
(0.399932 -0.000880835 0)
(0.399853 -0.00108902 0)
(0.399745 -0.00133754 0)
(0.399601 -0.00163279 0)
(0.399415 -0.00198361 0)
(0.399178 -0.00240236 0)
(0.39888 -0.00290539 0)
(0.398507 -0.00351305 0)
(0.398042 -0.00424949 0)
(0.397463 -0.0051427 0)
(0.396744 -0.00622499 0)
(0.39585 -0.00753371 0)
(0.394737 -0.00911204 0)
(0.393349 -0.0110095 0)
(0.391612 -0.013282 0)
(0.389429 -0.0159907 0)
(0.38666 -0.0191997 0)
(0.383141 -0.0229675 0)
(0.378531 -0.0273543 0)
(0.37266 -0.0323263 0)
(0.364135 -0.0380572 0)
(0.400002 -3.08694e-05 0)
(0.400008 -9.04972e-05 0)
(0.400022 -0.000147438 0)
(0.400037 -0.00020475 0)
(0.400047 -0.000268836 0)
(0.400046 -0.000345353 0)
(0.400035 -0.000437601 0)
(0.400009 -0.000548454 0)
(0.399964 -0.000681936 0)
(0.399896 -0.000842905 0)
(0.399801 -0.00103623 0)
(0.399671 -0.00126678 0)
(0.3995 -0.00154052 0)
(0.39928 -0.00186565 0)
(0.399003 -0.00225356 0)
(0.398655 -0.00271924 0)
(0.398223 -0.00328131 0)
(0.397686 -0.00396177 0)
(0.397022 -0.00478593 0)
(0.3962 -0.00578276 0)
(0.395184 -0.00698537 0)
(0.393926 -0.00843136 0)
(0.392369 -0.0101628 0)
(0.390436 -0.0122252 0)
(0.38803 -0.014665 0)
(0.385013 -0.0175253 0)
(0.381231 -0.020833 0)
(0.37636 -0.0245945 0)
(0.370262 -0.0287183 0)
(0.361601 -0.0331059 0)
(0.400002 -3.35597e-05 0)
(0.400011 -9.75358e-05 0)
(0.400028 -0.000155434 0)
(0.400045 -0.000210336 0)
(0.400054 -0.00027023 0)
(0.400051 -0.000341332 0)
(0.400034 -0.000426532 0)
(0.400002 -0.000528275 0)
(0.399948 -0.000650422 0)
(0.399868 -0.000797594 0)
(0.399756 -0.000974195 0)
(0.399607 -0.0011846 0)
(0.399411 -0.00143429 0)
(0.399161 -0.00173079 0)
(0.398846 -0.00208433 0)
(0.398454 -0.00250841 0)
(0.397967 -0.00301974 0)
(0.397365 -0.00363801 0)
(0.396623 -0.00438572 0)
(0.395709 -0.00528841 0)
(0.394583 -0.00637491 0)
(0.393197 -0.00767733 0)
(0.39149 -0.00923057 0)
(0.389387 -0.0110706 0)
(0.386794 -0.0132307 0)
(0.383578 -0.0157354 0)
(0.379599 -0.0185853 0)
(0.374568 -0.021741 0)
(0.368384 -0.0250666 0)
(0.359866 -0.0282242 0)
(0.400003 -3.72635e-05 0)
(0.400015 -0.000106607 0)
(0.400037 -0.000164728 0)
(0.400057 -0.000216061 0)
(0.400066 -0.00027109 0)
(0.40006 -0.000336047 0)
(0.40004 -0.000412917 0)
(0.400001 -0.000503915 0)
(0.399939 -0.000612863 0)
(0.399849 -0.000744088 0)
(0.399723 -0.000901496 0)
(0.399555 -0.00108887 0)
(0.399337 -0.00131121 0)
(0.399059 -0.00157532 0)
(0.398711 -0.00189031 0)
(0.398278 -0.00226809 0)
(0.397743 -0.00272341 0)
(0.397083 -0.00327349 0)
(0.396272 -0.00393796 0)
(0.395275 -0.0047389 0)
(0.394052 -0.0057009 0)
(0.392554 -0.00685088 0)
(0.390718 -0.0082171 0)
(0.388472 -0.00982702 0)
(0.385724 -0.0117026 0)
(0.382353 -0.0138532 0)
(0.378235 -0.0162602 0)
(0.373129 -0.0188491 0)
(0.366974 -0.0214568 0)
(0.358819 -0.0235575 0)
(0.400004 -4.27433e-05 0)
(0.400022 -0.000118907 0)
(0.400051 -0.000175543 0)
(0.400075 -0.000221666 0)
(0.400084 -0.000271474 0)
(0.400076 -0.000330367 0)
(0.400053 -0.000399024 0)
(0.40001 -0.000479458 0)
(0.399941 -0.000575304 0)
(0.39984 -0.000690415 0)
(0.399702 -0.000828144 0)
(0.399519 -0.000991752 0)
(0.399281 -0.00118576 0)
(0.398979 -0.00141598 0)
(0.398601 -0.00169018 0)
(0.398133 -0.0020187 0)
(0.397555 -0.00241419 0)
(0.396844 -0.00289137 0)
(0.395973 -0.00346689 0)
(0.394904 -0.00415939 0)
(0.393598 -0.00498936 0)
(0.392003 -0.00597878 0)
(0.390059 -0.00715 0)
(0.387693 -0.00852313 0)
(0.38482 -0.0101109 0)
(0.381331 -0.0119113 0)
(0.377121 -0.0138951 0)
(0.372005 -0.0159663 0)
(0.365961 -0.0179561 0)
(0.358325 -0.0192147 0)
(0.400006 -5.14112e-05 0)
(0.400033 -0.000136731 0)
(0.400074 -0.000188852 0)
(0.400102 -0.000225989 0)
(0.40011 -0.000267089 0)
(0.4001 -0.000316294 0)
(0.400075 -0.000373213 0)
(0.400027 -0.000439787 0)
(0.399952 -0.000519412 0)
(0.399844 -0.00061541 0)
(0.399695 -0.000730111 0)
(0.399498 -0.000866111 0)
(0.399243 -0.00102815 0)
(0.398921 -0.00122111 0)
(0.398518 -0.00145118 0)
(0.39802 -0.00172687 0)
(0.397406 -0.00205871 0)
(0.396652 -0.00245881 0)
(0.395729 -0.00294086 0)
(0.394601 -0.00352006 0)
(0.393225 -0.00421302 0)
(0.39155 -0.00503717 0)
(0.389517 -0.00600974 0)
(0.387055 -0.00714496 0)
(0.384087 -0.00844876 0)
(0.380514 -0.00991094 0)
(0.37625 -0.0114994 0)
(0.371175 -0.0131093 0)
(0.365309 -0.0145959 0)
(0.358299 -0.0152569 0)
(0.400011 -6.47689e-05 0)
(0.400053 -0.00016251 0)
(0.40011 -0.000212847 0)
(0.400144 -0.000247451 0)
(0.400151 -0.000285072 0)
(0.40014 -0.000327286 0)
(0.400112 -0.000374302 0)
(0.400062 -0.000428661 0)
(0.399982 -0.000493124 0)
(0.399867 -0.00057101 0)
(0.39971 -0.000664186 0)
(0.399502 -0.000773169 0)
(0.399233 -0.000902351 0)
(0.398894 -0.0010563 0)
(0.398471 -0.00124009 0)
(0.397948 -0.00146036 0)
(0.397305 -0.00172527 0)
(0.396518 -0.00204432 0)
(0.395555 -0.00242824 0)
(0.39438 -0.0028889 0)
(0.392951 -0.00343913 0)
(0.391216 -0.00409218 0)
(0.389117 -0.0048608 0)
(0.38659 -0.00575435 0)
(0.383564 -0.00677453 0)
(0.379953 -0.00790909 0)
(0.375701 -0.00913518 0)
(0.370741 -0.010344 0)
(0.365147 -0.0114387 0)
(0.358821 -0.0117265 0)
(0.400018 -8.82311e-05 0)
(0.400083 -0.000170708 0)
(0.400157 -0.000194518 0)
(0.400195 -0.00021756 0)
(0.400203 -0.000248022 0)
(0.400193 -0.000280551 0)
(0.400165 -0.000315444 0)
(0.400112 -0.000355743 0)
(0.400028 -0.000403662 0)
(0.399907 -0.000460131 0)
(0.399744 -0.000527295 0)
(0.399529 -0.000608636 0)
(0.39925 -0.000705392 0)
(0.398898 -0.000819947 0)
(0.398459 -0.000956583 0)
(0.397919 -0.00112041 0)
(0.397255 -0.00131725 0)
(0.396442 -0.00155386 0)
(0.395451 -0.00183794 0)
(0.394245 -0.00217811 0)
(0.392783 -0.00258375 0)
(0.391014 -0.00306461 0)
(0.388888 -0.00363038 0)
(0.386343 -0.00428742 0)
(0.383322 -0.00503365 0)
(0.37976 -0.00585918 0)
(0.375634 -0.00676584 0)
(0.370869 -0.00766053 0)
(0.365598 -0.00848831 0)
(0.35957 -0.00847485 0)
(0.400026 -0.000160806 0)
(0.400175 -0.000301256 0)
(0.400275 -0.000289348 0)
(0.400284 -0.000294552 0)
(0.400274 -0.000312155 0)
(0.400248 -0.000331641 0)
(0.400201 -0.000352598 0)
(0.400124 -0.000376921 0)
(0.400014 -0.000405628 0)
(0.399863 -0.000444728 0)
(0.399666 -0.000489141 0)
(0.399412 -0.000533448 0)
(0.399094 -0.000592928 0)
(0.398698 -0.000665217 0)
(0.39821 -0.000752294 0)
(0.397612 -0.000857415 0)
(0.396883 -0.000984318 0)
(0.395999 -0.00113747 0)
(0.394929 -0.0013221 0)
(0.393638 -0.00154419 0)
(0.392086 -0.00181035 0)
(0.390226 -0.00212765 0)
(0.388005 -0.00250312 0)
(0.385364 -0.00294209 0)
(0.382242 -0.00344429 0)
(0.378583 -0.00400076 0)
(0.374334 -0.00460046 0)
(0.369309 -0.00514138 0)
(0.363669 -0.00570089 0)
(0.356073 -0.00494372 0)
(0.399651 -0.000114794 0)
(0.399369 -0.000192362 0)
(0.398928 -0.000202931 0)
(0.398416 -0.000208081 0)
(0.39789 -0.000216329 0)
(0.39735 -0.000224819 0)
(0.396787 -0.000233614 0)
(0.396191 -0.000243656 0)
(0.395558 -0.00025534 0)
(0.394882 -0.000267502 0)
(0.394152 -0.000281989 0)
(0.393361 -0.00030227 0)
(0.392498 -0.000326488 0)
(0.391545 -0.000353992 0)
(0.390486 -0.000386267 0)
(0.389297 -0.0004251 0)
(0.387952 -0.000472255 0)
(0.386418 -0.000529706 0)
(0.384654 -0.000599729 0)
(0.382613 -0.00068493 0)
(0.380238 -0.000788303 0)
(0.377461 -0.000913123 0)
(0.374205 -0.00106243 0)
(0.370385 -0.00123926 0)
(0.365908 -0.00144657 0)
(0.360691 -0.00167855 0)
(0.354678 -0.00191402 0)
(0.347885 -0.00208036 0)
(0.340636 -0.00228717 0)
(0.329888 -0.00159646 0)
(0.464177 -0.00649438 4.39059e-21)
(0.469852 -0.00990617 -1.69809e-17)
(0.474921 -0.0139646 1.71287e-17)
(0.479013 -0.0184823 8.64398e-18)
(0.48258 -0.0233938 6.55003e-18)
(0.48586 -0.0286764 1.32463e-17)
(0.488909 -0.0343584 6.68963e-18)
(0.49177 -0.0404929 1.80563e-17)
(0.494503 -0.0471254 9.13947e-18)
(0.497148 -0.0542883 4.61724e-18)
(0.499714 -0.0620096 -4.67946e-18)
(0.502188 -0.0703226 9.46275e-18)
(0.504548 -0.0792703 4.81051e-18)
(0.506779 -0.0889073 4.86646e-18)
(0.508872 -0.0993018 9.85717e-18)
(0.510821 -0.110538 5.00824e-18)
(0.512626 -0.122717 1.51908e-17)
(0.514288 -0.135965 0)
(0.515809 -0.150433 0)
(0.517191 -0.166314 5.26193e-18)
(0.518443 -0.183844 -2.03334e-20)
(0.519573 -0.203326 5.42553e-18)
(0.520604 -0.225139 0)
(0.521523 -0.249809 1.10677e-17)
(0.522484 -0.277874 5.58478e-18)
(0.522977 -0.310683 -5.68505e-18)
(0.525121 -0.346994 5.68586e-18)
(0.521346 -0.399105 5.73504e-18)
(0.534037 -0.430178 1.71258e-17)
(0.502433 -0.552677 -5.60202e-18)
(0.469994 -0.0141052 -8.52701e-18)
(0.473544 -0.0177747 9.68412e-18)
(0.476486 -0.0222054 -9.78749e-18)
(0.478891 -0.0270082 0)
(0.481129 -0.0321057 -8.90954e-18)
(0.483365 -0.0375483 -9.00502e-18)
(0.485591 -0.0434047 -2.27869e-18)
(0.487785 -0.0497162 -1.61528e-17)
(0.489938 -0.056501 -9.33883e-18)
(0.492027 -0.0637753 -9.47426e-18)
(0.494015 -0.0715658 4.79206e-18)
(0.495866 -0.0799127 -4.86166e-18)
(0.497556 -0.0888663 -9.83867e-18)
(0.499071 -0.0984875 -9.97536e-18)
(0.500401 -0.108848 -1.0117e-17)
(0.501537 -0.120033 -1.02635e-17)
(0.502466 -0.132144 -2.08643e-17)
(0.503173 -0.145305 5.28965e-18)
(0.503641 -0.159667 -5.38163e-18)
(0.503847 -0.175419 -1.63938e-17)
(0.503767 -0.192792 1.66561e-20)
(0.503369 -0.212081 -3.24865e-20)
(0.502619 -0.233653 -2.52028e-20)
(0.501446 -0.258002 -1.7447e-17)
(0.49985 -0.285659 -1.18018e-17)
(0.497407 -0.317765 -5.92006e-18)
(0.495326 -0.353831 7.45145e-20)
(0.487744 -0.402174 -8.21957e-20)
(0.493691 -0.437227 -1.82829e-17)
(0.456293 -0.549491 0)
(0.467736 -0.0211427 0)
(0.470106 -0.0247782 0)
(0.472214 -0.0291885 0)
(0.474233 -0.0340167 -1.12307e-18)
(0.476263 -0.0391746 1.02318e-17)
(0.478296 -0.044689 -2.30172e-18)
(0.480273 -0.0505942 2.33282e-18)
(0.482146 -0.0569077 9.44162e-18)
(0.48389 -0.0636485 -2.39222e-18)
(0.485485 -0.0708486 1.21218e-17)
(0.486912 -0.0785511 4.91671e-18)
(0.488158 -0.0868044 -4.99168e-18)
(0.489211 -0.095661 5.05958e-18)
(0.49006 -0.10518 -5.14088e-18)
(0.490689 -0.115431 -1.04501e-17)
(0.491073 -0.126496 1.06157e-17)
(0.491187 -0.138476 1.07508e-17)
(0.490997 -0.151493 0)
(0.490466 -0.165694 0)
(0.489549 -0.181263 1.12925e-17)
(0.48819 -0.198424 0)
(0.486317 -0.217459 1.75798e-17)
(0.48384 -0.238719 5.96746e-18)
(0.480628 -0.262661 1.20803e-17)
(0.476558 -0.289808 1.8423e-17)
(0.471209 -0.321113 6.30527e-18)
(0.465147 -0.356562 0)
(0.454025 -0.401756 2.57709e-17)
(0.452151 -0.439672 0)
(0.41123 -0.540934 1.307e-17)
(0.465258 -0.0284016 0)
(0.467152 -0.0322041 0)
(0.468835 -0.0366992 0)
(0.470541 -0.0415681 -9.18007e-18)
(0.472223 -0.0467383 0)
(0.4738 -0.052237 0)
(0.475239 -0.0581029 0)
(0.476533 -0.0643645 9.68174e-18)
(0.477678 -0.0710502 0)
(0.478664 -0.0781947 0)
(0.479474 -0.0858363 0)
(0.480092 -0.0940162 -1.02669e-17)
(0.480495 -0.102782 -1.04285e-17)
(0.480657 -0.112189 -5.28819e-18)
(0.480548 -0.122307 -2.88854e-20)
(0.480135 -0.133217 -1.09137e-17)
(0.479377 -0.145018 6.19593e-21)
(0.478228 -0.157829 1.70143e-17)
(0.476634 -0.171791 5.76133e-18)
(0.474527 -0.187077 -5.87786e-18)
(0.471819 -0.203901 -5.97925e-18)
(0.468402 -0.222524 -6.06107e-18)
(0.464137 -0.243273 -6.21372e-18)
(0.458839 -0.266561 1.91061e-17)
(0.452281 -0.29288 0)
(0.44404 -0.323009 -1.98581e-17)
(0.43418 -0.357182 -6.76877e-18)
(0.419568 -0.399309 1.88623e-19)
(0.410179 -0.437824 -2.11022e-17)
(0.367008 -0.527994 4.06278e-19)
(0.461904 -0.0352683 0)
(0.463305 -0.0391105 9.12985e-18)
(0.464476 -0.0435763 -1.15537e-18)
(0.465726 -0.0484048 1.99111e-17)
(0.466949 -0.0535455 0)
(0.468034 -0.0590218 0)
(0.468964 -0.0648634 9.77677e-18)
(0.469747 -0.0710917 -9.90119e-18)
(0.470374 -0.077729 0)
(0.470823 -0.0848046 0)
(0.471067 -0.0923537 0)
(0.471081 -0.100418 1.05308e-17)
(0.470837 -0.109045 1.07055e-17)
(0.470303 -0.118293 -5.45032e-18)
(0.469445 -0.12823 1.6629e-17)
(0.46822 -0.138934 0)
(0.466578 -0.1505 1.15331e-17)
(0.464461 -0.163037 -1.76017e-17)
(0.461793 -0.176679 -5.98492e-18)
(0.458485 -0.191587 0)
(0.454424 -0.207957 0)
(0.449466 -0.226027 0)
(0.44343 -0.246093 0)
(0.436082 -0.268519 -6.62335e-18)
(0.427113 -0.293749 -6.83254e-18)
(0.416084 -0.32241 6.94076e-18)
(0.402686 -0.354879 7.18725e-18)
(0.384732 -0.393806 -1.46088e-17)
(0.36837 -0.431545 1.50148e-17)
(0.323765 -0.510949 -1.5193e-17)
(0.45777 -0.0417508 -9.1886e-18)
(0.458716 -0.0456347 -8.72057e-18)
(0.459416 -0.0501006 -1.76969e-18)
(0.46024 -0.0549179 -7.17231e-18)
(0.461039 -0.0600406 -5.56738e-22)
(0.46167 -0.0654831 -3.695e-18)
(0.462116 -0.0712688 2.15026e-20)
(0.462394 -0.0774181 -1.01694e-17)
(0.46249 -0.0839551 -7.75269e-18)
(0.462377 -0.0909107 1.05033e-17)
(0.462025 -0.0983211 0)
(0.461407 -0.106228 1.35787e-17)
(0.460493 -0.114677 -1.38227e-17)
(0.459247 -0.123722 -1.12653e-17)
(0.457624 -0.133427 1.72076e-17)
(0.455574 -0.143865 -1.75472e-17)
(0.453034 -0.155123 -5.93606e-18)
(0.449931 -0.167302 -6.13878e-18)
(0.446175 -0.180524 -6.21163e-18)
(0.441656 -0.194936 1.90944e-17)
(0.436236 -0.210712 0)
(0.429743 -0.228065 6.65278e-18)
(0.42196 -0.247251 -1.36474e-17)
(0.412611 -0.268584 1.40757e-17)
(0.401326 -0.292447 7.20397e-18)
(0.387644 -0.319334 1.48846e-17)
(0.370987 -0.349665 0)
(0.349882 -0.385158 1.58606e-17)
(0.327314 -0.420933 0)
(0.28202 -0.489927 -1.69308e-17)
(0.452875 -0.0477718 9.3582e-18)
(0.453379 -0.0516725 4.75379e-18)
(0.453619 -0.0561095 -4.82488e-18)
(0.45401 -0.0608769 3.6743e-18)
(0.454373 -0.0659347 4.10097e-22)
(0.454537 -0.0712968 3.58517e-22)
(0.45449 -0.0769851 -8.95784e-18)
(0.454253 -0.0830207 2.58661e-18)
(0.453813 -0.0894272 1.58791e-17)
(0.453137 -0.0962337 -1.34594e-17)
(0.452194 -0.103474 2.74245e-18)
(0.450951 -0.111185 -1.39493e-17)
(0.449372 -0.11941 1.1366e-17)
(0.447415 -0.128199 1.15869e-17)
(0.445028 -0.137611 -5.88732e-18)
(0.442151 -0.147712 1.20648e-17)
(0.438713 -0.158581 0)
(0.434626 -0.17031 6.28555e-18)
(0.429788 -0.183007 6.46174e-18)
(0.424071 -0.1968 -1.3201e-17)
(0.417316 -0.211841 0)
(0.409328 -0.228311 -6.96484e-18)
(0.39986 -0.246426 4.80447e-21)
(0.388603 -0.266445 -1.4681e-17)
(0.375144 -0.288681 1.52044e-17)
(0.358998 -0.313511 -2.34988e-17)
(0.339416 -0.341327 0)
(0.315429 -0.373164 -1.67212e-17)
(0.287556 -0.406041 6.06064e-20)
(0.242221 -0.465102 1.81775e-17)
(0.44724 -0.0532303 4.78064e-18)
(0.447314 -0.0571236 -4.23896e-18)
(0.447105 -0.0615057 4.3051e-18)
(0.44707 -0.0661959 -1.00057e-17)
(0.447 -0.0711616 -5.08833e-18)
(0.446705 -0.0764156 -1.2915e-18)
(0.446173 -0.0819776 5.26052e-18)