/*--------------------------------*- C++ -*----------------------------------*\
  =========                 |
  \\      /  F ield         | OpenFOAM: The Open Source CFD Toolbox
   \\    /   O peration     | Website:  https://openfoam.org
    \\  /    A nd           | Version:  11
     \\/     M anipulation  |
\*---------------------------------------------------------------------------*/
FoamFile
{
    format      ascii;
    class       volVectorField;
    location    "9.5";
    object      U;
}
// * * * * * * * * * * * * * * * * * * * * * * * * * * * * * * * * * * * * * //

dimensions      [0 1 -1 0 0 0 0];

internalField   nonuniform List<vector> 
12600
(
(0.399655 0.00010433 0)
(0.399395 0.000177584 0)
(0.399002 0.00018463 0)
(0.398562 0.000183996 0)
(0.398141 0.000184295 0)
(0.397749 0.000181874 0)
(0.397382 0.00017691 0)
(0.397045 0.000170295 0)
(0.396746 0.000160826 0)
(0.396492 0.000148197 0)
(0.396295 0.000132942 0)
(0.396166 0.000116787 0)
(0.396118 9.54969e-05 0)
(0.396168 6.66669e-05 0)
(0.396338 2.42959e-05 0)
(0.396658 -2.65637e-05 0)
(0.397161 -8.22188e-05 0)
(0.397886 -0.000146412 0)
(0.39889 -0.000233078 0)
(0.400244 -0.000345551 0)
(0.402011 -0.000471107 0)
(0.404268 -0.000617232 0)
(0.407152 -0.000802417 0)
(0.410828 -0.00103649 0)
(0.41548 -0.00132946 0)
(0.421329 -0.00168692 0)
(0.428619 -0.00213467 0)
(0.437662 -0.00260648 0)
(0.448799 -0.00348684 0)
(0.464608 -0.00308638 0)
(0.400035 0.000150992 0)
(0.400179 0.000267104 0)
(0.400334 0.000243398 0)
(0.400416 0.000226376 0)
(0.400503 0.000213895 0)
(0.400615 0.000197891 0)
(0.400751 0.000175346 0)
(0.400914 0.000146528 0)
(0.401111 0.00011602 0)
(0.40135 7.87938e-05 0)
(0.401639 3.22809e-05 0)
(0.401988 -2.43633e-05 0)
(0.402409 -9.31609e-05 0)
(0.402915 -0.000174479 0)
(0.403519 -0.000270903 0)
(0.404248 -0.000387475 0)
(0.405109 -0.000531799 0)
(0.406136 -0.000712455 0)
(0.407425 -0.000934564 0)
(0.408832 -0.00120624 0)
(0.410644 -0.00154796 0)
(0.412997 -0.001978 0)
(0.415891 -0.00250822 0)
(0.41945 -0.00315776 0)
(0.423831 -0.00395504 0)
(0.429226 -0.0049293 0)
(0.435872 -0.00612898 0)
(0.4441 -0.00752355 0)
(0.454185 -0.00954258 0)
(0.466851 -0.0102556 0)
(0.400022 7.91398e-05 0)
(0.400102 0.000137073 0)
(0.400207 0.000125802 0)
(0.400296 0.000110398 0)
(0.40038 9.7089e-05 0)
(0.40048 7.78364e-05 0)
(0.400602 4.69906e-05 0)
(0.400751 4.97767e-06 0)
(0.400931 -4.78931e-05 0)
(0.401151 -0.000111053 0)
(0.401421 -0.0001849 0)
(0.401749 -0.000272236 0)
(0.402147 -0.000376328 0)
(0.402629 -0.000501368 0)
(0.403211 -0.000653496 0)
(0.403913 -0.000838445 0)
(0.404764 -0.00106226 0)
(0.405793 -0.00134088 0)
(0.407046 -0.00167237 0)
(0.408586 -0.002077 0)
(0.410467 -0.00261439 0)
(0.412745 -0.00330057 0)
(0.415524 -0.0041335 0)
(0.418945 -0.00514602 0)
(0.423165 -0.00639045 0)
(0.428386 -0.00792164 0)
(0.434805 -0.00981737 0)
(0.442868 -0.0120777 0)
(0.452484 -0.0151306 0)
(0.465731 -0.0173709 0)
(0.400014 4.81801e-05 0)
(0.40007 0.000109178 0)
(0.400157 0.000119321 0)
(0.400242 0.000108021 0)
(0.400324 8.92512e-05 0)
(0.400419 5.9374e-05 0)
(0.400536 1.77756e-05 0)
(0.40068 -3.64632e-05 0)
(0.400854 -0.000104293 0)
(0.401068 -0.000186887 0)
(0.401328 -0.000287106 0)
(0.401645 -0.000407508 0)
(0.40203 -0.000551817 0)
(0.402496 -0.000725305 0)
(0.403059 -0.00093468 0)
(0.403738 -0.00118781 0)
(0.404559 -0.00149531 0)
(0.405554 -0.00187366 0)
(0.406763 -0.00233673 0)
(0.40824 -0.0029132 0)
(0.410044 -0.00364547 0)
(0.41224 -0.00455622 0)
(0.41492 -0.005671 0)
(0.418216 -0.00704257 0)
(0.422276 -0.00873938 0)
(0.427304 -0.0108342 0)
(0.433481 -0.0134346 0)
(0.441277 -0.0165607 0)
(0.450532 -0.0207009 0)
(0.463515 -0.0243655 0)
(0.400009 3.04344e-05 0)
(0.400049 7.3405e-05 0)
(0.400119 7.78474e-05 0)
(0.400195 5.69093e-05 0)
(0.400273 2.54464e-05 0)
(0.400365 -1.67182e-05 0)
(0.400478 -7.22497e-05 0)
(0.400617 -0.000143044 0)
(0.400785 -0.00023019 0)
(0.40099 -0.000336068 0)
(0.40124 -0.000463495 0)
(0.401543 -0.000615551 0)
(0.401912 -0.00079699 0)
(0.402357 -0.00101435 0)
(0.402895 -0.00127607 0)
(0.403544 -0.00159296 0)
(0.404327 -0.00197897 0)
(0.405275 -0.00245327 0)
(0.406426 -0.00303711 0)
(0.407829 -0.00375981 0)
(0.409542 -0.0046631 0)
(0.411627 -0.00578757 0)
(0.414174 -0.00717691 0)
(0.417303 -0.00889297 0)
(0.421155 -0.0110171 0)
(0.425928 -0.0136434 0)
(0.431787 -0.0169058 0)
(0.439214 -0.020868 0)
(0.447983 -0.0260194 0)
(0.460538 -0.0311414 0)
(0.400007 1.80328e-05 0)
(0.400036 4.44649e-05 0)
(0.400094 4.48145e-05 0)
(0.400163 2.2793e-05 0)
(0.400239 -1.15485e-05 0)
(0.400327 -5.84371e-05 0)
(0.400434 -0.000122032 0)
(0.400565 -0.000204595 0)
(0.400725 -0.000307226 0)
(0.40092 -0.000432286 0)
(0.401156 -0.000583022 0)
(0.401444 -0.000763497 0)
(0.401792 -0.000979352 0)
(0.402212 -0.00123822 0)
(0.402719 -0.0015501 0)
(0.40333 -0.00192797 0)
(0.404067 -0.00238845 0)
(0.404958 -0.00295344 0)
(0.406039 -0.00364935 0)
(0.407353 -0.00451039 0)
(0.408955 -0.00558237 0)
(0.410906 -0.00691532 0)
(0.413288 -0.00856482 0)
(0.416213 -0.0106046 0)
(0.41981 -0.0131317 0)
(0.424268 -0.016262 0)
(0.429734 -0.0201547 0)
(0.436693 -0.0249192 0)
(0.444859 -0.0310406 0)
(0.456815 -0.037582 0)
(0.400005 9.05203e-06 0)
(0.400028 2.15712e-05 0)
(0.400077 1.59212e-05 0)
(0.400139 -1.02514e-05 0)
(0.40021 -5.27954e-05 0)
(0.400292 -0.000110262 0)
(0.400393 -0.000185909 0)
(0.400516 -0.00028257 0)
(0.400666 -0.000402112 0)
(0.400848 -0.000547276 0)
(0.40107 -0.000721834 0)
(0.401338 -0.000930563 0)
(0.401663 -0.00117985 0)
(0.402054 -0.00147835 0)
(0.402525 -0.00183752 0)
(0.403091 -0.00227229 0)
(0.403775 -0.0028019 0)
(0.404599 -0.00345116 0)
(0.405598 -0.00425087 0)
(0.40681 -0.0052398 0)
(0.408284 -0.00646733 0)
(0.410079 -0.00799089 0)
(0.412269 -0.00987769 0)
(0.414955 -0.0122139 0)
(0.418253 -0.0151112 0)
(0.422339 -0.0187051 0)
(0.42734 -0.023179 0)
(0.433734 -0.0286893 0)
(0.441186 -0.0357128 0)
(0.452367 -0.0436151 0)
(0.400004 1.98925e-06 0)
(0.400023 2.73573e-06 0)
(0.400064 -1.01117e-05 0)
(0.40012 -4.16604e-05 0)
(0.400186 -9.05275e-05 0)
(0.400263 -0.000155867 0)
(0.400356 -0.000240574 0)
(0.40047 -0.000348142 0)
(0.400609 -0.000481352 0)
(0.400778 -0.000643372 0)
(0.400982 -0.000838342 0)
(0.401229 -0.00107157 0)
(0.401527 -0.00135017 0)
(0.401885 -0.00168378 0)
(0.402315 -0.00208522 0)
(0.402832 -0.0025712 0)
(0.403454 -0.0031632 0)
(0.404203 -0.00388871 0)
(0.405109 -0.00478206 0)
(0.406206 -0.00588608 0)
(0.407537 -0.00725429 0)
(0.409156 -0.00895089 0)
(0.411129 -0.011053 0)
(0.413543 -0.0136577 0)
(0.416501 -0.0168899 0)
(0.420162 -0.0209036 0)
(0.424631 -0.0259047 0)
(0.430369 -0.0320962 0)
(0.436998 -0.039947 0)
(0.447217 -0.0491363 0)
(0.400004 -3.58928e-06 0)
(0.40002 -1.30939e-05 0)
(0.400055 -3.33648e-05 0)
(0.400104 -7.01523e-05 0)
(0.400164 -0.000124683 0)
(0.400235 -0.000197567 0)
(0.400321 -0.000291542 0)
(0.400426 -0.000410217 0)
(0.400553 -0.000556882 0)
(0.400706 -0.000735106 0)
(0.400891 -0.000949394 0)
(0.401114 -0.00120556 0)
(0.401382 -0.00151136 0)
(0.401703 -0.0018773 0)
(0.402089 -0.00231734 0)
(0.402551 -0.00284973 0)
(0.403105 -0.00349793 0)
(0.403772 -0.00429177 0)
(0.404575 -0.00526861 0)
(0.405545 -0.00647482 0)
(0.40672 -0.00796786 0)
(0.408145 -0.00981757 0)
(0.409877 -0.012109 0)
(0.411992 -0.0149489 0)
(0.414574 -0.0184737 0)
(0.417764 -0.022854 0)
(0.421641 -0.0283164 0)
(0.426636 -0.0351079 0)
(0.43234 -0.0436905 0)
(0.441405 -0.0540615 0)
(0.400003 -8.48904e-06 0)
(0.400017 -2.63468e-05 0)
(0.400047 -5.34575e-05 0)
(0.400091 -9.58689e-05 0)
(0.400145 -0.000156197 0)
(0.40021 -0.000236015 0)
(0.400288 -0.000338171 0)
(0.400382 -0.000466464 0)
(0.400496 -0.000624662 0)
(0.400633 -0.000816743 0)
(0.400797 -0.00104755 0)
(0.400994 -0.00132331 0)
(0.40123 -0.00165237 0)
(0.401512 -0.002046 0)
(0.401849 -0.00251918 0)
(0.402251 -0.00309147 0)
(0.402732 -0.00378794 0)
(0.403309 -0.00464044 0)
(0.404002 -0.00568879 0)
(0.404836 -0.00698236 0)
(0.405842 -0.00858203 0)
(0.407059 -0.0105623 0)
(0.408532 -0.0130146 0)
(0.410322 -0.0160533 0)
(0.412498 -0.019825 0)
(0.415175 -0.0245139 0)
(0.418409 -0.0303645 0)
(0.422582 -0.0376638 0)
(0.427269 -0.0468666 0)
(0.434986 -0.0582818 0)
(0.400003 -1.24228e-05 0)
(0.400014 -3.78839e-05 0)
(0.400041 -7.14485e-05 0)
(0.400079 -0.000119134 0)
(0.400128 -0.000184613 0)
(0.400186 -0.000270457 0)
(0.400256 -0.000379794 0)
(0.400339 -0.000516508 0)
(0.400439 -0.000684681 0)
(0.400558 -0.000888663 0)
(0.400701 -0.00113362 0)
(0.40087 -0.00142618 0)
(0.401072 -0.00177515 0)
(0.401311 -0.0021924 0)
(0.401596 -0.00269374 0)
(0.401935 -0.00329975 0)
(0.402339 -0.00403686 0)
(0.40282 -0.00493849 0)
(0.403396 -0.00604645 0)
(0.404086 -0.00741242 0)
(0.404913 -0.00910002 0)
(0.405909 -0.0111872 0)
(0.407107 -0.0137702 0)
(0.408554 -0.0169691 0)
(0.410299 -0.0209379 0)
(0.412431 -0.0258716 0)
(0.414977 -0.0320283 0)
(0.418262 -0.0397291 0)
(0.421855 -0.049421 0)
(0.428041 -0.061704 0)
(0.400002 -1.58537e-05 0)
(0.400012 -4.79058e-05 0)
(0.400035 -8.71541e-05 0)
(0.400069 -0.000139733 0)
(0.400112 -0.000209965 0)
(0.400164 -0.000301057 0)
(0.400225 -0.000416426 0)
(0.400297 -0.000560115 0)
(0.400382 -0.000736482 0)
(0.400483 -0.000950183 0)
(0.400602 -0.00120665 0)
(0.400743 -0.00151278 0)
(0.400908 -0.00187776 0)
(0.401104 -0.00231393 0)
(0.401334 -0.00283774 0)
(0.401606 -0.00347058 0)
(0.401929 -0.00423986 0)
(0.40231 -0.00518021 0)
(0.402763 -0.00633483 0)
(0.403302 -0.00775708 0)
(0.403944 -0.00951247 0)
(0.40471 -0.0116813 0)
(0.405622 -0.0143628 0)
(0.406711 -0.017681 0)
(0.408007 -0.0217943 0)
(0.409569 -0.0269045 0)
(0.411397 -0.0332791 0)
(0.413741 -0.0412647 0)
(0.416178 -0.0512976 0)
(0.420674 -0.0642342 0)
(0.400002 -1.88102e-05 0)
(0.400011 -5.65796e-05 0)
(0.400031 -0.000100917 0)
(0.40006 -0.000157923 0)
(0.400098 -0.000232255 0)
(0.400143 -0.000327632 0)
(0.400195 -0.00044781 0)
(0.400255 -0.000596998 0)
(0.400326 -0.000779727 0)
(0.400407 -0.00100087 0)
(0.400502 -0.00126607 0)
(0.400613 -0.00158245 0)
(0.400741 -0.00195945 0)
(0.40089 -0.00240979 0)
(0.401065 -0.00295033 0)
(0.401268 -0.00360301 0)
(0.401506 -0.00439591 0)
(0.401785 -0.00536442 0)
(0.402112 -0.00655261 0)
(0.402495 -0.0080148 0)
(0.402946 -0.00981754 0)
(0.403475 -0.0120423 0)
(0.404093 -0.0147896 0)
(0.404816 -0.0181848 0)
(0.405652 -0.0223882 0)
(0.40663 -0.0276042 0)
(0.407721 -0.0341032 0)
(0.409091 -0.0422478 0)
(0.410335 -0.0524583 0)
(0.413016 -0.0657985 0)
(0.400002 -2.137e-05 0)
(0.400009 -6.41283e-05 0)
(0.400027 -0.000112931 0)
(0.400053 -0.000173755 0)
(0.400085 -0.000251465 0)
(0.400123 -0.000350169 0)
(0.400166 -0.000473907 0)
(0.400214 -0.000627022 0)
(0.400269 -0.000814168 0)
(0.400332 -0.00104038 0)
(0.400402 -0.00131145 0)
(0.400481 -0.00163465 0)
(0.400572 -0.00201959 0)
(0.400674 -0.00247918 0)
(0.400791 -0.00303052 0)
(0.400924 -0.00369586 0)
(0.401075 -0.00450358 0)
(0.401249 -0.00548941 0)
(0.401447 -0.00669775 0)
(0.401674 -0.00818319 0)
(0.40193 -0.0100124 0)
(0.40222 -0.0122668 0)
(0.402541 -0.0150465 0)
(0.402893 -0.0184762 0)
(0.403266 -0.0227145 0)
(0.403656 -0.0279639 0)
(0.404005 -0.0344914 0)
(0.40439 -0.042664 0)
(0.404428 -0.0528783 0)
(0.405219 -0.0663433 0)
(0.400002 -2.35956e-05 0)
(0.400008 -7.07021e-05 0)
(0.400023 -0.000123358 0)
(0.400045 -0.000187358 0)
(0.400073 -0.000267671 0)
(0.400104 -0.000368682 0)
(0.400138 -0.000494666 0)
(0.400175 -0.00065008 0)
(0.400214 -0.000839653 0)
(0.400257 -0.00106851 0)
(0.400302 -0.00134254 0)
(0.40035 -0.00166907 0)
(0.400402 -0.00205779 0)
(0.400457 -0.00252164 0)
(0.400515 -0.00307778 0)
(0.400577 -0.0037485 0)
(0.400642 -0.00456218 0)
(0.400709 -0.00555446 0)
(0.400779 -0.00676953 0)
(0.400846 -0.00826156 0)
(0.400909 -0.0100965 0)
(0.400959 -0.0123544 0)
(0.400984 -0.0151335 0)
(0.400968 -0.0185555 0)
(0.400882 -0.0227742 0)
(0.40069 -0.0279853 0)
(0.400308 -0.0344457 0)
(0.399718 -0.0425139 0)
(0.398568 -0.0525539 0)
(0.397456 -0.0658469 0)
(0.400001 -2.55399e-05 0)
(0.400007 -7.64405e-05 0)
(0.40002 -0.000132372 0)
(0.400039 -0.000198879 0)
(0.400062 -0.000280962 0)
(0.400086 -0.000383217 0)
(0.400111 -0.000510108 0)
(0.400137 -0.000666166 0)
(0.400161 -0.000856142 0)
(0.400184 -0.00108519 0)
(0.400204 -0.00135922 0)
(0.400221 -0.00168558 0)
(0.400233 -0.00207387 0)
(0.40024 -0.00253698 0)
(0.40024 -0.00309192 0)
(0.400231 -0.00376077 0)
(0.400209 -0.00457157 0)
(0.400172 -0.00555949 0)
(0.400112 -0.00676799 0)
(0.400023 -0.00825015 0)
(0.399893 -0.0100703 0)
(0.399706 -0.0123062 0)
(0.399441 -0.0150525 0)
(0.399065 -0.0184257 0)
(0.39853 -0.022572 0)
(0.397773 -0.0276759 0)
(0.396685 -0.0339767 0)
(0.395156 -0.0418121 0)
(0.392868 -0.0515031 0)
(0.389911 -0.0643243 0)
(0.400001 -2.72547e-05 0)
(0.400006 -8.14854e-05 0)
(0.400018 -0.000140153 0)
(0.400034 -0.000208484 0)
(0.400052 -0.000291464 0)
(0.400071 -0.000393872 0)
(0.400087 -0.000520313 0)
(0.4001 -0.000675342 0)
(0.400109 -0.000863681 0)
(0.400113 -0.00109046 0)
(0.400108 -0.00136156 0)
(0.400094 -0.00168423 0)
(0.400068 -0.00206793 0)
(0.400028 -0.00252533 0)
(0.39997 -0.00307312 0)
(0.39989 -0.00373292 0)
(0.399783 -0.00453215 0)
(0.399642 -0.00550511 0)
(0.399455 -0.00669403 0)
(0.399212 -0.00815029 0)
(0.398894 -0.00993581 0)
(0.398477 -0.012125 0)
(0.397929 -0.0148078 0)
(0.397205 -0.0180934 0)
(0.396241 -0.0221175 0)
(0.394947 -0.0270496 0)
(0.393191 -0.033105 0)
(0.390783 -0.0405882 0)
(0.387436 -0.0497673 0)
(0.382765 -0.0618317 0)
(0.400001 -2.87954e-05 0)
(0.400006 -8.59941e-05 0)
(0.400016 -0.000146905 0)
(0.40003 -0.000216359 0)
(0.400044 -0.000299329 0)
(0.400056 -0.000400782 0)
(0.400064 -0.000525421 0)
(0.400067 -0.000677755 0)
(0.400061 -0.000862423 0)
(0.400045 -0.00108449 0)
(0.400016 -0.00134974 0)
(0.399971 -0.00166527 0)
(0.399908 -0.00204028 0)
(0.399821 -0.00248709 0)
(0.399707 -0.0030219 0)
(0.399558 -0.00366566 0)
(0.399368 -0.00444486 0)
(0.399125 -0.00539256 0)
(0.398816 -0.00654934 0)
(0.398423 -0.0079643 0)
(0.397923 -0.00969629 0)
(0.397285 -0.0118155 0)
(0.396467 -0.0144057 0)
(0.395412 -0.0175677 0)
(0.394043 -0.0214242 0)
(0.392247 -0.0261262 0)
(0.389875 -0.0318597 0)
(0.386669 -0.0388857 0)
(0.382371 -0.0474106 0)
(0.376188 -0.0584665 0)
(0.400001 -3.02341e-05 0)
(0.400005 -9.01483e-05 0)
(0.400015 -0.000152861 0)
(0.400027 -0.000222723 0)
(0.400038 -0.000304747 0)
(0.400044 -0.000404123 0)
(0.400044 -0.000525608 0)
(0.400036 -0.000673599 0)
(0.400016 -0.000852605 0)
(0.399981 -0.00106757 0)
(0.399929 -0.00132414 0)
(0.399854 -0.00162914 0)
(0.399754 -0.00199147 0)
(0.399623 -0.00242295 0)
(0.399454 -0.00293914 0)
(0.399239 -0.00356008 0)
(0.398968 -0.00431111 0)
(0.398627 -0.00522371 0)
(0.3982 -0.00633635 0)
(0.397664 -0.00769542 0)
(0.39699 -0.00935608 0)
(0.396141 -0.0113835 0)
(0.395068 -0.0138546 0)
(0.393704 -0.0168603 0)
(0.391959 -0.020509 0)
(0.389705 -0.0249304 0)
(0.38678 -0.0302777 0)
(0.382873 -0.0367602 0)
(0.377758 -0.0445169 0)
(0.370322 -0.0543637 0)
(0.400001 -3.16534e-05 0)
(0.400005 -9.41829e-05 0)
(0.400015 -0.000158298 0)
(0.400025 -0.000227814 0)
(0.400033 -0.000307927 0)
(0.400035 -0.000404126 0)
(0.400027 -0.000521144 0)
(0.400008 -0.000663174 0)
(0.399975 -0.000834549 0)
(0.399922 -0.00104009 0)
(0.399847 -0.00128522 0)
(0.399745 -0.00157647 0)
(0.39961 -0.00192228 0)
(0.399435 -0.00233389 0)
(0.399214 -0.00282605 0)
(0.398935 -0.00341773 0)
(0.398587 -0.00413284 0)
(0.398153 -0.00500097 0)
(0.397614 -0.0060582 0)
(0.396942 -0.00734772 0)
(0.396105 -0.00892053 0)
(0.395059 -0.0108363 0)
(0.393748 -0.0131643 0)
(0.392098 -0.015985 0)
(0.390012 -0.0193913 0)
(0.387348 -0.0234906 0)
(0.383937 -0.0284013 0)
(0.379441 -0.0342761 0)
(0.373658 -0.0411852 0)
(0.365271 -0.0496877 0)
(0.400001 -3.31765e-05 0)
(0.400006 -9.83964e-05 0)
(0.400016 -0.000163543 0)
(0.400026 -0.000231893 0)
(0.400032 -0.000309113 0)
(0.400028 -0.000401057 0)
(0.400014 -0.000512304 0)
(0.399985 -0.000646789 0)
(0.399939 -0.000808669 0)
(0.39987 -0.00100257 0)
(0.399773 -0.00123363 0)
(0.399644 -0.001508 0)
(0.399476 -0.00183363 0)
(0.399261 -0.00222108 0)
(0.39899 -0.00268416 0)
(0.398651 -0.00324054 0)
(0.398231 -0.0039125 0)
(0.397709 -0.00472751 0)
(0.397065 -0.00571888 0)
(0.396266 -0.00692629 0)
(0.395277 -0.00839623 0)
(0.394049 -0.0101824 0)
(0.39252 -0.0123462 0)
(0.39061 -0.0149572 0)
(0.388218 -0.0180927 0)
(0.385196 -0.0218376 0)
(0.381373 -0.0262761 0)
(0.376402 -0.0315033 0)
(0.370111 -0.0375234 0)
(0.361092 -0.0446203 0)
(0.400001 -3.49739e-05 0)
(0.400007 -0.000103202 0)
(0.400018 -0.000169005 0)
(0.400029 -0.000235236 0)
(0.400033 -0.00030847 0)
(0.400025 -0.000395114 0)
(0.400004 -0.000499463 0)
(0.399967 -0.000624982 0)
(0.399909 -0.000775594 0)
(0.399824 -0.000955734 0)
(0.399708 -0.0011702 0)
(0.399553 -0.00142468 0)
(0.399354 -0.0017266 0)
(0.399101 -0.00208575 0)
(0.398784 -0.00251483 0)
(0.39839 -0.00303014 0)
(0.397902 -0.00365208 0)
(0.3973 -0.00440579 0)
(0.396558 -0.0053216 0)
(0.395643 -0.00643543 0)
(0.394514 -0.00778897 0)
(0.393119 -0.00942979 0)
(0.391393 -0.0114113 0)
(0.389252 -0.0137922 0)
(0.386592 -0.016635 0)
(0.383263 -0.020003 0)
(0.379102 -0.0239486 0)
(0.37377 -0.0285124 0)
(0.367126 -0.0336408 0)
(0.35779 -0.0393472 0)
(0.400002 -3.73061e-05 0)
(0.400009 -0.000109163 0)
(0.400024 -0.000175166 0)
(0.400036 -0.000238171 0)
(0.400038 -0.000306362 0)
(0.400027 -0.000386678 0)
(0.4 -0.000482886 0)
(0.399955 -0.000597964 0)
(0.399886 -0.000735674 0)
(0.399787 -0.000900254 0)
(0.399652 -0.00109605 0)
(0.399475 -0.00132823 0)
(0.399247 -0.00160361 0)
(0.398959 -0.00193108 0)
(0.3986 -0.00232214 0)
(0.398155 -0.0027915 0)
(0.397605 -0.00335757 0)
(0.396929 -0.00404293 0)
(0.396099 -0.00487471 0)
(0.395078 -0.00588481 0)
(0.393823 -0.00710999 0)
(0.392279 -0.00859161 0)
(0.390378 -0.0103752 0)
(0.388034 -0.0125093 0)
(0.385142 -0.0150425 0)
(0.381558 -0.0180191 0)
(0.377127 -0.0214646 0)
(0.371541 -0.0253712 0)
(0.364688 -0.0296399 0)
(0.355317 -0.0340423 0)
(0.400002 -4.062e-05 0)
(0.400013 -0.000117056 0)
(0.400032 -0.000182387 0)
(0.400047 -0.000240947 0)
(0.400049 -0.000303397 0)
(0.400034 -0.00037654 0)
(0.400003 -0.000463161 0)
(0.39995 -0.000565974 0)
(0.399871 -0.00068873 0)
(0.399759 -0.000835399 0)
(0.399608 -0.00100978 0)
(0.39941 -0.00121647 0)
(0.399157 -0.00146169 0)
(0.398837 -0.00175342 0)
(0.39844 -0.00210186 0)
(0.397949 -0.00252006 0)
(0.397344 -0.00302432 0)
(0.396602 -0.00363451 0)
(0.395692 -0.00437441 0)
(0.394577 -0.00527184 0)
(0.393211 -0.00635852 0)
(0.391536 -0.00766971 0)
(0.389482 -0.00924338 0)
(0.386964 -0.0111185 0)
(0.383876 -0.0133316 0)
(0.380083 -0.0159113 0)
(0.375446 -0.0188626 0)
(0.369697 -0.022138 0)
(0.362756 -0.0256092 0)
(0.353577 -0.0288535 0)
(0.400004 -4.56718e-05 0)
(0.40002 -0.000128171 0)
(0.400046 -0.000190989 0)
(0.400065 -0.000243181 0)
(0.400065 -0.000299328 0)
(0.400048 -0.000365381 0)
(0.400013 -0.000442599 0)
(0.399955 -0.000533285 0)
(0.399867 -0.000641039 0)
(0.399744 -0.000769482 0)
(0.399578 -0.000921811 0)
(0.399362 -0.00110214 0)
(0.399086 -0.00131594 0)
(0.398739 -0.00156999 0)
(0.398308 -0.00187315 0)
(0.397776 -0.00223676 0)
(0.397123 -0.00267484 0)
(0.396323 -0.00320442 0)
(0.395345 -0.00384579 0)
(0.394148 -0.00462254 0)
(0.392685 -0.00556138 0)
(0.390897 -0.0066916 0)
(0.388713 -0.0080442 0)
(0.386046 -0.00964959 0)
(0.382797 -0.0115338 0)
(0.378837 -0.0137138 0)
(0.374046 -0.0161827 0)
(0.368207 -0.0188641 0)
(0.361272 -0.02162 0)
(0.352453 -0.0238947 0)
(0.400006 -5.37571e-05 0)
(0.400031 -0.000144661 0)
(0.400068 -0.000202492 0)
(0.400091 -0.000244951 0)
(0.40009 -0.000291053 0)
(0.400071 -0.000345802 0)
(0.400032 -0.000409608 0)
(0.399969 -0.000484626 0)
(0.399874 -0.000574151 0)
(0.399741 -0.000681131 0)
(0.399563 -0.000807624 0)
(0.399331 -0.00095766 0)
(0.399036 -0.00113632 0)
(0.398666 -0.00134909 0)
(0.398206 -0.00160321 0)
(0.39764 -0.00190819 0)
(0.396946 -0.00227574 0)
(0.396096 -0.00271998 0)
(0.395059 -0.00325762 0)
(0.393794 -0.00390799 0)
(0.39225 -0.00469279 0)
(0.390368 -0.00563555 0)
(0.388076 -0.00676084 0)
(0.38529 -0.00809166 0)
(0.381911 -0.00964567 0)
(0.377823 -0.0114314 0)
(0.372924 -0.0134391 0)
(0.36706 -0.0155723 0)
(0.360215 -0.0177125 0)
(0.351884 -0.0192381 0)
(0.40001 -6.66212e-05 0)
(0.400051 -0.000167071 0)
(0.400104 -0.000221424 0)
(0.400132 -0.000260899 0)
(0.400131 -0.000303303 0)
(0.400109 -0.000350475 0)
(0.400068 -0.000403164 0)
(0.400001 -0.000464086 0)
(0.3999 -0.000536397 0)
(0.399759 -0.000623298 0)
(0.399572 -0.000725209 0)
(0.399327 -0.000844953 0)
(0.399016 -0.000987302 0)
(0.398626 -0.00115696 0)
(0.398143 -0.00135976 0)
(0.397549 -0.00160316 0)
(0.396822 -0.00189639 0)
(0.395934 -0.00225059 0)
(0.394851 -0.00267889 0)
(0.393531 -0.00319635 0)
(0.391925 -0.00381979 0)
(0.389971 -0.00456727 0)
(0.3876 -0.00545736 0)
(0.384729 -0.00650628 0)
(0.381265 -0.00772611 0)
(0.377103 -0.00912505 0)
(0.372175 -0.0107022 0)
(0.366379 -0.0123362 0)
(0.359733 -0.0139534 0)
(0.351962 -0.014926 0)
(0.400018 -9.26139e-05 0)
(0.400082 -0.000178177 0)
(0.400151 -0.000204342 0)
(0.400183 -0.000229457 0)
(0.400182 -0.00026217 0)
(0.400161 -0.000297709 0)
(0.400119 -0.000336473 0)
(0.400049 -0.00038145 0)
(0.399943 -0.000434498 0)
(0.399796 -0.000496701 0)
(0.399602 -0.00057133 0)
(0.399348 -0.00066059 0)
(0.399025 -0.000766166 0)
(0.398621 -0.000891642 0)
(0.398121 -0.00104186 0)
(0.397507 -0.00122246 0)
(0.396756 -0.00144018 0)
(0.39584 -0.00170303 0)
(0.394725 -0.00202041 0)
(0.39337 -0.0024031 0)
(0.391724 -0.00286308 0)
(0.38973 -0.00341348 0)
(0.387321 -0.0040682 0)
(0.384421 -0.00483739 0)
(0.380949 -0.00572672 0)
(0.376818 -0.00675306 0)
(0.37199 -0.00794844 0)
(0.366315 -0.00916853 0)
(0.359907 -0.0103659 0)
(0.35227 -0.0108017 0)
(0.400027 -0.000159077 0)
(0.40018 -0.000304687 0)
(0.400269 -0.000295082 0)
(0.400269 -0.000301711 0)
(0.400248 -0.000320608 0)
(0.40021 -0.00034204 0)
(0.400148 -0.000365494 0)
(0.400053 -0.000392111 0)
(0.399921 -0.000425336 0)
(0.399744 -0.000469404 0)
(0.399516 -0.000511452 0)
(0.399226 -0.000563614 0)
(0.398865 -0.000629284 0)
(0.398418 -0.00070813 0)
(0.39787 -0.000803255 0)
(0.397201 -0.000918435 0)
(0.396387 -0.00105816 0)
(0.395399 -0.00122782 0)
(0.394205 -0.00143368 0)
(0.392761 -0.00168291 0)
(0.391021 -0.00198364 0)
(0.388928 -0.00234491 0)
(0.386416 -0.00277629 0)
(0.38341 -0.00328586 0)
(0.379831 -0.00387775 0)
(0.375591 -0.00455329 0)
(0.370553 -0.00531084 0)
(0.364269 -0.00604782 0)
(0.357403 -0.00685806 0)
(0.348016 -0.00641031 0)
(0.399648 -0.000109918 0)
(0.399361 -0.000185702 0)
(0.398917 -0.000200835 0)
(0.3984 -0.000208855 0)
(0.397864 -0.000218792 0)
(0.397312 -0.000228373 0)
(0.396733 -0.000238029 0)
(0.396119 -0.0002491 0)
(0.395464 -0.000261411 0)
(0.39476 -0.000274453 0)
(0.393998 -0.000291855 0)
(0.39317 -0.000314004 0)
(0.392263 -0.000339394 0)
(0.391258 -0.000368791 0)
(0.390136 -0.000403875 0)
(0.388874 -0.000446325 0)
(0.387439 -0.000497979 0)
(0.385796 -0.000561038 0)
(0.383898 -0.000638153 0)
(0.381691 -0.00073246 0)
(0.379109 -0.00084761 0)
(0.376072 -0.00098756 0)
(0.37249 -0.00115617 0)
(0.368257 -0.00135852 0)
(0.36326 -0.00159922 0)
(0.357388 -0.00186578 0)
(0.350573 -0.00212848 0)
(0.342778 -0.00234959 0)
(0.334217 -0.00268711 0)
(0.321379 -0.00207287 0)
(0.470353 -0.00697934 7.13439e-21)
(0.47626 -0.0106696 -1.8338e-17)
(0.481623 -0.0149829 1.8461e-17)
(0.485988 -0.0197792 9.29895e-18)
(0.4898 -0.0249848 7.03497e-18)
(0.493316 -0.0305746 1.42071e-17)
(0.496607 -0.0365768 7.1614e-18)
(0.499721 -0.0430453 1.93049e-17)
(0.50272 -0.0500272 9.75809e-18)
(0.505647 -0.0575563 4.91983e-18)
(0.508511 -0.0656621 -4.98042e-18)
(0.5113 -0.0743794 1.00505e-17)
(0.513997 -0.083753 5.10573e-18)
(0.516587 -0.09384 5.15416e-18)
(0.519066 -0.104711 1.04212e-17)
(0.521432 -0.116455 5.28906e-18)
(0.523688 -0.129179 1.60002e-17)
(0.525841 -0.143012 0)
(0.527897 -0.158118 0)
(0.529864 -0.174694 5.50041e-18)
(0.531757 -0.192991 -2.64019e-20)
(0.533589 -0.213327 5.64758e-18)
(0.535389 -0.236094 0)
(0.537146 -0.261845 1.14236e-17)
(0.539033 -0.291117 5.73518e-18)
(0.540482 -0.325331 -5.8262e-18)
(0.543779 -0.363283 5.78093e-18)
(0.540674 -0.41688 5.80351e-18)
(0.555943 -0.450148 1.71231e-17)
(0.52097 -0.577324 -5.5439e-18)
(0.476204 -0.0151114 -9.20673e-18)
(0.479975 -0.0189958 1.04387e-17)
(0.483139 -0.0236888 -1.05346e-17)
(0.485758 -0.0287832 0)
(0.488208 -0.0341896 -9.56568e-18)
(0.490665 -0.0399528 -9.6521e-18)
(0.493127 -0.0461415 -2.43895e-18)
(0.495571 -0.052799 -1.72668e-17)
(0.497986 -0.0599456 -9.9666e-18)
(0.500351 -0.0675991 -1.01005e-17)
(0.502629 -0.0757882 5.09884e-18)
(0.504786 -0.0845546 -5.16723e-18)
(0.506801 -0.0939513 -1.04353e-17)
(0.508662 -0.104042 -1.05631e-17)
(0.510363 -0.114901 -1.06951e-17)
(0.511897 -0.126618 -1.08311e-17)
(0.513254 -0.1393 -2.19865e-17)
(0.514425 -0.153077 5.56133e-18)
(0.515393 -0.168108 -5.65122e-18)
(0.516143 -0.18459 -1.71736e-17)
(0.516653 -0.202768 2.40983e-20)
(0.516896 -0.222947 -4.21176e-20)
(0.516841 -0.24551 -3.58311e-20)
(0.516418 -0.27097 -1.80869e-17)
(0.515639 -0.299862 -1.21903e-17)
(0.514032 -0.333397 -6.0718e-18)
(0.512941 -0.370987 1.01017e-19)
(0.50603 -0.421117 -1.05734e-19)
(0.513945 -0.457878 -1.84288e-17)
(0.47379 -0.574507 0)
(0.473836 -0.0226574 0)
(0.476414 -0.0265236 0)
(0.478725 -0.0312106 0)
(0.480951 -0.0363385 -1.20716e-18)
(0.483198 -0.0418086 1.09839e-17)
(0.485457 -0.047646 -2.46743e-18)
(0.487667 -0.0538873 2.49816e-18)
(0.489781 -0.0605527 1.00934e-17)
(0.491775 -0.0676629 -2.5538e-18)
(0.493631 -0.0752517 1.29229e-17)
(0.495332 -0.0833641 5.23386e-18)
(0.496867 -0.0920505 -5.30811e-18)
(0.498227 -0.101366 5.37009e-18)
(0.499403 -0.111372 -5.45064e-18)
(0.500379 -0.122141 -1.10642e-17)
(0.501136 -0.133761 1.12217e-17)
(0.501648 -0.146336 1.13367e-17)
(0.501886 -0.159994 0)
(0.501816 -0.174892 0)
(0.501395 -0.19122 1.18401e-17)
(0.500571 -0.209215 0)
(0.499274 -0.229168 1.83648e-17)
(0.497417 -0.251445 6.22056e-18)
(0.494869 -0.276519 1.25385e-17)
(0.491515 -0.30492 1.9057e-17)
(0.486895 -0.337652 6.51292e-18)
(0.48169 -0.374594 0)
(0.471138 -0.421677 2.63382e-17)
(0.470899 -0.461096 0)
(0.42753 -0.566399 1.31736e-17)
(0.471257 -0.0304498 0)
(0.47335 -0.0344933 0)
(0.475222 -0.0392688 0)
(0.477122 -0.044437 -9.87218e-18)
(0.479007 -0.0499199 0)
(0.480795 -0.0557456 0)
(0.482451 -0.061955 0)
(0.483971 -0.0685782 1.03594e-17)
(0.48535 -0.075645 0)
(0.486582 -0.0831913 0)
(0.487652 -0.0912572 0)
(0.488543 -0.099886 -1.09283e-17)
(0.489234 -0.109127 -1.10854e-17)
(0.489702 -0.11904 -5.61021e-18)
(0.489917 -0.129696 -3.66429e-20)
(0.489848 -0.141183 -1.15395e-17)
(0.489458 -0.153602 9.78501e-21)
(0.488702 -0.167079 1.79528e-17)
(0.487527 -0.181762 6.06416e-18)
(0.485868 -0.197834 -6.18043e-18)
(0.48364 -0.215517 -6.26992e-18)
(0.480737 -0.235082 -6.33434e-18)
(0.47702 -0.25687 -6.48734e-18)
(0.472305 -0.281306 1.99301e-17)
(0.466366 -0.30889 0)
(0.458755 -0.340436 -2.05922e-17)
(0.449624 -0.376102 -7.00164e-18)
(0.435481 -0.420099 2.42584e-19)
(0.427488 -0.460029 -2.16334e-17)
(0.382032 -0.553928 5.26642e-19)
(0.467766 -0.0378531 0)
(0.469351 -0.0419417 9.84626e-18)
(0.470693 -0.0466919 -1.24429e-18)
(0.472123 -0.0518245 2.14217e-17)
(0.473538 -0.057285 0)
(0.474821 -0.0630973 0)
(0.475954 -0.0692924 1.04833e-17)
(0.476949 -0.0758932 -1.05988e-17)
(0.477797 -0.082923 0)
(0.478476 -0.0904127 0)
(0.478961 -0.0983994 0)
(0.479228 -0.106927 1.12161e-17)
(0.479251 -0.116046 1.13873e-17)
(0.478998 -0.125817 -5.79074e-18)
(0.478437 -0.136311 1.76442e-17)
(0.477526 -0.147611 0)
(0.476218 -0.159815 1.22118e-17)
(0.474454 -0.173041 -1.86039e-17)
(0.472163 -0.187426 -6.3173e-18)
(0.469254 -0.203141 0)
(0.465617 -0.22039 0)
(0.461111 -0.239422 0)
(0.455553 -0.260542 0)
(0.448708 -0.284126 -6.92205e-18)
(0.440269 -0.310626 -7.13869e-18)
(0.42978 -0.340694 7.22141e-18)
(0.416987 -0.374654 7.47771e-18)
(0.399416 -0.415397 -1.5117e-17)
(0.38425 -0.454529 1.54955e-17)
(0.337441 -0.537353 -1.55768e-17)
(0.463459 -0.0448732 -9.9285e-18)
(0.464573 -0.049011 -9.40959e-18)
(0.465428 -0.0537683 -1.90781e-18)
(0.466418 -0.0588971 -7.72197e-18)
(0.467395 -0.0643474 -8.8531e-22)
(0.468209 -0.0701344 -3.97019e-18)
(0.468843 -0.0762829 2.92638e-20)
(0.469315 -0.0828148 -1.09053e-17)
(0.469614 -0.0897555 -8.30541e-18)
(0.469712 -0.0971376 1.12388e-17)
(0.469581 -0.104999 0)
(0.469194 -0.113384 1.4495e-17)
(0.468523 -0.122341 -1.47391e-17)
(0.467532 -0.131926 -1.19988e-17)
(0.466177 -0.142206 1.83025e-17)
(0.464409 -0.153258 -1.86435e-17)
(0.462168 -0.165173 -6.29197e-18)
(0.459379 -0.178059 -6.51863e-18)
(0.455955 -0.192044 -6.57034e-18)
(0.451786 -0.207281 2.01863e-17)
(0.446736 -0.223954 0)
(0.440634 -0.242283 7.00747e-18)
(0.433261 -0.262534 -1.43599e-17)
(0.424342 -0.285032 1.48113e-17)
(0.413502 -0.310166 7.56255e-18)
(0.400275 -0.338446 1.56121e-17)
(0.384111 -0.370261 0)
(0.363322 -0.407503 1.65934e-17)
(0.341755 -0.444678 0)
(0.294438 -0.516788 -1.76547e-17)
(0.458347 -0.0514327 1.01205e-17)
(0.459003 -0.0555956 5.13806e-18)
(0.45938 -0.0603315 -5.2101e-18)
(0.459922 -0.065418 3.96416e-18)
(0.460448 -0.0708118 6.95131e-22)
(0.460779 -0.0765275 6.39305e-22)
(0.460902 -0.0825888 -9.62776e-18)
(0.460841 -0.0890179 2.77332e-18)
(0.460585 -0.09584 1.7033e-17)
(0.4601 -0.103086 -1.44217e-17)
(0.459355 -0.110791 2.93579e-18)
(0.45832 -0.118994 -1.49144e-17)
(0.456958 -0.127742 1.2138e-17)
(0.455228 -0.137086 1.23602e-17)
(0.453079 -0.147089 -6.26744e-18)
(0.45045 -0.15782 1.28413e-17)
(0.447273 -0.169363 0)
(0.44346 -0.181816 6.67272e-18)
(0.438909 -0.195292 6.85974e-18)
(0.433493 -0.209926 -1.39872e-17)
(0.427055 -0.225877 0)
(0.419399 -0.243334 -7.36605e-18)
(0.410277 -0.262522 1.04738e-20)
(0.39938 -0.283707 -1.54796e-17)
(0.386289 -0.307212 1.60378e-17)
(0.37052 -0.333421 -2.47539e-17)
(0.351326 -0.362708 0)
(0.327608 -0.396229 -1.75577e-17)
(0.300545 -0.430525 8.92866e-20)
(0.253381 -0.492409 1.91032e-17)
(0.452447 -0.0574269 5.18095e-18)
(0.452656 -0.0615912 -4.58764e-18)
(0.452566 -0.0662804 4.65508e-18)
(0.452664 -0.0712981 -1.08121e-17)
(0.452741 -0.0766086 -5.49469e-18)
(0.452596 -0.0822258 -1.39278e-18)
(0.452216 -0.0881709 5.67019e-18)
(0.451629 -0.0944644 1.29468e-17)