/*--------------------------------*- C++ -*----------------------------------*\
  =========                 |
  \\      /  F ield         | OpenFOAM: The Open Source CFD Toolbox
   \\    /   O peration     | Website:  https://openfoam.org
    \\  /    A nd           | Version:  11
     \\/     M anipulation  |
\*---------------------------------------------------------------------------*/
FoamFile
{
    format      ascii;
    class       surfaceScalarField;
    location    "2.8";
    object      phi;
}
// * * * * * * * * * * * * * * * * * * * * * * * * * * * * * * * * * * * * * //

dimensions      [0 3 -1 0 0 0 0];

internalField   nonuniform List<scalar> 
24840
(
1.57972e-05
1.37977e-08
1.57785e-05
1.86583e-08
1.5761e-05
1.74719e-08
1.57437e-05
1.73724e-08
1.5726e-05
1.76581e-08
1.57083e-05
1.77256e-08
1.56906e-05
1.76648e-08
1.5673e-05
1.75682e-08
1.56556e-05
1.74394e-08
1.56383e-05
1.72676e-08
1.56213e-05
1.70458e-08
1.56045e-05
1.67657e-08
1.55881e-05
1.64116e-08
1.55722e-05
1.59608e-08
1.55568e-05
1.53925e-08
1.55421e-05
1.4679e-08
1.55283e-05
1.37987e-08
1.55155e-05
1.27458e-08
1.55041e-05
1.14593e-08
1.54943e-05
9.8189e-09
1.54865e-05
7.72997e-09
1.54813e-05
5.20432e-09
1.54792e-05
2.10305e-09
1.54811e-05
-1.8683e-09
1.5488e-05
-6.94843e-09
1.55014e-05
-1.33144e-08
1.55233e-05
-2.19529e-08
1.55565e-05
-3.31963e-08
1.56104e-05
-5.38561e-08
-1.24759e-07
1.57351e-05
1.58171e-05
7.71139e-09
1.58206e-05
1.51195e-08
1.5823e-05
1.50585e-08
1.5825e-05
1.53281e-08
1.5827e-05
1.57406e-08
1.58289e-05
1.58202e-08
1.58308e-05
1.57128e-08
1.58329e-05
1.5539e-08
1.5835e-05
1.52969e-08
1.58373e-05
1.49731e-08
1.58398e-05
1.45541e-08
1.58425e-05
1.40234e-08
1.58456e-05
1.33496e-08
1.58491e-05
1.24872e-08
1.58531e-05
1.14017e-08
1.58577e-05
1.00397e-08
1.58631e-05
8.37458e-09
1.58695e-05
6.36932e-09
1.5877e-05
3.92998e-09
1.5886e-05
8.80056e-10
1.58967e-05
-3.01373e-09
1.59096e-05
-7.70919e-09
1.59253e-05
-1.35373e-08
1.59443e-05
-2.08726e-08
1.59673e-05
-2.99776e-08
1.59957e-05
-4.17546e-08
1.60298e-05
-5.60501e-08
1.60739e-05
-7.72829e-08
1.61212e-05
-1.01178e-07
-1.32028e-07
1.61285e-05
1.58136e-05
5.06517e-09
1.58169e-05
1.1843e-08
1.58188e-05
1.31089e-08
1.58208e-05
1.33197e-08
1.58228e-05
1.37713e-08
1.58247e-05
1.38981e-08
1.58267e-05
1.3737e-08
1.58288e-05
1.34552e-08
1.5831e-05
1.30862e-08
1.58334e-05
1.26239e-08
1.58359e-05
1.20404e-08
1.58386e-05
1.13058e-08
1.58416e-05
1.03739e-08
1.58449e-05
9.17058e-09
1.58487e-05
7.6206e-09
1.5853e-05
5.68737e-09
1.58581e-05
3.29381e-09
1.58641e-05
3.65424e-10
1.58712e-05
-3.13572e-09
1.58796e-05
-7.53489e-09
1.58896e-05
-1.29905e-08
1.59015e-05
-1.96794e-08
1.5916e-05
-2.79802e-08
1.59335e-05
-3.83797e-08
1.59549e-05
-5.13779e-08
1.5981e-05
-6.78971e-08
1.60136e-05
-8.86107e-08
1.60514e-05
-1.15116e-07
1.60987e-05
-1.48499e-07
-1.76575e-07
1.61433e-05
1.58125e-05
3.55547e-09
1.58152e-05
9.14921e-09
1.58171e-05
1.11773e-08
1.58188e-05
1.15785e-08
1.58207e-05
1.1937e-08
1.58225e-05
1.20391e-08
1.58244e-05
1.183e-08
1.58265e-05
1.14396e-08
1.58286e-05
1.09385e-08
1.58309e-05
1.03361e-08
1.58333e-05
9.59077e-09
1.5836e-05
8.65761e-09
1.58389e-05
7.46629e-09
1.58422e-05
5.91928e-09
1.58459e-05
3.91801e-09
1.58501e-05
1.47055e-09
1.5855e-05
-1.64589e-09
1.58608e-05
-5.41724e-09
1.58677e-05
-9.99806e-09
1.58758e-05
-1.56493e-08
1.58854e-05
-2.26184e-08
1.58969e-05
-3.12067e-08
1.59108e-05
-4.18655e-08
1.59276e-05
-5.51948e-08
1.59481e-05
-7.18895e-08
1.59732e-05
-9.29185e-08
1.60039e-05
-1.19332e-07
1.60407e-05
-1.51945e-07
1.60866e-05
-1.94345e-07
-2.31497e-07
1.61415e-05
1.58119e-05
2.62862e-09
1.58139e-05
7.16063e-09
1.58157e-05
9.39417e-09
1.58172e-05
1.00062e-08
1.58189e-05
1.02369e-08
1.58207e-05
1.02491e-08
1.58226e-05
9.96846e-09
1.58246e-05
9.47001e-09
1.58267e-05
8.84216e-09
1.58289e-05
8.10407e-09
1.58313e-05
7.20634e-09
1.58338e-05
6.08527e-09
1.58367e-05
4.64474e-09
1.58398e-05
2.76063e-09
1.58434e-05
3.14121e-10
1.58475e-05
-2.64315e-09
1.58523e-05
-6.40593e-09
1.58579e-05
-1.09812e-08
1.58644e-05
-1.6553e-08
1.58722e-05
-2.33899e-08
1.58813e-05
-3.18019e-08
1.58923e-05
-4.21784e-08
1.59055e-05
-5.50565e-08
1.59215e-05
-7.11381e-08
1.59408e-05
-9.12747e-08
1.59644e-05
-1.16529e-07
1.59934e-05
-1.48252e-07
1.60287e-05
-1.87242e-07
1.60722e-05
-2.37916e-07
-2.87399e-07
1.61281e-05
1.58116e-05
2.01984e-09
1.58131e-05
5.66511e-09
1.58147e-05
7.79123e-09
1.58162e-05
8.50751e-09
1.58178e-05
8.6449e-09
1.58195e-05
8.53491e-09
1.58213e-05
8.15856e-09
1.58232e-05
7.55548e-09
1.58252e-05
6.80742e-09
1.58274e-05
5.93563e-09
1.58297e-05
4.88659e-09
1.58322e-05
3.57573e-09
1.5835e-05
1.90612e-09
1.5838e-05
-2.83201e-10
1.58414e-05
-3.09538e-09
1.58454e-05
-6.57963e-09
1.58499e-05
-1.09409e-08
1.58552e-05
-1.62714e-08
1.58614e-05
-2.27623e-08
1.58687e-05
-3.07042e-08
1.58774e-05
-4.04567e-08
1.58877e-05
-5.24835e-08
1.59e-05
-6.74032e-08
1.59149e-05
-8.60144e-08
1.59329e-05
-1.09306e-07
1.59549e-05
-1.38473e-07
1.59817e-05
-1.75112e-07
1.60148e-05
-2.20279e-07
1.60556e-05
-2.78752e-07
-3.40886e-07
1.61091e-05
1.58114e-05
1.58563e-09
1.58126e-05
4.50859e-09
1.5814e-05
6.38614e-09
1.58154e-05
7.10093e-09
1.58169e-05
7.1596e-09
1.58185e-05
6.91502e-09
1.58202e-05
6.42128e-09
1.58221e-05
5.70953e-09
1.5824e-05
4.84497e-09
1.58261e-05
3.84734e-09
1.58283e-05
2.65783e-09
1.58307e-05
1.17014e-09
1.58334e-05
-7.23169e-10
1.58363e-05
-3.19359e-09
1.58395e-05
-6.35677e-09
1.58433e-05
-1.03093e-08
1.58476e-05
-1.52243e-08
1.58525e-05
-2.12423e-08
1.58583e-05
-2.85698e-08
1.58651e-05
-3.75171e-08
1.58732e-05
-4.84882e-08
1.58827e-05
-6.20099e-08
1.58941e-05
-7.87747e-08
1.59077e-05
-9.96684e-08
1.59242e-05
-1.25798e-07
1.59443e-05
-1.58503e-07
1.59687e-05
-1.99588e-07
1.5999e-05
-2.50499e-07
1.60363e-05
-3.16123e-07
-3.90133e-07
1.60856e-05
1.58113e-05
1.2545e-09
1.58122e-05
3.58721e-09
1.58134e-05
5.1631e-09
1.58148e-05
5.79121e-09
1.58162e-05
5.75917e-09
1.58177e-05
5.37751e-09
1.58194e-05
4.75473e-09
1.58211e-05
3.93079e-09
1.5823e-05
2.95388e-09
1.5825e-05
1.83605e-09
1.58272e-05
5.14155e-10
1.58295e-05
-1.13088e-09
1.5832e-05
-3.22932e-09
1.58347e-05
-5.95095e-09
1.58378e-05
-9.43548e-09
1.58413e-05
-1.38039e-08
1.58453e-05
-1.92212e-08
1.58499e-05
-2.58546e-08
1.58553e-05
-3.39287e-08
1.58615e-05
-4.37725e-08
1.58689e-05
-5.58267e-08
1.58775e-05
-7.06698e-08
1.58878e-05
-8.9057e-08
1.59001e-05
-1.11951e-07
1.59149e-05
-1.40563e-07
1.59327e-05
-1.76368e-07
1.59545e-05
-2.21353e-07
1.59814e-05
-2.77377e-07
1.60146e-05
-3.49313e-07
-4.34018e-07
1.60585e-05
1.58112e-05
9.88652e-10
1.5812e-05
2.82875e-09
1.58131e-05
4.09126e-09
1.58143e-05
4.57516e-09
1.58156e-05
4.43359e-09
1.58171e-05
3.91796e-09
1.58187e-05
3.16414e-09
1.58204e-05
2.22698e-09
1.58222e-05
1.14361e-09
1.58241e-05
-8.52513e-11
1.58261e-05
-1.52864e-09
1.58283e-05
-3.31476e-09
1.58307e-05
-5.59434e-09
1.58333e-05
-8.54038e-09
1.58361e-05
-1.23103e-08
1.58394e-05
-1.70425e-08
1.58431e-05
-2.29018e-08
1.58473e-05
-3.00722e-08
1.58521e-05
-3.8795e-08
1.58578e-05
-4.94155e-08
1.58644e-05
-6.24034e-08
1.58721e-05
-7.83786e-08
1.58812e-05
-9.81477e-08
1.5892e-05
-1.22737e-07
1.59048e-05
-1.53441e-07
1.59203e-05
-1.91855e-07
1.59391e-05
-2.40114e-07
1.59622e-05
-3.00463e-07
1.59905e-05
-3.77673e-07
-4.71619e-07
1.60281e-05
1.58112e-05
7.6605e-10
1.58118e-05
2.18378e-09
1.58128e-05
3.13963e-09
1.58139e-05
3.44577e-09
1.58152e-05
3.17733e-09
1.58166e-05
2.53078e-09
1.58181e-05
1.6491e-09
1.58197e-05
6.00509e-10
1.58214e-05
-5.83405e-10
1.58233e-05
-1.91306e-09
1.58252e-05
-3.46478e-09
1.58273e-05
-5.37563e-09
1.58295e-05
-7.81123e-09
1.58319e-05
-1.09516e-08
1.58345e-05
-1.4966e-08
1.58375e-05
-2.0007e-08
1.58408e-05
-2.62423e-08
1.58446e-05
-3.38666e-08
1.5849e-05
-4.31341e-08
1.5854e-05
-5.44035e-08
1.58597e-05
-6.81658e-08
1.58664e-05
-8.50719e-08
1.58742e-05
-1.05966e-07
1.58834e-05
-1.31923e-07
1.58943e-05
-1.64298e-07
1.59072e-05
-2.04779e-07
1.59227e-05
-2.55613e-07
1.59416e-05
-3.19368e-07
1.59646e-05
-4.00662e-07
-5.02135e-07
1.59951e-05
1.58112e-05
5.72805e-10
1.58117e-05
1.61842e-09
1.58126e-05
2.28115e-09
1.58136e-05
2.39247e-09
1.58148e-05
1.98438e-09
1.58162e-05
1.20965e-09
1.58176e-05
2.06671e-10
1.58191e-05
-9.47549e-10
1.58208e-05
-2.22386e-09
1.58225e-05
-3.64242e-09
1.58243e-05
-5.28782e-09
1.58263e-05
-7.30482e-09
1.58283e-05
-9.87025e-09
1.58305e-05
-1.31718e-08
1.5833e-05
-1.73876e-08
1.58356e-05
-2.26804e-08
1.58386e-05
-2.92216e-08
1.5842e-05
-3.72122e-08
1.58457e-05
-4.69156e-08
1.585e-05
-5.86996e-08
1.58549e-05
-7.30692e-08
1.58606e-05
-9.06953e-08
1.5867e-05
-1.12447e-07
1.58746e-05
-1.39427e-07
1.58833e-05
-1.7303e-07
1.58935e-05
-2.15001e-07
1.59055e-05
-2.67652e-07
1.592e-05
-3.338e-07
1.59372e-05
-4.17842e-07
-5.2485e-07
1.59599e-05
1.58111e-05
3.99467e-10
1.58116e-05
1.1085e-09
1.58124e-05
1.4928e-09
1.58134e-05
1.40298e-09
1.58146e-05
8.48473e-10
1.58158e-05
-5.06132e-11
1.58172e-05
-1.16623e-09
1.58187e-05
-2.41737e-09
1.58202e-05
-3.77604e-09
1.58218e-05
-5.27046e-09
1.58236e-05
-6.99346e-09
1.58253e-05
-9.09658e-09
1.58272e-05
-1.17649e-08
1.58293e-05
-1.51928e-08
1.58314e-05
-1.95647e-08
1.58338e-05
-2.50506e-08
1.58364e-05
-3.18246e-08
1.58393e-05
-4.00909e-08
1.58425e-05
-5.0118e-08
1.58461e-05
-6.22782e-08
1.58501e-05
-7.70833e-08
1.58546e-05
-9.5213e-08
1.58597e-05
-1.17546e-07
1.58655e-05
-1.45197e-07
1.5872e-05
-1.79569e-07
1.58794e-05
-2.2243e-07
1.58879e-05
-2.76101e-07
1.58976e-05
-3.43552e-07
1.59087e-05
-4.28904e-07
-5.39217e-07
1.59231e-05
1.58111e-05
2.39041e-10
1.58116e-05
6.36093e-10
1.58123e-05
7.54879e-10
1.58133e-05
4.64314e-10
1.58144e-05
-2.37018e-10
1.58156e-05
-1.25433e-09
1.58169e-05
-2.4726e-09
1.58183e-05
-3.81032e-09
1.58197e-05
-5.23997e-09
1.58213e-05
-6.79618e-09
1.58228e-05
-8.57941e-09
1.58245e-05
-1.07472e-08
1.58262e-05
-1.34904e-08
1.5828e-05
-1.70081e-08
1.583e-05
-2.1489e-08
1.5832e-05
-2.71075e-08
1.58342e-05
-3.40392e-08
1.58366e-05
-4.24889e-08
1.58392e-05
-5.27258e-08
1.58421e-05
-6.51221e-08
1.58452e-05
-8.01887e-08
1.58486e-05
-9.86037e-08
1.58523e-05
-1.21242e-07
1.58563e-05
-1.49206e-07
1.58606e-05
-1.83886e-07
1.58652e-05
-2.27025e-07
1.587e-05
-2.80901e-07
1.5875e-05
-3.48531e-07
1.58798e-05
-4.3369e-07
-5.44877e-07
1.58854e-05
1.58111e-05
8.57358e-11
1.58116e-05
1.87699e-10
1.58123e-05
5.18402e-11
1.58132e-05
-4.35111e-10
1.58142e-05
-1.27993e-09
1.58154e-05
-2.40796e-09
1.58166e-05
-3.71735e-09
1.58179e-05
-5.12883e-09
1.58193e-05
-6.61613e-09
1.58207e-05
-8.21906e-09
1.58222e-05
-1.00444e-08
1.58237e-05
-1.22544e-08
1.58253e-05
-1.50435e-08
1.58269e-05
-1.86133e-08
1.58285e-05
-2.31553e-08
1.58303e-05
-2.88453e-08
1.58321e-05
-3.5859e-08
1.5834e-05
-4.43991e-08
1.5836e-05
-5.47317e-08
1.58381e-05
-6.72239e-08
1.58403e-05
-8.23788e-08
1.58426e-05
-1.00862e-07
1.58448e-05
-1.23531e-07
1.58471e-05
-1.51458e-07
1.58492e-05
-1.85989e-07
1.5851e-05
-2.28804e-07
1.58522e-05
-2.82078e-07
1.58524e-05
-3.4876e-07
1.58509e-05
-4.32214e-07
-5.41739e-07
1.58478e-05
1.58111e-05
-6.51887e-11
1.58116e-05
-2.47079e-10
1.58122e-05
-6.29326e-10
1.58131e-05
-1.30755e-09
1.58141e-05
-2.29024e-09
1.58152e-05
-3.51905e-09
1.58164e-05
-4.9057e-09
1.58177e-05
-6.37599e-09
1.5819e-05
-7.90595e-09
1.58203e-05
-9.53952e-09
1.58216e-05
-1.13882e-08
1.5823e-05
-1.36172e-08
1.58244e-05
-1.64225e-08
1.58258e-05
-2.00067e-08
1.58272e-05
-2.45614e-08
1.58286e-05
-3.02622e-08
1.583e-05
-3.72823e-08
1.58314e-05
-4.58203e-08
1.58328e-05
-5.61354e-08
1.58342e-05
-6.85853e-08
1.58355e-05
-8.36582e-08
1.58366e-05
-1.01999e-07
1.58375e-05
-1.24431e-07
1.5838e-05
-1.51982e-07
1.5838e-05
-1.85925e-07
1.5837e-05
-2.27839e-07
1.58347e-05
-2.79735e-07
1.58303e-05
-3.44386e-07
1.58227e-05
-4.24675e-07
-5.30004e-07
1.5811e-05
1.58111e-05
-2.15289e-10
1.58115e-05
-6.77831e-10
1.58122e-05
-1.30376e-09
1.58131e-05
-2.1675e-09
1.58141e-05
-3.27817e-09
1.58151e-05
-4.59415e-09
1.58163e-05
-6.04251e-09
1.58175e-05
-7.55562e-09
1.58187e-05
-9.11195e-09
1.58199e-05
-1.07588e-08
1.58211e-05
-1.26113e-08
1.58223e-05
-1.4836e-08
1.58235e-05
-1.76281e-08
1.58247e-05
-2.11892e-08
1.58259e-05
-2.57088e-08
1.5827e-05
-3.13602e-08
1.5828e-05
-3.83121e-08
1.58289e-05
-4.67565e-08
1.58297e-05
-5.69433e-08
1.58304e-05
-6.92161e-08
1.58308e-05
-8.40427e-08
1.58308e-05
-1.02038e-07
1.58303e-05
-1.23981e-07
1.58292e-05
-1.50836e-07
1.5827e-05
-1.8378e-07
1.58235e-05
-2.24255e-07
1.58178e-05
-2.7406e-07
1.58091e-05
-3.35679e-07
1.57959e-05
-4.11461e-07
-5.10208e-07
1.57761e-05
1.58111e-05
-3.65964e-10
1.58116e-05
-1.11655e-09
1.58122e-05
-1.98706e-09
1.58131e-05
-3.0281e-09
1.58141e-05
-4.25271e-09
1.58151e-05
-5.6399e-09
1.58162e-05
-7.13358e-09
1.58173e-05
-8.67245e-09
1.58185e-05
-1.02375e-08
1.58196e-05
-1.18794e-08
1.58207e-05
-1.37159e-08
1.58218e-05
-1.59129e-08
1.58228e-05
-1.86631e-08
1.58238e-05
-2.21641e-08
1.58247e-05
-2.66016e-08
1.58254e-05
-3.21443e-08
1.58261e-05
-3.89549e-08
1.58265e-05
-4.7217e-08
1.58268e-05
-5.71683e-08
1.58267e-05
-6.9135e-08
1.58262e-05
-8.35588e-08
1.58252e-05
-1.01017e-07
1.58234e-05
-1.22236e-07
1.58207e-05
-1.48099e-07
1.58166e-05
-1.79671e-07
1.58106e-05
-2.18226e-07
1.58018e-05
-2.65308e-07
1.57892e-05
-3.23022e-07
1.57708e-05
-3.93143e-07
-4.83215e-07
1.57438e-05
1.58111e-05
-5.21849e-10
1.58116e-05
-1.57606e-09
1.58123e-05
-2.69365e-09
1.58132e-05
-3.9017e-09
1.58141e-05
-5.22309e-09
1.58152e-05
-6.66369e-09
1.58162e-05
-8.18531e-09
1.58173e-05
-9.73178e-09
1.58183e-05
-1.12868e-08
1.58193e-05
-1.29052e-08
1.58203e-05
-1.47058e-08
1.58213e-05
-1.68522e-08
1.58221e-05
-1.95317e-08
1.58229e-05
-2.29364e-08
1.58236e-05
-2.72459e-08
1.5824e-05
-3.26225e-08
1.58243e-05
-3.92214e-08
1.58243e-05
-4.7216e-08
1.5824e-05
-5.68299e-08
1.58232e-05
-6.83684e-08
1.58219e-05
-8.22431e-08
1.58199e-05
-9.89878e-08
1.58169e-05
-1.19266e-07
1.58127e-05
-1.43873e-07
1.58067e-05
-1.73745e-07
1.57985e-05
-2.09966e-07
1.5787e-05
-2.53797e-07
1.57708e-05
-3.06894e-07
1.57481e-05
-3.70447e-07
-4.50188e-07
1.57151e-05
1.58111e-05
-6.89226e-10
1.58116e-05
-2.06962e-09
1.58124e-05
-3.44008e-09
1.58133e-05
-4.80179e-09
1.58142e-05
-6.19873e-09
1.58153e-05
-7.6732e-09
1.58163e-05
-9.20461e-09
1.58173e-05
-1.07395e-08
1.58183e-05
-1.2265e-08
1.58192e-05
-1.38406e-08
1.58201e-05
-1.55858e-08
1.58209e-05
-1.76589e-08
1.58216e-05
-2.024e-08
1.58222e-05
-2.35133e-08
1.58226e-05
-2.76505e-08
1.58228e-05
-3.28062e-08
1.58227e-05
-3.91263e-08
1.58222e-05
-4.67726e-08
1.58213e-05
-5.5953e-08
1.58199e-05
-6.69497e-08
1.58178e-05
-8.01403e-08
1.58148e-05
-9.60108e-08
1.58107e-05
-1.15157e-07
1.58051e-05
-1.38278e-07
1.57976e-05
-1.66171e-07
1.57873e-05
-1.9972e-07
1.57734e-05
-2.3989e-07
1.57544e-05
-2.87847e-07
1.57281e-05
-3.44215e-07
-4.12528e-07
1.56905e-05
1.58112e-05
-8.75347e-10
1.58117e-05
-2.61471e-09
1.58125e-05
-4.24602e-09
1.58134e-05
-5.74225e-09
1.58144e-05
-7.1888e-09
1.58154e-05
-8.67654e-09
1.58164e-05
-1.01989e-08
1.58174e-05
-1.17017e-08
1.58183e-05
-1.31773e-08
1.58192e-05
-1.46913e-08
1.58199e-05
-1.63618e-08
1.58206e-05
-1.83396e-08
1.58212e-05
-2.07956e-08
1.58216e-05
-2.39038e-08
1.58217e-05
-2.78266e-08
1.58216e-05
-3.27092e-08
1.58212e-05
-3.86872e-08
1.58203e-05
-4.59096e-08
1.5819e-05
-5.45675e-08
1.58169e-05
-6.49178e-08
1.58141e-05
-7.73022e-08
1.58102e-05
-9.21556e-08
1.58051e-05
-1.10003e-07
1.57982e-05
-1.31443e-07
1.57892e-05
-1.57132e-07
1.57772e-05
-1.87754e-07
1.57613e-05
-2.23978e-07
1.57399e-05
-2.66473e-07
1.57111e-05
-3.1536e-07
-3.71768e-07
1.56703e-05
1.58112e-05
-1.09006e-09
1.58118e-05
-3.23534e-09
1.58127e-05
-5.13484e-09
1.58137e-05
-6.73675e-09
1.58147e-05
-8.20214e-09
1.58157e-05
-9.68239e-09
1.58167e-05
-1.11759e-08
1.58176e-05
-1.26245e-08
1.58185e-05
-1.40295e-08
1.58192e-05
-1.54633e-08
1.58199e-05
-1.70405e-08
1.58205e-05
-1.89022e-08
1.58209e-05
-2.12076e-08
1.58211e-05
-2.41192e-08
1.58211e-05
-2.77881e-08
1.58207e-05
-3.23491e-08
1.58199e-05
-3.79259e-08
1.58187e-05
-4.46546e-08
1.58168e-05
-5.27082e-08
1.58142e-05
-6.23176e-08
1.58107e-05
-7.37866e-08
1.5806e-05
-8.74983e-08
1.58e-05
-1.03906e-07
1.5792e-05
-1.23508e-07
1.57817e-05
-1.46823e-07
1.57683e-05
-1.74339e-07
1.57508e-05
-2.06454e-07
1.57277e-05
-2.43368e-07
1.56971e-05
-2.84791e-07
-3.29508e-07
1.56548e-05
1.58112e-05
-1.34782e-09
1.5812e-05
-3.96604e-09
1.5813e-05
-6.13422e-09
1.5814e-05
-7.79734e-09
1.58151e-05
-9.24692e-09
1.58161e-05
-1.07003e-08
1.5817e-05
-1.21436e-08
1.58179e-05
-1.3514e-08
1.58187e-05
-1.48274e-08
1.58194e-05
-1.61632e-08
1.582e-05
-1.76294e-08
1.58205e-05
-1.93548e-08
1.58208e-05
-2.14859e-08
1.58208e-05
-2.4171e-08
1.58206e-05
-2.75492e-08
1.582e-05
-3.17436e-08
1.58189e-05
-3.68652e-08
1.58173e-05
-4.30364e-08
1.5815e-05
-5.04123e-08
1.58119e-05
-5.91969e-08
1.58077e-05
-6.96553e-08
1.58024e-05
-8.21191e-08
1.57954e-05
-9.69713e-08
1.57865e-05
-1.14614e-07
1.57751e-05
-1.35434e-07
1.57605e-05
-1.59743e-07
1.57418e-05
-1.877e-07
1.57175e-05
-2.19094e-07
1.56861e-05
-2.53361e-07
-2.87182e-07
1.56438e-05
1.58113e-05
-1.67088e-09
1.58122e-05
-4.85722e-09
1.58133e-05
-7.27585e-09
1.58145e-05
-8.93301e-09
1.58155e-05
-1.03313e-08
1.58166e-05
-1.174e-08
1.58175e-05
-1.31091e-08
1.58184e-05
-1.43761e-08
1.58192e-05
-1.55782e-08
1.58198e-05
-1.67995e-08
1.58203e-05
-1.81383e-08
1.58207e-05
-1.97087e-08
1.58208e-05
-2.16422e-08
1.58207e-05
-2.40756e-08
1.58203e-05
-2.71317e-08
1.58195e-05
-3.09164e-08
1.58181e-05
-3.55324e-08
1.58162e-05
-4.10889e-08
1.58135e-05
-4.77219e-08
1.58099e-05
-5.56081e-08
1.58052e-05
-6.49734e-08
1.57992e-05
-7.61012e-08
1.57916e-05
-8.93075e-08
1.57818e-05
-1.04902e-07
1.57696e-05
-1.23156e-07
1.5754e-05
-1.4422e-07
1.57344e-05
-1.68066e-07
1.57095e-05
-1.94143e-07
1.56779e-05
-2.21795e-07
-2.46052e-07
1.56368e-05
1.58114e-05
-2.09693e-09
1.58125e-05
-5.98156e-09
1.58138e-05
-8.59079e-09
1.5815e-05
-1.01505e-08
1.58162e-05
-1.14681e-08
1.58173e-05
-1.28122e-08
1.58182e-05
-1.40755e-08
1.58191e-05
-1.52122e-08
1.58198e-05
-1.62849e-08
1.58203e-05
-1.73766e-08
1.58208e-05
-1.85725e-08
1.5821e-05
-1.99715e-08
1.58211e-05
-2.16893e-08
1.58209e-05
-2.38452e-08
1.58203e-05
-2.65471e-08
1.58192e-05
-2.98877e-08
1.58177e-05
-3.39558e-08
1.58154e-05
-3.8847e-08
1.58124e-05
-4.46804e-08
1.58084e-05
-5.16055e-08
1.58032e-05
-5.98086e-08
1.57966e-05
-6.95293e-08
1.57884e-05
-8.10216e-08
1.5778e-05
-9.45103e-08
1.5765e-05
-1.10164e-07
1.57488e-05
-1.28002e-07
1.57285e-05
-1.47857e-07
1.57033e-05
-1.68912e-07
1.56722e-05
-1.90642e-07
-2.06951e-07
1.56331e-05
1.58116e-05
-2.69722e-09
1.5813e-05
-7.44387e-09
1.58145e-05
-1.00934e-08
1.58158e-05
-1.14517e-08
1.5817e-05
-1.26793e-08
1.58182e-05
-1.39346e-08
1.58191e-05
-1.50539e-08
1.582e-05
-1.60336e-08
1.58206e-05
-1.69596e-08
1.58212e-05
-1.79062e-08
1.58215e-05
-1.89449e-08
1.58217e-05
-2.01577e-08
1.58217e-05
-2.16426e-08
1.58213e-05
-2.34998e-08
1.58206e-05
-2.58208e-08
1.58194e-05
-2.86842e-08
1.58176e-05
-3.2166e-08
1.58151e-05
-3.6347e-08
1.58118e-05
-4.13323e-08
1.58074e-05
-4.72434e-08
1.58018e-05
-5.42263e-08
1.57948e-05
-6.24846e-08
1.5786e-05
-7.2216e-08
1.5775e-05
-8.35671e-08
1.57615e-05
-9.66242e-08
1.57448e-05
-1.11294e-07
1.57243e-05
-1.27328e-07
1.5699e-05
-1.43677e-07
1.56686e-05
-1.60238e-07
-1.70266e-07
1.56319e-05
1.58119e-05
-3.61347e-09
1.58138e-05
-9.40218e-09
1.58155e-05
-1.17649e-08
1.58169e-05
-1.28281e-08
1.58182e-05
-1.39676e-08
1.58193e-05
-1.50949e-08
1.58203e-05
-1.60328e-08
1.58211e-05
-1.68384e-08
1.58218e-05
-1.76055e-08
1.58223e-05
-1.83936e-08
1.58226e-05
-1.92631e-08
1.58227e-05
-2.02771e-08
1.58226e-05
-2.15148e-08
1.58221e-05
-2.30559e-08
1.58213e-05
-2.49742e-08
1.58199e-05
-2.73332e-08
1.5818e-05
-3.01968e-08
1.58152e-05
-3.36298e-08
1.58116e-05
-3.77288e-08
1.5807e-05
-4.25827e-08
1.5801e-05
-4.82979e-08
1.57936e-05
-5.50532e-08
1.57844e-05
-6.29924e-08
1.5773e-05
-7.21945e-08
1.57591e-05
-8.26842e-08
1.57421e-05
-9.42762e-08
1.57214e-05
-1.06685e-07
1.56964e-05
-1.1862e-07
1.56669e-05
-1.30793e-07
-1.3529e-07
1.56319e-05
1.58125e-05
-5.11065e-09
1.58151e-05
-1.20505e-08
1.58169e-05
-1.35962e-08
1.58185e-05
-1.4359e-08
1.58199e-05
-1.53818e-08
1.58211e-05
-1.62966e-08
1.58221e-05
-1.70092e-08
1.58229e-05
-1.76272e-08
1.58235e-05
-1.82241e-08
1.58239e-05
-1.88402e-08
1.58242e-05
-1.95327e-08
1.58243e-05
-2.03397e-08
1.58241e-05
-2.13204e-08
1.58235e-05
-2.25317e-08
1.58226e-05
-2.40301e-08
1.58211e-05
-2.58612e-08
1.5819e-05
-2.80795e-08
1.58161e-05
-3.07304e-08
1.58123e-05
-3.3917e-08
1.58074e-05
-3.76759e-08
1.58012e-05
-4.20823e-08
1.57934e-05
-4.7315e-08
1.57839e-05
-5.34527e-08
1.57722e-05
-6.05175e-08
1.5758e-05
-6.84964e-08
1.57409e-05
-7.71441e-08
1.57203e-05
-8.61398e-08
1.56955e-05
-9.37656e-08
1.56672e-05
-1.02547e-07
-1.00058e-07
1.5632e-05
1.58136e-05
-7.73135e-09
1.58168e-05
-1.52817e-08
1.58187e-05
-1.5464e-08
1.58205e-05
-1.6138e-08
1.5822e-05
-1.69366e-08
1.58233e-05
-1.7544e-08
1.58243e-05
-1.80088e-08
1.58251e-05
-1.84266e-08
1.58257e-05
-1.88379e-08
1.58261e-05
-1.9272e-08
1.58264e-05
-1.97756e-08
1.58264e-05
-2.03674e-08
1.58261e-05
-2.10809e-08
1.58256e-05
-2.19481e-08
1.58245e-05
-2.30115e-08
1.5823e-05
-2.4296e-08
1.58207e-05
-2.58517e-08
1.58177e-05
-2.76854e-08
1.58137e-05
-2.99515e-08
1.58087e-05
-3.26032e-08
1.58022e-05
-3.56543e-08
1.57943e-05
-3.93348e-08
1.57845e-05
-4.36628e-08
1.57726e-05
-4.86056e-08
1.57582e-05
-5.41319e-08
1.57411e-05
-6.00203e-08
1.57208e-05
-6.5902e-08
1.56965e-05
-6.94045e-08
1.56689e-05
-7.49962e-08
-5.87272e-08
1.56276e-05
1.58171e-05
-1.38322e-08
1.58206e-05
-1.87943e-08
1.58228e-05
-1.7672e-08
1.58244e-05
-1.77595e-08
1.58257e-05
-1.82473e-08
1.58268e-05
-1.8587e-08
1.58276e-05
-1.8819e-08
1.58282e-05
-1.90303e-08
1.58286e-05
-1.92431e-08
1.58288e-05
-1.94675e-08
1.58287e-05
-1.97244e-08
1.58284e-05
-2.00273e-08
1.58277e-05
-2.0393e-08
1.58266e-05
-2.08388e-08
1.5825e-05
-2.13906e-08
1.58227e-05
-2.20578e-08
1.58198e-05
-2.28724e-08
1.58159e-05
-2.38239e-08
1.5811e-05
-2.50307e-08
1.58048e-05
-2.64286e-08
1.57972e-05
-2.80144e-08
1.57878e-05
-2.9968e-08
1.57764e-05
-3.22828e-08
1.57627e-05
-3.49215e-08
1.57465e-05
-3.78757e-08
1.57274e-05
-4.09685e-08
1.57055e-05
-4.40213e-08
1.56803e-05
-4.41808e-08
1.56487e-05
-4.33395e-08
7.24089e-09
1.55827e-05
1.57971e-05
1.57783e-05
1.57607e-05
1.57429e-05
1.57247e-05
1.57061e-05
1.56873e-05
1.56682e-05
1.5649e-05
1.56295e-05
1.56098e-05
1.55898e-05
1.55694e-05
1.55485e-05
1.55271e-05
1.55051e-05
1.54822e-05
1.54584e-05
1.54334e-05
1.54069e-05
1.53789e-05
1.53489e-05
1.53167e-05
1.52817e-05
1.52439e-05
1.52029e-05
1.51589e-05
1.51147e-05
1.50714e-05
1.50786e-05
1.54435e-05
-9.01993e-06
9.31151e-06
1.51067e-05
-9.09939e-06
9.43623e-06
1.47155e-05
-9.15481e-06
9.54597e-06
1.42799e-05
-9.1852e-06
9.62082e-06
1.38198e-05
-9.21145e-06
9.67155e-06
1.33482e-05
-9.24025e-06
9.71185e-06
1.28706e-05
-9.27148e-06
9.74912e-06
1.23896e-05
-9.30517e-06
9.78618e-06
1.19064e-05
-9.34145e-06
9.82465e-06
1.14212e-05
-9.38022e-06
9.86542e-06
1.09337e-05
-9.42121e-06
9.90868e-06
1.04437e-05
-9.46438e-06
9.9544e-06
9.95094e-06
-9.50994e-06
1.00027e-05
9.45538e-06
-9.55831e-06
1.00539e-05
8.95692e-06
-9.61e-06
1.01085e-05
8.4554e-06
-9.66566e-06
1.01672e-05
7.95061e-06
-9.72608e-06
1.02309e-05
7.44225e-06
-9.79229e-06
1.03007e-05
6.92991e-06
-9.86571e-06
1.03781e-05
6.41301e-06
-9.94825e-06
1.04651e-05
5.89086e-06
-1.00426e-05
1.05647e-05
5.3621e-06
-1.01527e-05
1.06814e-05
4.82617e-06
-1.02836e-05
1.08195e-05
4.27741e-06
-1.04472e-05
1.0996e-05
3.72137e-06
-1.06466e-05
1.12026e-05
3.12827e-06
-1.09466e-05
1.15397e-05
2.53789e-06
-1.12682e-05
1.18585e-05
1.82362e-06
-1.20594e-05
1.27737e-05
1.09773e-06
-1.25846e-05
1.33105e-05
-1.56726e-05
1.67703e-05
1.57228e-05
-8.6142e-06
1.527e-05
-8.64664e-06
1.47941e-05
-8.67887e-06
1.43128e-05
-8.70386e-06
1.38317e-05
-8.73045e-06
1.33513e-05
-8.75976e-06
1.2871e-05
-8.79125e-06
1.23907e-05
-8.82482e-06
1.19091e-05
-8.85986e-06
1.14254e-05
-8.89651e-06
1.09391e-05
-8.93499e-06
1.04503e-05
-8.97551e-06
9.95875e-06
-9.01841e-06
9.46451e-06
-9.06407e-06
8.96745e-06
-9.11294e-06
8.46738e-06
-9.16558e-06
7.96402e-06
-9.22272e-06
7.45706e-06
-9.28533e-06
6.94605e-06
-9.3547e-06
6.43041e-06
-9.4326e-06
5.90933e-06
-9.52149e-06
5.38158e-06
-9.62492e-06
4.84589e-06
-9.74791e-06
4.29834e-06
-9.89968e-06
3.73974e-06
-1.0088e-05
3.14972e-06
-1.03565e-05
2.55038e-06
-1.06688e-05
1.84178e-06
-1.13508e-05
1.10935e-06
-1.18521e-05
-1.45632e-05
1.5687e-05
-8.15792e-06
1.52209e-05
-8.18051e-06
1.47498e-05
-8.20779e-06
1.42797e-05
-8.23378e-06
1.38086e-05
-8.25935e-06
1.3336e-05
-8.28714e-06
1.28614e-05
-8.31667e-06
1.23841e-05
-8.34753e-06
1.19041e-05
-8.37983e-06
1.14214e-05
-8.41386e-06
1.09363e-05
-8.44985e-06
1.04487e-05
-8.48796e-06
9.95873e-06
-8.52839e-06
9.46611e-06
-8.57145e-06
8.9707e-06
-8.61754e-06
8.47229e-06
-8.66717e-06
7.9706e-06
-8.72104e-06
7.46529e-06
-8.78002e-06
6.9559e-06
-8.84531e-06
6.44181e-06
-8.91851e-06
5.92217e-06
-9.00185e-06
5.39577e-06
-9.09853e-06
4.86101e-06
-9.21314e-06
4.31473e-06
-9.3534e-06
3.75507e-06
-9.52833e-06
3.16743e-06
-9.76889e-06
2.56156e-06
-1.00629e-05
1.85723e-06
-1.06465e-05
1.11606e-06
-1.1111e-05
-1.34471e-05
1.56799e-05
-7.69632e-06
1.52158e-05
-7.71647e-06
1.47477e-05
-7.73965e-06
1.42772e-05
-7.7633e-06
1.38052e-05
-7.78738e-06
1.33312e-05
-7.81307e-06
1.2855e-05
-7.8405e-06
1.23769e-05
-7.86942e-06
1.18969e-05
-7.89984e-06
1.1415e-05
-7.93193e-06
1.0931e-05
-7.96583e-06
1.04447e-05
-8.00168e-06
9.95596e-06
-8.03968e-06
9.46465e-06
-8.08014e-06
8.97056e-06
-8.12345e-06
8.47347e-06
-8.17008e-06
7.97311e-06
-8.22067e-06
7.4691e-06
-8.27601e-06
6.96095e-06
-8.33717e-06
6.44802e-06
-8.40558e-06
5.92942e-06
-8.48324e-06
5.40389e-06
-8.573e-06
4.86967e-06
-8.67893e-06
4.32388e-06
-8.80761e-06
3.76325e-06
-8.96771e-06
3.17654e-06
-9.18218e-06
2.56505e-06
-9.45146e-06
1.86408e-06
-9.94554e-06
1.11522e-06
-1.03621e-05
-1.23319e-05
1.56639e-05
-7.23206e-06
1.51978e-05
-7.25043e-06
1.47291e-05
-7.27091e-06
1.42586e-05
-7.2928e-06
1.3787e-05
-7.31574e-06
1.33139e-05
-7.34001e-06
1.28391e-05
-7.36574e-06
1.23625e-05
-7.39283e-06
1.1884e-05
-7.4213e-06
1.14034e-05
-7.45129e-06
1.09205e-05
-7.48297e-06
1.04353e-05
-7.5165e-06
9.94773e-06
-7.55208e-06
9.45757e-06
-7.58998e-06
8.96466e-06
-7.63054e-06
8.46878e-06
-7.6742e-06
7.96961e-06
-7.7215e-06
7.46676e-06
-7.77316e-06
6.95971e-06
-7.83012e-06
6.44778e-06
-7.89366e-06
5.93005e-06
-7.96551e-06
5.40522e-06
-8.04817e-06
4.87144e-06
-8.14515e-06
4.32584e-06
-8.26201e-06
3.7645e-06
-8.40637e-06
3.17794e-06
-8.59561e-06
2.56217e-06
-8.83569e-06
1.86358e-06
-9.24695e-06
1.10889e-06
-9.60743e-06
-1.1223e-05
1.5644e-05
-6.767e-06
1.51777e-05
-6.78406e-06
1.47096e-05
-6.80281e-06
1.424e-05
-6.82322e-06
1.37691e-05
-6.84482e-06
1.32966e-05
-6.86754e-06
1.28223e-05
-6.89147e-06
1.23462e-05
-6.91669e-06
1.18681e-05
-6.94325e-06
1.13881e-05
-6.97126e-06
1.0906e-05
-7.00086e-06
1.04217e-05
-7.03219e-06
9.93505e-06
-7.06543e-06
9.4459e-06
-7.10082e-06
8.95402e-06
-7.13866e-06
8.45915e-06
-7.17933e-06
7.96097e-06
-7.22332e-06
7.45906e-06
-7.27125e-06
6.95289e-06
-7.32395e-06
6.44174e-06
-7.38251e-06
5.92465e-06
-7.44843e-06
5.40028e-06
-7.52379e-06
4.8667e-06
-7.61157e-06
4.32102e-06
-7.71632e-06
3.75898e-06
-7.84433e-06
3.17201e-06
-8.00864e-06
2.55292e-06
-8.2166e-06
1.85634e-06
-8.55037e-06
1.0974e-06
-8.84849e-06
-1.01256e-05
1.56203e-05
-6.30173e-06
1.51539e-05
-6.31765e-06
1.46861e-05
-6.33499e-06
1.42168e-05
-6.35398e-06
1.37462e-05
-6.37418e-06
1.3274e-05
-6.39538e-06
1.28002e-05
-6.41767e-06
1.23247e-05
-6.44116e-06
1.18474e-05
-6.46592e-06
1.13681e-05
-6.49202e-06
1.08869e-05
-6.51959e-06
1.04034e-05
-6.54874e-06
9.91762e-06
-6.57965e-06
9.42933e-06
-6.61253e-06
8.9383e-06
-6.64764e-06
8.44427e-06
-6.68531e-06
7.94691e-06
-6.72595e-06
7.44577e-06
-6.77011e-06
6.94029e-06
-6.81847e-06
6.42974e-06
-6.87196e-06
5.91311e-06
-6.93179e-06
5.38901e-06
-6.99969e-06
4.85547e-06
-7.07804e-06
4.30953e-06
-7.17038e-06
3.74681e-06
-7.28161e-06
3.1592e-06
-7.42103e-06
2.53765e-06
-7.59505e-06
1.84333e-06
-7.85604e-06
1.08152e-06
-8.08668e-06
-9.04411e-06
1.55931e-05
-5.8364e-06
1.51268e-05
-5.8513e-06
1.46592e-05
-5.86739e-06
1.41903e-05
-5.88506e-06
1.372e-05
-5.90389e-06
1.32482e-05
-5.92362e-06
1.27749e-05
-5.94433e-06
1.22998e-05
-5.96614e-06
1.1823e-05
-5.98913e-06
1.13444e-05
-6.01336e-06
1.08637e-05
-6.03891e-06
1.03809e-05
-6.06593e-06
9.89578e-06
-6.09454e-06
9.40817e-06
-6.12492e-06
8.91784e-06
-6.1573e-06
8.42449e-06
-6.19196e-06
7.92777e-06
-6.22924e-06
7.42723e-06
-6.26957e-06
6.92228e-06
-6.31352e-06
6.41214e-06
-6.36182e-06
5.89579e-06
-6.41544e-06
5.3718e-06
-6.4757e-06
4.83815e-06
-6.54439e-06
4.29185e-06
-6.62408e-06
3.72846e-06
-6.71822e-06
3.14015e-06
-6.83273e-06
2.51693e-06
-6.97183e-06
1.82514e-06
-7.16424e-06
1.06219e-06
-7.32373e-06
-7.98193e-06
1.55628e-05
-5.37108e-06
1.50965e-05
-5.38501e-06
1.46291e-05
-5.39996e-06
1.41604e-05
-5.41635e-06
1.36903e-05
-5.43384e-06
1.32189e-05
-5.45214e-06
1.27458e-05
-5.47133e-06
1.22712e-05
-5.49151e-06
1.17949e-05
-5.51277e-06
1.13167e-05
-5.53517e-06
1.08365e-05
-5.55876e-06
1.03543e-05
-5.58366e-06
9.8697e-06
-5.60999e-06
9.38267e-06
-5.63788e-06
8.89289e-06
-5.66753e-06
8.40009e-06
-5.69915e-06
7.90387e-06
-5.73302e-06
7.40377e-06
-5.76947e-06
6.89918e-06
-5.80893e-06
6.38931e-06
-5.85195e-06
5.8731e-06
-5.89923e-06
5.34909e-06
-5.9517e-06
4.81524e-06
-6.01054e-06
4.26853e-06
-6.07737e-06
3.70452e-06
-6.1542e-06
3.11563e-06
-6.24384e-06
2.49146e-06
-6.34766e-06
1.8026e-06
-6.47538e-06
1.04041e-06
-6.56155e-06
-6.94152e-06
1.55298e-05
-4.90573e-06
1.50635e-05
-4.91874e-06
1.45962e-05
-4.93262e-06
1.41276e-05
-4.9478e-06
1.36577e-05
-4.96397e-06
1.31865e-05
-4.98089e-06
1.27137e-05
-4.99859e-06
1.22394e-05
-5.0172e-06
1.17634e-05
-5.03677e-06
1.12856e-05
-5.05736e-06
1.08059e-05
-5.07901e-06
1.0324e-05
-5.10182e-06
9.83991e-06
-5.12587e-06
9.35331e-06
-5.15128e-06
8.86396e-06
-5.17818e-06
8.37155e-06
-5.20674e-06
7.8757e-06
-5.23716e-06
7.37591e-06
-5.26968e-06
6.87156e-06
-5.30458e-06
6.36184e-06
-5.34223e-06
5.84567e-06
-5.38306e-06
5.32156e-06
-5.42759e-06
4.78745e-06
-5.47644e-06
4.24034e-06
-5.53026e-06
3.67581e-06
-5.58967e-06