/*--------------------------------*- C++ -*----------------------------------*\
  =========                 |
  \\      /  F ield         | OpenFOAM: The Open Source CFD Toolbox
   \\    /   O peration     | Website:  https://openfoam.org
    \\  /    A nd           | Version:  11
     \\/     M anipulation  |
\*---------------------------------------------------------------------------*/
FoamFile
{
    format      ascii;
    class       volVectorField;
    location    "2.8";
    object      U;
}
// * * * * * * * * * * * * * * * * * * * * * * * * * * * * * * * * * * * * * //

dimensions      [0 1 -1 0 0 0 0];

internalField   nonuniform List<vector> 
12600
(
(0.399655 0.000107013 0)
(0.399391 0.000180228 0)
(0.398991 0.000186437 0)
(0.398543 0.000185707 0)
(0.398112 0.000186288 0)
(0.397709 0.000184298 0)
(0.397329 0.000179736 0)
(0.396977 0.000173718 0)
(0.396659 0.000165372 0)
(0.396383 0.000153774 0)
(0.39616 0.000139162 0)
(0.396 0.000123214 0)
(0.395916 0.000104785 0)
(0.395924 7.80463e-05 0)
(0.396045 3.85106e-05 0)
(0.396308 -1.19319e-05 0)
(0.396744 -6.60456e-05 0)
(0.39739 -0.000125467 0)
(0.398297 -0.000206906 0)
(0.399536 -0.000314948 0)
(0.401163 -0.000433747 0)
(0.403246 -0.000568767 0)
(0.405913 -0.000742575 0)
(0.409328 -0.00096461 0)
(0.413664 -0.00124391 0)
(0.419131 -0.00158532 0)
(0.425967 -0.00201388 0)
(0.434467 -0.00246472 0)
(0.444964 -0.00331037 0)
(0.459944 -0.00293699 0)
(0.400033 0.000153406 0)
(0.400177 0.000271862 0)
(0.400325 0.000248834 0)
(0.400399 0.000233332 0)
(0.400477 0.000222161 0)
(0.400578 0.000207526 0)
(0.400702 0.000186948 0)
(0.400851 0.000159943 0)
(0.40103 0.000130432 0)
(0.401245 9.68568e-05 0)
(0.401506 5.46002e-05 0)
(0.401822 2.29403e-06 0)
(0.402203 -6.25516e-05 0)
(0.402663 -0.000139764 0)
(0.403215 -0.000230829 0)
(0.403884 -0.000340052 0)
(0.404671 -0.00047523 0)
(0.405622 -0.000645069 0)
(0.406805 -0.000853181 0)
(0.408108 -0.00110605 0)
(0.409738 -0.00142507 0)
(0.411924 -0.00182918 0)
(0.414613 -0.00232741 0)
(0.417913 -0.0029373 0)
(0.421971 -0.00368729 0)
(0.426975 -0.00460671 0)
(0.433145 -0.00574329 0)
(0.440813 -0.00706728 0)
(0.450223 -0.00900276 0)
(0.462161 -0.00967382 0)
(0.400021 8.03467e-05 0)
(0.400099 0.000142177 0)
(0.400198 0.000134682 0)
(0.40028 0.000121778 0)
(0.400356 0.000110412 0)
(0.400444 9.22143e-05 0)
(0.400554 6.42667e-05 0)
(0.400688 2.66025e-05 0)
(0.400852 -2.13451e-05 0)
(0.401051 -7.98931e-05 0)
(0.401293 -0.0001471 0)
(0.401588 -0.000227181 0)
(0.401945 -0.000323459 0)
(0.402379 -0.000439914 0)
(0.402906 -0.000582688 0)
(0.403545 -0.000756381 0)
(0.404323 -0.000966727 0)
(0.40527 -0.0012278 0)
(0.406425 -0.0015357 0)
(0.407852 -0.00190737 0)
(0.409599 -0.00240791 0)
(0.41171 -0.00305465 0)
(0.414278 -0.00383428 0)
(0.417443 -0.00477805 0)
(0.42135 -0.00594086 0)
(0.42619 -0.00737773 0)
(0.432146 -0.00916614 0)
(0.43966 -0.0113073 0)
(0.448621 -0.0142228 0)
(0.461115 -0.0163751 0)
(0.400013 5.11552e-05 0)
(0.400067 0.000117526 0)
(0.400149 0.000131987 0)
(0.400226 0.000122862 0)
(0.400299 0.000107074 0)
(0.400384 8.00259e-05 0)
(0.40049 4.13613e-05 0)
(0.40062 -7.44579e-06 0)
(0.400777 -6.92963e-05 0)
(0.40097 -0.000143536 0)
(0.401205 -0.000234159 0)
(0.40149 -0.00034381 0)
(0.401835 -0.000476503 0)
(0.402255 -0.00063771 0)
(0.402764 -0.000833782 0)
(0.403382 -0.0010715 0)
(0.404133 -0.00136043 0)
(0.405048 -0.0017151 0)
(0.406163 -0.00214733 0)
(0.407529 -0.00268327 0)
(0.409202 -0.00336597 0)
(0.411234 -0.00421665 0)
(0.413711 -0.00525479 0)
(0.416756 -0.00653174 0)
(0.420509 -0.00811622 0)
(0.425162 -0.0100801 0)
(0.430884 -0.0125303 0)
(0.438138 -0.0154889 0)
(0.446742 -0.0194381 0)
(0.458979 -0.0229634 0)
(0.400009 3.4201e-05 0)
(0.400046 8.34741e-05 0)
(0.400111 9.30128e-05 0)
(0.40018 7.62998e-05 0)
(0.40025 4.83992e-05 0)
(0.400332 1.02727e-05 0)
(0.400434 -4.14691e-05 0)
(0.400559 -0.000106709 0)
(0.400711 -0.000185543 0)
(0.400896 -0.000280436 0)
(0.401121 -0.000395353 0)
(0.401394 -0.000533564 0)
(0.401725 -0.000700186 0)
(0.402127 -0.000901931 0)
(0.402613 -0.00114685 0)
(0.403203 -0.00144453 0)
(0.40392 -0.0018072 0)
(0.404792 -0.00225181 0)
(0.405853 -0.00279695 0)
(0.40715 -0.00346904 0)
(0.408735 -0.00430878 0)
(0.410663 -0.00535478 0)
(0.413013 -0.00664607 0)
(0.4159 -0.00824152 0)
(0.419454 -0.0102214 0)
(0.423862 -0.0126785 0)
(0.429277 -0.0157467 0)
(0.436171 -0.0194918 0)
(0.444296 -0.0243984 0)
(0.456107 -0.0293198 0)
(0.400006 2.25393e-05 0)
(0.400034 5.65279e-05 0)
(0.400086 6.29978e-05 0)
(0.40015 4.5677e-05 0)
(0.400217 1.51187e-05 0)
(0.400296 -2.73516e-05 0)
(0.400392 -8.54873e-05 0)
(0.400511 -0.000161186 0)
(0.400656 -0.000254081 0)
(0.400832 -0.000366341 0)
(0.401045 -0.000501804 0)
(0.401303 -0.000665144 0)
(0.401616 -0.000862679 0)
(0.401995 -0.00110234 0)
(0.402454 -0.00139371 0)
(0.40301 -0.00174834 0)
(0.403684 -0.00218081 0)
(0.404503 -0.00271038 0)
(0.405498 -0.00336027 0)
(0.406712 -0.00416145 0)
(0.408192 -0.00515733 0)
(0.409992 -0.00639495 0)
(0.412187 -0.00792537 0)
(0.41488 -0.00981884 0)
(0.418191 -0.0121707 0)
(0.422297 -0.0150949 0)
(0.427331 -0.0187503 0)
(0.43377 -0.0232477 0)
(0.441304 -0.0290678 0)
(0.452519 -0.0353429 0)
(0.400005 1.42464e-05 0)
(0.400026 3.54804e-05 0)
(0.40007 3.67649e-05 0)
(0.400126 1.61901e-05 0)
(0.40019 -2.12837e-05 0)
(0.400264 -7.39293e-05 0)
(0.400355 -0.000143401 0)
(0.400466 -0.000231926 0)
(0.400602 -0.000340189 0)
(0.400767 -0.000470521 0)
(0.400967 -0.000627236 0)
(0.401208 -0.000816001 0)
(0.4015 -0.00104404 0)
(0.401853 -0.00132034 0)
(0.402279 -0.00165584 0)
(0.402795 -0.0020639 0)
(0.403419 -0.00256129 0)
(0.404177 -0.00316971 0)
(0.405096 -0.00391631 0)
(0.406213 -0.0048361 0)
(0.407573 -0.00597503 0)
(0.409226 -0.00738675 0)
(0.41124 -0.00913399 0)
(0.413706 -0.011299 0)
(0.416732 -0.0139907 0)
(0.420481 -0.0173421 0)
(0.425068 -0.021535 0)
(0.430958 -0.0267272 0)
(0.437793 -0.0333913 0)
(0.448239 -0.0409561 0)
(0.400004 7.91468e-06 0)
(0.400021 1.83414e-05 0)
(0.400058 1.32496e-05 0)
(0.400108 -1.19026e-05 0)
(0.400167 -5.51623e-05 0)
(0.400237 -0.000115062 0)
(0.400321 -0.000193022 0)
(0.400425 -0.000291485 0)
(0.400551 -0.000412066 0)
(0.400704 -0.000557419 0)
(0.400888 -0.000732188 0)
(0.40111 -0.000942747 0)
(0.401378 -0.00119722 0)
(0.401701 -0.00150567 0)
(0.402091 -0.00188031 0)
(0.402562 -0.0023361 0)
(0.40313 -0.00289177 0)
(0.403818 -0.00357126 0)
(0.404651 -0.00440485 0)
(0.405661 -0.005431 0)
(0.406886 -0.00669898 0)
(0.408373 -0.00826855 0)
(0.410182 -0.010212 0)
(0.412391 -0.0126218 0)
(0.415094 -0.0156191 0)
(0.418437 -0.0193546 0)
(0.422513 -0.0240318 0)
(0.427767 -0.0298537 0)
(0.433799 -0.0372849 0)
(0.443294 -0.0460599 0)
(0.400003 2.7198e-06 0)
(0.400018 3.99135e-06 0)
(0.400049 -7.6494e-06 0)
(0.400094 -3.7541e-05 0)
(0.400148 -8.59779e-05 0)
(0.400212 -0.000152724 0)
(0.40029 -0.000239252 0)
(0.400385 -0.00034785 0)
(0.4005 -0.000480574 0)
(0.40064 -0.000640427 0)
(0.400807 -0.000832404 0)
(0.401008 -0.00106351 0)
(0.40125 -0.00134266 0)
(0.40154 -0.00168086 0)
(0.401889 -0.00209141 0)
(0.402309 -0.00259061 0)
(0.402816 -0.00319884 0)
(0.403427 -0.003942 0)
(0.404165 -0.00485291 0)
(0.405057 -0.00597306 0)
(0.406136 -0.00735497 0)
(0.407441 -0.00906339 0)
(0.409024 -0.011178 0)
(0.41095 -0.0138003 0)
(0.413297 -0.0170622 0)
(0.416191 -0.0211297 0)
(0.419699 -0.0262258 0)
(0.424236 -0.0325962 0)
(0.429369 -0.0406974 0)
(0.437726 -0.0505723 0)
(0.400003 -1.54888e-06 0)
(0.400015 -8.20536e-06 0)
(0.400042 -2.59394e-05 0)
(0.400082 -6.06526e-05 0)
(0.400131 -0.000114324 0)
(0.40019 -0.00018753 0)
(0.400261 -0.000281729 0)
(0.400347 -0.000399179 0)
(0.400451 -0.00054232 0)
(0.400575 -0.000714536 0)
(0.400724 -0.000921177 0)
(0.400902 -0.00116978 0)
(0.401115 -0.00146997 0)
(0.40137 -0.00183355 0)
(0.401676 -0.00227477 0)
(0.402042 -0.00281107 0)
(0.402481 -0.00346421 0)
(0.40301 -0.00426175 0)
(0.403645 -0.00523856 0)
(0.40441 -0.00643863 0)
(0.405331 -0.00791729 0)
(0.406441 -0.00974327 0)
(0.407781 -0.0120021 0)
(0.409402 -0.0148023 0)
(0.411365 -0.0182845 0)
(0.413772 -0.0226276 0)
(0.416666 -0.0280709 0)
(0.420412 -0.0348978 0)
(0.424561 -0.0435569 0)
(0.431598 -0.05439 0)
(0.400002 -5.42287e-06 0)
(0.400013 -1.83043e-05 0)
(0.400037 -4.19665e-05 0)
(0.400072 -8.16856e-05 0)
(0.400116 -0.000140175 0)
(0.400169 -0.00021897 0)
(0.400233 -0.000319827 0)
(0.40031 -0.000444998 0)
(0.400401 -0.000597137 0)
(0.40051 -0.000779969 0)
(0.40064 -0.000999197 0)
(0.400793 -0.00126281 0)
(0.400976 -0.00158101 0)
(0.401193 -0.00196623 0)
(0.401452 -0.00243351 0)
(0.40176 -0.00300117 0)
(0.402129 -0.00369206 0)
(0.402569 -0.00453502 0)
(0.403096 -0.00556649 0)
(0.403727 -0.00683234 0)
(0.404482 -0.00839006 0)
(0.405386 -0.0103113 0)
(0.406468 -0.0126856 0)
(0.407767 -0.0156267 0)
(0.409324 -0.0192815 0)
(0.411216 -0.0238383 0)
(0.413456 -0.0295485 0)
(0.416351 -0.0367271 0)
(0.419446 -0.0458128 0)
(0.42499 -0.0574253 0)
(0.400002 -8.4757e-06 0)
(0.400011 -2.74175e-05 0)
(0.400032 -5.63634e-05 0)
(0.400063 -0.000100532 0)
(0.400103 -0.000163383 0)
(0.40015 -0.000247078 0)
(0.400207 -0.000353572 0)
(0.400273 -0.000485169 0)
(0.400352 -0.000644717 0)
(0.400445 -0.000836222 0)
(0.400554 -0.00106567 0)
(0.400682 -0.0013414 0)
(0.400832 -0.00167405 0)
(0.40101 -0.00207657 0)
(0.401219 -0.00256457 0)
(0.401468 -0.00315705 0)
(0.401762 -0.00387767 0)
(0.402111 -0.00475617 0)
(0.402524 -0.00583006 0)
(0.403015 -0.00714647 0)
(0.403597 -0.00876432 0)
(0.404287 -0.010757 0)
(0.405102 -0.0132167 0)
(0.406067 -0.0162597 0)
(0.407202 -0.0200369 0)
(0.408558 -0.0247418 0)
(0.410119 -0.030633 0)
(0.412118 -0.0380486 0)
(0.414106 -0.0474143 0)
(0.41801 -0.0595914 0)
(0.400002 -1.12134e-05 0)
(0.40001 -3.54132e-05 0)
(0.400028 -6.90371e-05 0)
(0.400056 -0.000117337 0)
(0.400091 -0.000184054 0)
(0.400133 -0.000271781 0)
(0.400182 -0.000382768 0)
(0.400238 -0.000519432 0)
(0.400304 -0.000684734 0)
(0.40038 -0.000882876 0)
(0.400467 -0.00112008 0)
(0.400569 -0.00140494 0)
(0.400686 -0.00174843 0)
(0.400822 -0.00216386 0)
(0.400981 -0.00266723 0)
(0.401167 -0.00327799 0)
(0.401384 -0.00402028 0)
(0.401638 -0.00492437 0)
(0.401936 -0.00602839 0)
(0.402283 -0.00738005 0)
(0.402688 -0.0090389 0)
(0.403158 -0.011079 0)
(0.4037 -0.0135931 0)
(0.404324 -0.0166985 0)
(0.40503 -0.0205464 0)
(0.405839 -0.0253315 0)
(0.406706 -0.0313137 0)
(0.407783 -0.0388438 0)
(0.408635 -0.0483286 0)
(0.410789 -0.060822 0)
(0.400002 -1.3621e-05 0)
(0.400009 -4.2489e-05 0)
(0.400025 -8.03226e-05 0)
(0.40005 -0.000132251 0)
(0.400081 -0.000202175 0)
(0.400117 -0.000293048 0)
(0.400158 -0.00040738 0)
(0.400204 -0.00054768 0)
(0.400256 -0.000716992 0)
(0.400315 -0.000919656 0)
(0.400381 -0.00116206 0)
(0.400455 -0.00145299 0)
(0.400538 -0.0018036 0)
(0.400632 -0.00222741 0)
(0.400739 -0.00274062 0)
(0.400861 -0.0033629 0)
(0.401 -0.00411858 0)
(0.401158 -0.0050381 0)
(0.401337 -0.00615966 0)
(0.401539 -0.00753099 0)
(0.401765 -0.00921139 0)
(0.402013 -0.0112744 0)
(0.402281 -0.013812 0)
(0.402561 -0.0169397 0)
(0.402838 -0.0208063 0)
(0.403098 -0.0256031 0)
(0.403273 -0.0315843 0)
(0.403422 -0.0391021 0)
(0.403136 -0.0485368 0)
(0.403478 -0.0610716 0)
(0.400001 -1.57679e-05 0)
(0.400008 -4.88267e-05 0)
(0.400023 -9.03825e-05 0)
(0.400045 -0.000145387 0)
(0.400071 -0.000217825 0)
(0.400102 -0.000310916 0)
(0.400135 -0.000427384 0)
(0.400171 -0.000569834 0)
(0.40021 -0.000741362 0)
(0.400251 -0.00094639 0)
(0.400295 -0.0011914 0)
(0.400341 -0.00148527 0)
(0.40039 -0.00183922 0)
(0.400442 -0.00226682 0)
(0.400497 -0.00278429 0)
(0.400554 -0.00341129 0)
(0.400614 -0.00417204 0)
(0.400675 -0.0050968 0)
(0.400735 -0.00622339 0)
(0.400792 -0.0075989 0)
(0.400838 -0.0092816 0)
(0.400866 -0.0113435 0)
(0.400861 -0.0138739 0)
(0.400803 -0.0169847 0)
(0.400655 -0.0208191 0)
(0.400378 -0.0255602 0)
(0.399875 -0.0314498 0)
(0.399113 -0.0388286 0)
(0.397716 -0.0480409 0)
(0.396249 -0.0603272 0)
(0.400001 -1.77134e-05 0)
(0.400007 -5.45647e-05 0)
(0.400021 -9.93881e-05 0)
(0.40004 -0.000156897 0)
(0.400063 -0.000231105 0)
(0.400088 -0.000325438 0)
(0.400114 -0.000442808 0)
(0.40014 -0.000585895 0)
(0.400165 -0.000757815 0)
(0.400189 -0.00096302 0)
(0.40021 -0.00120802 0)
(0.400229 -0.00150168 0)
(0.400244 -0.00185516 0)
(0.400253 -0.00228194 0)
(0.400255 -0.0027981 0)
(0.400249 -0.00342303 0)
(0.40023 -0.0041806 0)
(0.400194 -0.00510051 0)
(0.400137 -0.00621978 0)
(0.400049 -0.00758426 0)
(0.399919 -0.00925043 0)
(0.39973 -0.0112876 0)
(0.399458 -0.0137813 0)
(0.399069 -0.0168377 0)
(0.398512 -0.0205911 0)
(0.397717 -0.0252122 0)
(0.396565 -0.0309235 0)
(0.394935 -0.0380417 0)
(0.392484 -0.0468646 0)
(0.38928 -0.0586121 0)
(0.400001 -1.95109e-05 0)
(0.400007 -5.98444e-05 0)
(0.400019 -0.00010752 0)
(0.400037 -0.000166948 0)
(0.400056 -0.000242139 0)
(0.400076 -0.000336711 0)
(0.400095 -0.000453733 0)
(0.40011 -0.000595928 0)
(0.400122 -0.000766402 0)
(0.400129 -0.00096959 0)
(0.400129 -0.00121196 0)
(0.40012 -0.00150227 0)
(0.4001 -0.00185151 0)
(0.400067 -0.00227292 0)
(0.400018 -0.00278224 0)
(0.399948 -0.00339842 0)
(0.399851 -0.0041447 0)
(0.399721 -0.00504991 0)
(0.399548 -0.00614981 0)
(0.399319 -0.00748853 0)
(0.399017 -0.00912006 0)
(0.398618 -0.0111102 0)
(0.398089 -0.0135392 0)
(0.397383 -0.0165057 0)
(0.396436 -0.0201328 0)
(0.395152 -0.0245749 0)
(0.393394 -0.0300286 0)
(0.390962 -0.0367748 0)
(0.387545 -0.0450549 0)
(0.382747 -0.0559908 0)
(0.400001 -2.12166e-05 0)
(0.400007 -6.48202e-05 0)
(0.400018 -0.000114978 0)
(0.400034 -0.000175723 0)
(0.400051 -0.000251077 0)
(0.400066 -0.000344864 0)
(0.400077 -0.000460286 0)
(0.400083 -0.000600067 0)
(0.400082 -0.000767265 0)
(0.400072 -0.000966258 0)
(0.40005 -0.00120341 0)
(0.400014 -0.00148728 0)
(0.399962 -0.00182857 0)
(0.399888 -0.00224014 0)
(0.399788 -0.00273722 0)
(0.399655 -0.00333814 0)
(0.399483 -0.00406526 0)
(0.399261 -0.00494623 0)
(0.398976 -0.00601522 0)
(0.39861 -0.00731412 0)
(0.398143 -0.00889384 0)
(0.397542 -0.0108158 0)
(0.396768 -0.0131542 0)
(0.395764 -0.0159986 0)
(0.394452 -0.0194587 0)
(0.392717 -0.0236692 0)
(0.390408 -0.0287963 0)
(0.387258 -0.0350744 0)
(0.382992 -0.0426806 0)
(0.376813 -0.0525681 0)
(0.400001 -2.28957e-05 0)
(0.400006 -6.96727e-05 0)
(0.400018 -0.000121986 0)
(0.400033 -0.000183428 0)
(0.400047 -0.000258093 0)
(0.400058 -0.000350064 0)
(0.400062 -0.000462639 0)
(0.400059 -0.000598496 0)
(0.400045 -0.000760615 0)
(0.400019 -0.000953286 0)
(0.399976 -0.0011827 0)
(0.399914 -0.00145713 0)
(0.399829 -0.00178685 0)
(0.399715 -0.00218423 0)
(0.399566 -0.00266386 0)
(0.399374 -0.00324324 0)
(0.399129 -0.00394364 0)
(0.398818 -0.00479128 0)
(0.398425 -0.00581838 0)
(0.39793 -0.00706422 0)
(0.397305 -0.00857613 0)
(0.396514 -0.0104106 0)
(0.39551 -0.0126348 0)
(0.394228 -0.0153283 0)
(0.392582 -0.0185861 0)
(0.390441 -0.0225209 0)
(0.387644 -0.0272648 0)
(0.383879 -0.0329987 0)
(0.378902 -0.0398297 0)
(0.371612 -0.0484856 0)
(0.400001 -2.46312e-05 0)
(0.400007 -7.4626e-05 0)
(0.400019 -0.000128809 0)
(0.400033 -0.000190289 0)
(0.400045 -0.000263384 0)
(0.400052 -0.000352512 0)
(0.40005 -0.000461022 0)
(0.400038 -0.00059148 0)
(0.400012 -0.000746751 0)
(0.39997 -0.000931023 0)
(0.399908 -0.00115027 0)
(0.399821 -0.00141235 0)
(0.399705 -0.00172705 0)
(0.399553 -0.00210609 0)
(0.399357 -0.0025633 0)
(0.399108 -0.00311516 0)
(0.398793 -0.00378167 0)
(0.398398 -0.00458738 0)
(0.397903 -0.00556231 0)
(0.397285 -0.00674278 0)
(0.396512 -0.00817219 0)
(0.395543 -0.00990164 0)
(0.394327 -0.0119908 0)
(0.392792 -0.0145088 0)
(0.390844 -0.0175348 0)
(0.388347 -0.021159 0)
(0.385132 -0.0254778 0)
(0.380863 -0.0306142 0)
(0.375329 -0.0366043 0)
(0.367236 -0.0439129 0)
(0.400001 -2.65372e-05 0)
(0.400008 -7.99706e-05 0)
(0.40002 -0.000135762 0)
(0.400035 -0.000196546 0)
(0.400046 -0.000267168 0)
(0.400049 -0.000352459 0)
(0.400041 -0.000455689 0)
(0.40002 -0.00057929 0)
(0.399984 -0.000726022 0)
(0.399927 -0.000899925 0)
(0.399846 -0.00110667 0)
(0.399735 -0.00135363 0)
(0.39959 -0.00165001 0)
(0.399402 -0.00200681 0)
(0.399162 -0.00243691 0)
(0.398859 -0.00295567 0)
(0.398479 -0.00358163 0)
(0.398005 -0.00433748 0)
(0.397415 -0.00525079 0)
(0.396682 -0.00635469 0)
(0.395771 -0.00768835 0)
(0.39464 -0.00929727 0)
(0.39323 -0.0112334 0)
(0.391467 -0.0135552 0)
(0.389254 -0.0163264 0)
(0.38645 -0.0196144 0)
(0.38289 -0.0234811 0)
(0.378234 -0.0279913 0)
(0.372304 -0.0331142 0)
(0.363732 -0.0390356 0)
(0.400002 -2.87733e-05 0)
(0.400009 -8.61114e-05 0)
(0.400024 -0.000143223 0)
(0.40004 -0.000202459 0)
(0.400049 -0.000269582 0)
(0.400048 -0.000350071 0)
(0.400036 -0.000447008 0)
(0.400008 -0.00056242 0)
(0.399961 -0.000698981 0)
(0.39989 -0.000860619 0)
(0.399792 -0.00105262 0)
(0.399659 -0.00128182 0)
(0.399486 -0.00155672 0)
(0.399265 -0.0018875 0)
(0.398984 -0.00228599 0)
(0.398631 -0.00276628 0)
(0.39819 -0.00334535 0)
(0.397643 -0.00404387 0)
(0.396965 -0.0048868 0)
(0.396126 -0.00590393 0)
(0.395091 -0.00713008 0)
(0.393811 -0.00860503 0)
(0.392228 -0.0103732 0)
(0.390263 -0.0124825 0)
(0.387821 -0.014982 0)
(0.384762 -0.017918 0)
(0.380929 -0.0213207 0)
(0.375999 -0.0252009 0)
(0.369827 -0.029469 0)
(0.361092 -0.0340411 0)
(0.400002 -3.15901e-05 0)
(0.400012 -9.36062e-05 0)
(0.40003 -0.000151665 0)
(0.400048 -0.000208305 0)
(0.400057 -0.00027096 0)
(0.400053 -0.000345695 0)
(0.400036 -0.000435161 0)
(0.400001 -0.000541009 0)
(0.399944 -0.000665925 0)
(0.399861 -0.000813719 0)
(0.399746 -0.00098919 0)
(0.399594 -0.00119847 0)
(0.399396 -0.00144934 0)
(0.399144 -0.00175104 0)
(0.398825 -0.00211425 0)
(0.398426 -0.00255163 0)
(0.39793 -0.00307847 0)
(0.397316 -0.00371326 0)
(0.396558 -0.00447823 0)
(0.395625 -0.00539968 0)
(0.394477 -0.00650801 0)
(0.393065 -0.0078374 0)
(0.391328 -0.00942493 0)
(0.389189 -0.0113089 0)
(0.386553 -0.0135251 0)
(0.383287 -0.0161013 0)
(0.379248 -0.0190415 0)
(0.374145 -0.0223094 0)
(0.367873 -0.0257706 0)
(0.359253 -0.0291025 0)
(0.400003 -3.54551e-05 0)
(0.400016 -0.000103136 0)
(0.400039 -0.000161439 0)
(0.40006 -0.000214329 0)
(0.400069 -0.000271863 0)
(0.400063 -0.000340078 0)
(0.400041 -0.000420731 0)
(0.4 -0.000515359 0)
(0.399935 -0.000626746 0)
(0.399841 -0.000758519 0)
(0.399711 -0.000914946 0)
(0.399541 -0.00110142 0)
(0.39932 -0.00132496 0)
(0.39904 -0.00159384 0)
(0.398688 -0.00191748 0)
(0.398248 -0.00230712 0)
(0.397702 -0.00277624 0)
(0.397028 -0.00334108 0)
(0.396199 -0.00402105 0)
(0.395182 -0.00483898 0)
(0.393934 -0.00582089 0)
(0.392407 -0.00699554 0)
(0.390537 -0.00839324 0)
(0.38825 -0.0100436 0)
(0.385453 -0.011971 0)
(0.382024 -0.0141882 0)
(0.377837 -0.0166799 0)
(0.372649 -0.019373 0)
(0.366393 -0.0221047 0)
(0.358107 -0.0243649 0)
(0.400004 -4.1164e-05 0)
(0.400023 -0.000116024 0)
(0.400053 -0.000172798 0)
(0.400078 -0.000220129 0)
(0.400087 -0.000271985 0)
(0.400079 -0.000333648 0)
(0.400055 -0.000405587 0)
(0.400009 -0.000489179 0)
(0.399936 -0.000587175 0)
(0.399832 -0.00070287 0)
(0.39969 -0.000839888 0)
(0.399503 -0.00100287 0)
(0.399263 -0.00119806 0)
(0.398958 -0.00143246 0)
(0.398576 -0.00171419 0)
(0.3981 -0.00205297 0)
(0.397511 -0.00246043 0)
(0.396785 -0.00295045 0)
(0.395894 -0.00353957 0)
(0.394803 -0.00424706 0)
(0.393469 -0.0050947 0)
(0.391842 -0.00610611 0)
(0.389861 -0.00730548 0)
(0.387449 -0.0087148 0)
(0.384522 -0.0103492 0)
(0.380967 -0.0122107 0)
(0.37668 -0.0142732 0)
(0.371472 -0.0164394 0)
(0.365317 -0.0185388 0)
(0.357527 -0.0199376 0)
(0.400007 -4.99777e-05 0)
(0.400034 -0.00013435 0)
(0.400076 -0.000187117 0)
(0.400105 -0.00022574 0)
(0.400113 -0.000268581 0)
(0.400104 -0.000319838 0)
(0.400076 -0.000379213 0)
(0.400026 -0.000448191 0)
(0.399947 -0.00052944 0)
(0.399834 -0.000625872 0)
(0.399681 -0.000740031 0)
(0.399481 -0.000875827 0)
(0.399224 -0.00103918 0)
(0.398899 -0.00123577 0)
(0.398491 -0.00147207 0)
(0.397984 -0.0017562 0)
(0.397358 -0.00209789 0)
(0.396588 -0.00250869 0)
(0.395645 -0.00300224 0)
(0.394492 -0.00359434 0)
(0.393087 -0.00430263 0)
(0.391377 -0.00514593 0)
(0.389303 -0.00614309 0)
(0.386793 -0.0073099 0)
(0.383764 -0.00865449 0)
(0.380117 -0.0101712 0)
(0.37577 -0.0118323 0)
(0.370599 -0.0135276 0)
(0.364617 -0.0151084 0)
(0.35744 -0.0158868 0)
(0.400011 -6.36192e-05 0)
(0.400054 -0.00015921 0)
(0.400112 -0.000209363 0)
(0.400147 -0.000245441 0)
(0.400155 -0.000285001 0)
(0.400144 -0.000329274 0)
(0.400115 -0.000378482 0)
(0.400061 -0.000434869 0)
(0.399977 -0.000500779 0)
(0.399857 -0.000579308 0)
(0.399696 -0.000672083 0)
(0.399484 -0.000781 0)
(0.399213 -0.000911505 0)
(0.39887 -0.00106857 0)
(0.398443 -0.00125737 0)
(0.397911 -0.00148425 0)
(0.397256 -0.00175688 0)
(0.396451 -0.0020844 0)
(0.395466 -0.00247755 0)
(0.394265 -0.0029487 0)
(0.392805 -0.00351152 0)
(0.391034 -0.00418041 0)
(0.388893 -0.00496945 0)
(0.386314 -0.00588914 0)
(0.383223 -0.00694372 0)
(0.379535 -0.00812724 0)
(0.375199 -0.00942178 0)
(0.370148 -0.0107057 0)
(0.364443 -0.0118765 0)
(0.357942 -0.0122519 0)
(0.400018 -8.94455e-05 0)
(0.400085 -0.00017138 0)
(0.400159 -0.000194908 0)
(0.400198 -0.000218371 0)
(0.400207 -0.000249506 0)
(0.400197 -0.000282944 0)
(0.400167 -0.00031892 0)
(0.400111 -0.000360228 0)
(0.400023 -0.000408826 0)
(0.399897 -0.00046566 0)
(0.399729 -0.00053347 0)
(0.39951 -0.000615642 0)
(0.399229 -0.000713658 0)
(0.398873 -0.000830472 0)
(0.39843 -0.000970515 0)
(0.397881 -0.00113874 0)
(0.397204 -0.00134081 0)
(0.396374 -0.00158345 0)
(0.39536 -0.0018745 0)
(0.394128 -0.00222296 0)
(0.392634 -0.00263874 0)
(0.39083 -0.00313248 0)
(0.38866 -0.0037149 0)
(0.386065 -0.0043924 0)
(0.382982 -0.00516525 0)
(0.379346 -0.00603513 0)
(0.375139 -0.00701337 0)
(0.370266 -0.00797947 0)
(0.364874 -0.00886162 0)
(0.358623 -0.00887683 0)
(0.400027 -0.000158703 0)
(0.400181 -0.00030068 0)
(0.40028 -0.00028971 0)
(0.400289 -0.000295327 0)
(0.400277 -0.000313244 0)
(0.40025 -0.000333214 0)
(0.4002 -0.000354854 0)
(0.400121 -0.000379591 0)
(0.400006 -0.000408962 0)
(0.399852 -0.00044901 0)
(0.39965 -0.000491841 0)
(0.399392 -0.000537645 0)
(0.399069 -0.000599072 0)
(0.398666 -0.000673356 0)
(0.39817 -0.000762692 0)
(0.397561 -0.00087043 0)
(0.396819 -0.00100046 0)
(0.395917 -0.00115744 0)
(0.394826 -0.00134685 0)
(0.39351 -0.00157497 0)
(0.391928 -0.00184882 0)
(0.390032 -0.00217608 0)
(0.387766 -0.00256455 0)
(0.385071 -0.00302012 0)
(0.381885 -0.00354378 0)
(0.378141 -0.00413096 0)
(0.373757 -0.00477399 0)
(0.368483 -0.00536392 0)
(0.362607 -0.00598226 0)
(0.3547 -0.00523038 0)
(0.39965 -0.00011132 0)
(0.399366 -0.000186495 0)
(0.398927 -0.00019925 0)
(0.398417 -0.000205972 0)
(0.397891 -0.000215232 0)
(0.39735 -0.000224454 0)
(0.396784 -0.00023378 0)
(0.396186 -0.00024425 0)
(0.395549 -0.000256174 0)
(0.394868 -0.000268518 0)
(0.394133 -0.000283775 0)
(0.393337 -0.000304473 0)
(0.392466 -0.000328653 0)
(0.391505 -0.000356427 0)
(0.390433 -0.000389533 0)
(0.389229 -0.000429651 0)
(0.387864 -0.000478426 0)
(0.386304 -0.000537788 0)
(0.384509 -0.000610058 0)
(0.382428 -0.000697989 0)
(0.380002 -0.000804818 0)
(0.377162 -0.000934057 0)
(0.373826 -0.00108909 0)
(0.369904 -0.00127412 0)
(0.365296 -0.00149244 0)
(0.359913 -0.00173403 0)
(0.353695 -0.00197516 0)
(0.346646 -0.00215409 0)
(0.339078 -0.00240566 0)
(0.327678 -0.00175667 0)
(0.465282 -0.00652353 4.55713e-21)
(0.470881 -0.00993019 -1.94682e-17)
(0.475953 -0.0140237 1.96226e-17)
(0.480086 -0.0185952 9.89586e-18)
(0.483696 -0.0235738 7.49398e-18)
(0.487018 -0.0289332 1.51451e-17)
(0.490112 -0.0346982 7.64518e-18)
(0.493019 -0.0409194 2.06226e-17)
(0.495796 -0.0476426 1.04322e-17)
(0.498484 -0.0549007 5.26788e-18)
(0.50109 -0.0627225 -5.33577e-18)
(0.503601 -0.0711413 1.07856e-17)
(0.505995 -0.0801994 5.47813e-18)
(0.508257 -0.0899503 5.53999e-18)
(0.510375 -0.100461 1.12163e-17)
(0.512345 -0.111814 5.6955e-18)
(0.514164 -0.124111 1.72687e-17)
(0.515833 -0.137476 0)
(0.517353 -0.15206 0)
(0.518729 -0.168053 5.97325e-18)
(0.519969 -0.185691 -2.15959e-20)
(0.52108 -0.205275 6.15282e-18)
(0.522092 -0.22718 0)
(0.522986 -0.25193 1.25371e-17)
(0.523938 -0.280042 6.32008e-18)
(0.524396 -0.312885 -6.42944e-18)
(0.526591 -0.349255 6.42463e-18)
(0.522603 -0.40093 6.47298e-18)
(0.535943 -0.43246 1.92883e-17)
(0.502223 -0.554822 -6.29747e-18)
(0.470967 -0.0142714 -9.77061e-18)
(0.474538 -0.0179882 1.10897e-17)
(0.477534 -0.0224764 -1.12017e-17)
(0.480004 -0.0273445 0)
(0.482298 -0.0325127 -1.01861e-17)
(0.484577 -0.0380286 -1.02908e-17)
(0.486842 -0.0439603 -2.60282e-18)
(0.489072 -0.05035 -1.84407e-17)
(0.491258 -0.0572174 -1.06569e-17)
(0.493377 -0.0645793 -1.08051e-17)
(0.495393 -0.0724626 5.46297e-18)
(0.497269 -0.0809064 -5.53945e-18)
(0.498982 -0.0899605 -1.12059e-17)
(0.500516 -0.0996845 -1.13564e-17)
(0.501861 -0.110149 -1.15125e-17)
(0.503008 -0.121438 -1.16742e-17)
(0.503942 -0.133653 -2.37197e-17)
(0.50465 -0.146917 6.01094e-18)
(0.505113 -0.161381 -6.11297e-18)
(0.50531 -0.17723 -1.86119e-17)
(0.505218 -0.194698 1.92931e-20)
(0.504806 -0.214076 -3.53958e-20)
(0.504042 -0.235728 -2.93133e-20)
(0.502856 -0.260149 -1.97701e-17)
(0.501264 -0.28785 -1.33646e-17)
(0.498797 -0.320003 -6.69946e-18)
(0.496781 -0.356044 8.65964e-20)
(0.489074 -0.404243 -9.16425e-20)
(0.495431 -0.439373 -2.06419e-17)
(0.456394 -0.55161 0)
(0.468699 -0.0214162 0)
(0.471098 -0.0250919 0)
(0.473246 -0.0295466 0)
(0.475304 -0.0344271 -1.28453e-18)
(0.477368 -0.0396463 1.16972e-17)
(0.479431 -0.0452285 -2.63009e-18)
(0.481438 -0.051207 2.66422e-18)
(0.483341 -0.057599 1.07785e-17)
(0.485113 -0.0644233 -2.72954e-18)
(0.486736 -0.0717115 1.38249e-17)
(0.48819 -0.079506 5.60473e-18)
(0.48946 -0.0878548 -5.68745e-18)
(0.490535 -0.0968096 5.76238e-18)
(0.491403 -0.106428 -5.85234e-18)
(0.492046 -0.11678 -1.18904e-17)
(0.492441 -0.127945 1.20737e-17)
(0.492561 -0.140024 1.22248e-17)
(0.492374 -0.153139 0)
(0.491841 -0.167436 0)
(0.49092 -0.183098 1.28259e-17)
(0.489555 -0.20035 0)
(0.487675 -0.219472 1.99501e-17)
(0.485194 -0.240812 6.76971e-18)
(0.481979 -0.264827 1.36999e-17)
(0.477924 -0.292026 2.08828e-17)
(0.472563 -0.323386 7.1411e-18)
(0.466583 -0.358799 0)
(0.455338 -0.403999 2.91719e-17)
(0.45382 -0.441798 0)
(0.411489 -0.543114 1.47727e-17)
(0.466187 -0.0287688 0)
(0.468113 -0.0326139 0)
(0.469833 -0.037158 0)
(0.47157 -0.0420838 -1.04978e-17)
(0.473281 -0.0473183 0)
(0.474887 -0.0528865 0)
(0.476355 -0.0588257 0)
(0.477677 -0.0651643 1.1051e-17)
(0.478848 -0.0719309 0)
(0.479857 -0.0791598 0)
(0.48069 -0.0868891 0)
(0.481327 -0.0951598 -1.16983e-17)
(0.481747 -0.104018 -1.18775e-17)
(0.481924 -0.113519 -6.02105e-18)
(0.481826 -0.123731 -3.05928e-20)
(0.48142 -0.134735 -1.24177e-17)
(0.480667 -0.146629 7.18813e-21)
(0.47952 -0.159531 1.93422e-17)
(0.477926 -0.173582 6.54771e-18)
(0.475815 -0.188957 -6.67837e-18)
(0.473104 -0.205867 -6.79103e-18)
(0.469686 -0.224574 -6.88362e-18)
(0.465424 -0.245401 -7.05323e-18)
(0.46013 -0.268763 2.16823e-17)
(0.453593 -0.29514 0)
(0.445348 -0.325329 -2.25293e-17)
(0.435578 -0.35948 -7.67923e-18)
(0.420828 -0.401665 2.10623e-19)
(0.411804 -0.439974 -2.39396e-17)
(0.367269 -0.530258 4.62304e-19)
(0.462796 -0.0357275 0)
(0.464229 -0.0396155 1.04505e-17)
(0.465435 -0.0441323 -1.322e-18)
(0.466711 -0.049017 2.27724e-17)
(0.467957 -0.0542196 0)
(0.469065 -0.0597621 0)
(0.470018 -0.0656738 1.11665e-17)
(0.470823 -0.0719763 -1.13053e-17)
(0.471472 -0.0786918 0)
(0.47194 -0.0858492 0)
(0.472202 -0.0934834 0)
(0.472232 -0.101635 1.20047e-17)
(0.472003 -0.110352 1.21991e-17)
(0.471481 -0.11969 -6.20788e-18)
(0.470632 -0.129716 1.89349e-17)
(0.469414 -0.14051 0)
(0.467777 -0.152163 1.31214e-17)
(0.465662 -0.164788 -2.00219e-17)
(0.462995 -0.178516 -6.80611e-18)
(0.459687 -0.193509 0)
(0.455626 -0.209963 0)
(0.450672 -0.228116 0)
(0.444643 -0.248262 0)
(0.437305 -0.270765 -7.52784e-18)
(0.428361 -0.296059 -7.76361e-18)
(0.417334 -0.324787 7.8896e-18)
(0.404026 -0.357249 8.16997e-18)
(0.385917 -0.396256 -1.66135e-17)
(0.369946 -0.433748 1.70912e-17)
(0.323955 -0.513304 -1.73045e-17)
(0.458617 -0.0423002 -1.05249e-17)
(0.459596 -0.0462308 -9.98561e-18)
(0.460329 -0.0507481 -2.02549e-18)
(0.461174 -0.0556214 -8.20619e-18)
(0.46199 -0.060805 -5.98662e-22)
(0.46264 -0.0663128 -4.22383e-18)
(0.463106 -0.0721676 2.28638e-20)
(0.463403 -0.0783898 -1.16146e-17)
(0.463516 -0.0850032 -8.85057e-18)
(0.463419 -0.0920382 1.19863e-17)
(0.463082 -0.0995309 0)
(0.462478 -0.107522 1.54846e-17)
(0.461576 -0.116056 -1.57571e-17)
(0.46034 -0.125188 -1.28372e-17)
(0.458724 -0.134979 1.96029e-17)
(0.45668 -0.145502 -1.9984e-17)
(0.454144 -0.156843 -6.7606e-18)
(0.451043 -0.169105 -6.9851e-18)
(0.447289 -0.182411 -7.06929e-18)
(0.442771 -0.196906 2.17262e-17)
(0.437355 -0.212765 0)
(0.430868 -0.230201 7.5683e-18)
(0.423096 -0.24947 -1.55263e-17)
(0.41376 -0.270884 1.60145e-17)
(0.402501 -0.294817 8.19915e-18)
(0.388822 -0.321775 1.69441e-17)
(0.372251 -0.352112 0)
(0.350978 -0.387691 1.80849e-17)
(0.328829 -0.423201 0)
(0.282174 -0.492364 -1.93682e-17)
(0.453671 -0.0484067 1.07254e-17)
(0.454207 -0.0523551 5.44545e-18)
(0.454478 -0.0568438 -5.52473e-18)
(0.454887 -0.0616669 4.20547e-18)
(0.455263 -0.0667851 4.41624e-22)
(0.455443 -0.0722112 3.87083e-22)
(0.455411 -0.0779672 -1.02428e-17)
(0.455189 -0.0840737 2.95774e-18)
(0.454764 -0.0905545 1.81428e-17)
(0.454101 -0.0974382 -1.53728e-17)
(0.45317 -0.104758 3.131e-18)
(0.451937 -0.11255 -1.59215e-17)
(0.450369 -0.120858 1.29692e-17)
(0.448419 -0.12973 1.32173e-17)
(0.446039 -0.139224 -6.71531e-18)
(0.443166 -0.149407 1.37551e-17)
(0.43973 -0.160357 0)
(0.435646 -0.172167 7.16436e-18)
(0.43081 -0.184946 7.36243e-18)
(0.425096 -0.198822 -1.50411e-17)
(0.418346 -0.213946 0)
(0.410366 -0.230501 -7.93444e-18)
(0.400911 -0.248701 6.54127e-21)
(0.389669 -0.268804 -1.6734e-17)
(0.376235 -0.291117 1.73378e-17)
(0.360093 -0.316024 -2.68183e-17)
(0.340589 -0.343853 0)
(0.316426 -0.375778 -1.9132e-17)
(0.289003 -0.40838 7.38103e-20)
(0.242293 -0.467613 2.09016e-17)
(0.447978 -0.053947 5.48231e-18)
(0.448084 -0.0578884 -4.85995e-18)
(0.447905 -0.0623221 4.93401e-18)
(0.447884 -0.0670678 -1.14622e-17)
(0.447824 -0.0720931 -5.82644e-18)
(0.447541 -0.0774102 -1.47843e-18)
(0.447022 -0.0830386 6.01922e-18)
(0.446291 -0.0889972 1.3758e-17)