/*--------------------------------*- C++ -*----------------------------------*\
  =========                 |
  \\      /  F ield         | OpenFOAM: The Open Source CFD Toolbox
   \\    /   O peration     | Website:  https://openfoam.org
    \\  /    A nd           | Version:  11
     \\/     M anipulation  |
\*---------------------------------------------------------------------------*/
FoamFile
{
    format      ascii;
    class       surfaceScalarField;
    location    "2.7";
    object      phi;
}
// * * * * * * * * * * * * * * * * * * * * * * * * * * * * * * * * * * * * * //

dimensions      [0 3 -1 0 0 0 0];

internalField   nonuniform List<scalar> 
24840
(
1.57972e-05
1.37199e-08
1.57787e-05
1.85416e-08
1.57614e-05
1.73142e-08
1.57442e-05
1.71519e-08
1.57268e-05
1.74191e-08
1.57093e-05
1.74734e-08
1.5692e-05
1.73964e-08
1.56747e-05
1.72715e-08
1.56576e-05
1.70957e-08
1.56407e-05
1.68523e-08
1.56242e-05
1.65307e-08
1.56081e-05
1.61208e-08
1.55925e-05
1.56005e-08
1.55775e-05
1.49534e-08
1.55634e-05
1.4154e-08
1.55502e-05
1.31701e-08
1.55382e-05
1.20121e-08
1.55276e-05
1.05855e-08
1.55188e-05
8.77065e-09
1.55123e-05
6.54076e-09
1.55085e-05
3.82884e-09
1.55079e-05
5.15534e-10
1.55116e-05
-3.60749e-09
1.55203e-05
-8.74116e-09
1.55354e-05
-1.51296e-08
1.55583e-05
-2.28884e-08
1.55916e-05
-3.32621e-08
1.56374e-05
-4.58064e-08
1.57059e-05
-6.84831e-08
-1.38753e-07
1.58446e-05
1.5817e-05
7.66409e-09
1.58207e-05
1.48878e-08
1.58233e-05
1.46456e-08
1.58257e-05
1.4845e-08
1.58278e-05
1.52438e-08
1.583e-05
1.5318e-08
1.58322e-05
1.51926e-08
1.58345e-05
1.49698e-08
1.58369e-05
1.46354e-08
1.58396e-05
1.41652e-08
1.58426e-05
1.35418e-08
1.5846e-05
1.27467e-08
1.58499e-05
1.17327e-08
1.58543e-05
1.0482e-08
1.58596e-05
8.93254e-09
1.58657e-05
7.04317e-09
1.58729e-05
4.81102e-09
1.58814e-05
2.06276e-09
1.58916e-05
-1.38177e-09
1.59037e-05
-5.61189e-09
1.59183e-05
-1.07583e-08
1.59359e-05
-1.7073e-08
1.59571e-05
-2.48486e-08
1.59828e-05
-3.44403e-08
1.60138e-05
-4.61396e-08
1.60519e-05
-6.09049e-08
1.60969e-05
-7.83217e-08
1.61551e-05
-1.03962e-07
1.62181e-05
-1.31559e-07
-1.62552e-07
1.62419e-05
1.58136e-05
4.98935e-09
1.5817e-05
1.15275e-08
1.58191e-05
1.25215e-08
1.58214e-05
1.26038e-08
1.58236e-05
1.29792e-08
1.58259e-05
1.30967e-08
1.58281e-05
1.29257e-08
1.58305e-05
1.26052e-08
1.5833e-05
1.2138e-08
1.58357e-05
1.14847e-08
1.58386e-05
1.06054e-08
1.58419e-05
9.46829e-09
1.58456e-05
7.98972e-09
1.58499e-05
6.16566e-09
1.5855e-05
3.90918e-09
1.58609e-05
1.15078e-09
1.58678e-05
-2.09863e-09
1.58759e-05
-6.10399e-09
1.58856e-05
-1.10327e-08
1.5897e-05
-1.70761e-08
1.59108e-05
-2.44782e-08
1.59273e-05
-3.35822e-08
1.59472e-05
-4.47954e-08
1.59714e-05
-5.86201e-08
1.60008e-05
-7.55863e-08
1.60366e-05
-9.66538e-08
1.60806e-05
-1.22342e-07
1.61313e-05
-1.54678e-07
1.61937e-05
-1.93968e-07
-2.24629e-07
1.62558e-05
1.58125e-05
3.44776e-09
1.58153e-05
8.74226e-09
1.58174e-05
1.04343e-08
1.58193e-05
1.0638e-08
1.58215e-05
1.08728e-08
1.58236e-05
1.09494e-08
1.58258e-05
1.07355e-08
1.58281e-05
1.03153e-08
1.58305e-05
9.7099e-09
1.58331e-05
8.87138e-09
1.5836e-05
7.73984e-09
1.58392e-05
6.2619e-09
1.58429e-05
4.32693e-09
1.58471e-05
1.96482e-09
1.58519e-05
-9.66799e-10
1.58576e-05
-4.54659e-09
1.58643e-05
-8.81204e-09
1.58723e-05
-1.40136e-08
1.58816e-05
-2.03764e-08
1.58927e-05
-2.81744e-08
1.5906e-05
-3.77505e-08
1.59219e-05
-4.9541e-08
1.59412e-05
-6.4071e-08
1.59646e-05
-8.1978e-08
1.5993e-05
-1.03991e-07
1.60274e-05
-1.31112e-07
1.60694e-05
-1.64303e-07
1.61192e-05
-2.04523e-07
1.61802e-05
-2.54976e-07
-2.97244e-07
1.62528e-05
1.58119e-05
2.49545e-09
1.5814e-05
6.66117e-09
1.58159e-05
8.50768e-09
1.58177e-05
8.84221e-09
1.58197e-05
8.91543e-09
1.58217e-05
8.88273e-09
1.58239e-05
8.60717e-09
1.58261e-05
8.08969e-09
1.58285e-05
7.34735e-09
1.5831e-05
6.32648e-09
1.58338e-05
4.95207e-09
1.58369e-05
3.15717e-09
1.58405e-05
7.59408e-10
1.58445e-05
-2.1102e-09
1.58493e-05
-5.69169e-09
1.58548e-05
-1.00372e-08
1.58612e-05
-1.52609e-08
1.58688e-05
-2.15965e-08
1.58777e-05
-2.93297e-08
1.58884e-05
-3.88071e-08
1.59011e-05
-5.04556e-08
1.59163e-05
-6.48017e-08
1.59348e-05
-8.24816e-08
1.5957e-05
-1.04263e-07
1.59841e-05
-1.3105e-07
1.60169e-05
-1.63952e-07
1.60569e-05
-2.04263e-07
1.61052e-05
-2.52796e-07
1.61639e-05
-3.13752e-07
-3.71003e-07
1.62377e-05
1.58116e-05
1.86356e-09
1.58132e-05
5.08015e-09
1.58149e-05
6.76151e-09
1.58166e-05
7.13645e-09
1.58185e-05
7.08309e-09
1.58204e-05
6.91369e-09
1.58225e-05
6.54765e-09
1.58247e-05
5.93197e-09
1.58269e-05
5.0552e-09
1.58294e-05
3.85587e-09
1.58321e-05
2.23636e-09
1.58351e-05
1.62899e-10
1.58385e-05
-2.63733e-09
1.58424e-05
-6.02066e-09
1.58469e-05
-1.02039e-08
1.58522e-05
-1.52776e-08
1.58583e-05
-2.13925e-08
1.58655e-05
-2.87963e-08
1.5874e-05
-3.78196e-08
1.58841e-05
-4.88711e-08
1.58961e-05
-6.24554e-08
1.59105e-05
-7.91899e-08
1.59278e-05
-9.98188e-08
1.59488e-05
-1.25233e-07
1.59742e-05
-1.56496e-07
1.60051e-05
-1.94866e-07
1.60428e-05
-2.41913e-07
1.60887e-05
-2.98683e-07
1.61447e-05
-3.69816e-07
-4.42558e-07
1.62163e-05
1.58114e-05
1.40825e-09
1.58127e-05
3.84474e-09
1.58142e-05
5.22042e-09
1.58158e-05
5.54068e-09
1.58175e-05
5.37465e-09
1.58194e-05
5.05893e-09
1.58213e-05
4.5793e-09
1.58234e-05
3.86028e-09
1.58256e-05
2.85562e-09
1.5828e-05
1.49103e-09
1.58305e-05
-3.46788e-10
1.58334e-05
-2.73804e-09
1.58367e-05
-5.86957e-09
1.58404e-05
-9.73575e-09
1.58447e-05
-1.4475e-08
1.58496e-05
-2.02229e-08
1.58554e-05
-2.71569e-08
1.58621e-05
-3.55458e-08
1.58701e-05
-4.5759e-08
1.58795e-05
-5.82636e-08
1.58906e-05
-7.36353e-08
1.5904e-05
-9.25737e-08
1.59201e-05
-1.1592e-07
1.59396e-05
-1.44683e-07
1.59631e-05
-1.80072e-07
1.59918e-05
-2.23522e-07
1.60267e-05
-2.76854e-07
1.60696e-05
-3.41532e-07
1.61221e-05
-4.22351e-07
-5.10103e-07
1.61897e-05
1.58113e-05
1.05798e-09
1.58123e-05
2.85174e-09
1.58137e-05
3.87231e-09
1.58151e-05
4.05925e-09
1.58167e-05
3.77181e-09
1.58185e-05
3.30913e-09
1.58204e-05
2.70306e-09
1.58224e-05
1.87528e-09
1.58245e-05
7.46875e-10
1.58267e-05
-7.74699e-10
1.58292e-05
-2.8146e-09
1.58319e-05
-5.48509e-09
1.5835e-05
-8.93225e-09
1.58385e-05
-1.32249e-08
1.58425e-05
-1.84749e-08
1.58471e-05
-2.48356e-08
1.58525e-05
-3.25096e-08
1.58587e-05
-4.17906e-08
1.5866e-05
-5.30823e-08
1.58747e-05
-6.69016e-08
1.58849e-05
-8.38869e-08
1.58972e-05
-1.04813e-07
1.59118e-05
-1.30612e-07
1.59296e-05
-1.62399e-07
1.5951e-05
-2.01524e-07
1.59771e-05
-2.49598e-07
1.60089e-05
-3.0868e-07
1.60481e-05
-3.80711e-07
1.60963e-05
-4.70532e-07
-5.72452e-07
1.61586e-05
1.58112e-05
7.74995e-10
1.58121e-05
2.02958e-09
1.58133e-05
2.6889e-09
1.58146e-05
2.69077e-09
1.58161e-05
2.26683e-09
1.58178e-05
1.66073e-09
1.58196e-05
9.25191e-10
1.58214e-05
-1.29068e-11
1.58234e-05
-1.25834e-09
1.58256e-05
-2.92406e-09
1.58279e-05
-5.1477e-09
1.58305e-05
-8.06189e-09
1.58334e-05
-1.18016e-08
1.58366e-05
-1.64673e-08
1.58403e-05
-2.21719e-08
1.58446e-05
-2.90771e-08
1.58495e-05
-3.74061e-08
1.58551e-05
-4.7476e-08
1.58618e-05
-5.97212e-08
1.58696e-05
-7.47016e-08
1.58788e-05
-9.31109e-08
1.58898e-05
-1.1579e-07
1.59029e-05
-1.43749e-07
1.59187e-05
-1.78202e-07
1.59378e-05
-2.20621e-07
1.5961e-05
-2.72789e-07
1.59893e-05
-3.36988e-07
1.60242e-05
-4.15632e-07
1.60673e-05
-5.13557e-07
-6.28533e-07
1.61233e-05
1.58112e-05
5.37268e-10
1.58119e-05
1.32952e-09
1.5813e-05
1.64083e-09
1.58142e-05
1.42948e-09
1.58156e-05
8.55617e-10
1.58172e-05
1.10374e-10
1.58189e-05
-7.51784e-10
1.58206e-05
-1.80011e-09
1.58225e-05
-3.15482e-09
1.58246e-05
-4.95067e-09
1.58268e-05
-7.33753e-09
1.58292e-05
-1.04619e-08
1.58318e-05
-1.44596e-08
1.58348e-05
-1.94462e-08
1.58382e-05
-2.55431e-08
1.5842e-05
-3.29183e-08
1.58464e-05
-4.18106e-08
1.58515e-05
-5.25579e-08
1.58574e-05
-6.56213e-08
1.58643e-05
-8.15968e-08
1.58724e-05
-1.01224e-07
1.5882e-05
-1.25399e-07
1.58935e-05
-1.552e-07
1.59072e-05
-1.91923e-07
1.59237e-05
-2.3715e-07
1.59437e-05
-2.92816e-07
1.59681e-05
-3.614e-07
1.59983e-05
-4.45759e-07
1.60354e-05
-5.50694e-07
-6.77307e-07
1.60842e-05
1.58112e-05
3.3077e-10
1.58118e-05
7.18536e-10
1.58127e-05
7.01908e-10
1.58139e-05
2.65606e-10
1.58152e-05
-4.66288e-10
1.58167e-05
-1.34615e-09
1.58182e-05
-2.32848e-09
1.58199e-05
-3.48217e-09
1.58217e-05
-4.93764e-09
1.58236e-05
-6.8475e-09
1.58256e-05
-9.3742e-09
1.58279e-05
-1.26748e-08
1.58303e-05
-1.689e-08
1.5833e-05
-2.21439e-08
1.5836e-05
-2.85661e-08
1.58394e-05
-3.6331e-08
1.58433e-05
-4.56892e-08
1.58477e-05
-5.69955e-08
1.58528e-05
-7.07329e-08
1.58588e-05
-8.75261e-08
1.58657e-05
-1.08151e-07
1.58739e-05
-1.3355e-07
1.58835e-05
-1.64852e-07
1.5895e-05
-2.03423e-07
1.59088e-05
-2.5093e-07
1.59254e-05
-3.09437e-07
1.59456e-05
-3.81584e-07
1.59704e-05
-4.70615e-07
1.6001e-05
-5.81269e-07
-7.17749e-07
1.60415e-05
1.58112e-05
1.45089e-10
1.58117e-05
1.74156e-10
1.58125e-05
-1.49515e-10
1.58136e-05
-8.11661e-10
1.58149e-05
-1.70444e-09
1.58162e-05
-2.71314e-09
1.58177e-05
-3.80687e-09
1.58193e-05
-5.05752e-09
1.58209e-05
-6.603e-09
1.58227e-05
-8.60938e-09
1.58246e-05
-1.12507e-08
1.58266e-05
-1.46925e-08
1.58288e-05
-1.90811e-08
1.58312e-05
-2.45462e-08
1.58339e-05
-3.12239e-08
1.58368e-05
-3.92943e-08
1.58401e-05
-4.90163e-08
1.58439e-05
-6.07575e-08
1.58482e-05
-7.50176e-08
1.58531e-05
-9.24428e-08
1.58588e-05
-1.13836e-07
1.58654e-05
-1.40171e-07
1.58732e-05
-1.72618e-07
1.58823e-05
-2.12587e-07
1.58932e-05
-2.61813e-07
1.59062e-05
-3.22452e-07
1.59219e-05
-3.97265e-07
1.59411e-05
-4.89802e-07
1.59646e-05
-6.04708e-07
-7.48933e-07
1.59957e-05
1.58111e-05
-2.86375e-11
1.58116e-05
-3.19444e-10
1.58124e-05
-9.3057e-10
1.58134e-05
-1.8131e-09
1.58146e-05
-2.86496e-09
1.58159e-05
-3.99572e-09
1.58172e-05
-5.19046e-09
1.58187e-05
-6.52698e-09
1.58203e-05
-8.14921e-09
1.58219e-05
-1.0233e-08
1.58236e-05
-1.29619e-08
1.58254e-05
-1.65085e-08
1.58274e-05
-2.10237e-08
1.58294e-05
-2.66415e-08
1.58317e-05
-3.35027e-08
1.58342e-05
-4.17912e-08
1.5837e-05
-5.17715e-08
1.584e-05
-6.38196e-08
1.58435e-05
-7.8446e-08
1.58473e-05
-9.63108e-08
1.58517e-05
-1.18234e-07
1.58568e-05
-1.45209e-07
1.58626e-05
-1.78428e-07
1.58693e-05
-2.19332e-07
1.58772e-05
-2.69691e-07
1.58865e-05
-3.31715e-07
1.58974e-05
-4.08237e-07
1.59107e-05
-5.03015e-07
1.59265e-05
-6.20554e-07
-7.70062e-07
1.59476e-05
1.58111e-05
-1.91151e-10
1.58116e-05
-7.77067e-10
1.58123e-05
-1.65884e-09
1.58133e-05
-2.75161e-09
1.58143e-05
-3.95517e-09
1.58155e-05
-5.19845e-09
1.58168e-05
-6.48265e-09
1.58182e-05
-7.8925e-09
1.58196e-05
-9.57625e-09
1.58211e-05
-1.17166e-08
1.58227e-05
-1.45044e-08
1.58243e-05
-1.81179e-08
1.5826e-05
-2.27117e-08
1.58277e-05
-2.84223e-08
1.58296e-05
-3.53932e-08
1.58316e-05
-4.38105e-08
1.58338e-05
-5.39412e-08
1.58362e-05
-6.61652e-08
1.58387e-05
-8.09982e-08
1.58415e-05
-9.91063e-08
1.58446e-05
-1.21316e-07
1.5848e-05
-1.48628e-07
1.58518e-05
-1.82242e-07
1.58561e-05
-2.23606e-07
1.58609e-05
-2.74496e-07
1.58663e-05
-3.37137e-07
1.58725e-05
-4.14372e-07
1.58795e-05
-5.1006e-07
1.58875e-05
-6.28509e-07
-7.80568e-07
1.5898e-05
1.58111e-05
-3.42606e-10
1.58116e-05
-1.21317e-09
1.58122e-05
-2.34981e-09
1.58131e-05
-3.63953e-09
1.58142e-05
-4.98309e-09
1.58153e-05
-6.32681e-09
1.58165e-05
-7.68761e-09
1.58178e-05
-9.15673e-09
1.58191e-05
-1.0885e-08
1.58204e-05
-1.30594e-08
1.58218e-05
-1.58765e-08
1.58232e-05
-1.95186e-08
1.58246e-05
-2.41422e-08
1.58261e-05
-2.98849e-08
1.58276e-05
-3.68907e-08
1.58291e-05
-4.53461e-08
1.58307e-05
-5.5518e-08
1.58323e-05
-6.77857e-08
1.5834e-05
-8.26641e-08
1.58357e-05
-1.00818e-07
1.58374e-05
-1.2307e-07
1.58392e-05
-1.50415e-07
1.5841e-05
-1.84044e-07
1.58428e-05
-2.25389e-07
1.58445e-05
-2.76206e-07
1.58461e-05
-3.38689e-07
1.58473e-05
-4.1563e-07
1.58481e-05
-5.10872e-07
1.58481e-05
-6.28455e-07
-7.80155e-07
1.58477e-05
1.58111e-05
-4.8767e-10
1.58115e-05
-1.63856e-09
1.58122e-05
-3.01658e-09
1.58131e-05
-4.48884e-09
1.5814e-05
-5.95775e-09
1.58151e-05
-7.38738e-09
1.58162e-05
-8.8102e-09
1.58174e-05
-1.03228e-08
1.58186e-05
-1.20771e-08
1.58198e-05
-1.42625e-08
1.5821e-05
-1.70792e-08
1.58222e-05
-2.07114e-08
1.58233e-05
-2.53157e-08
1.58245e-05
-3.1029e-08
1.58256e-05
-3.79946e-08
1.58266e-05
-4.63971e-08
1.58276e-05
-5.65006e-08
1.58285e-05
-6.86798e-08
1.58293e-05
-8.34431e-08
1.58299e-05
-1.01445e-07
1.58304e-05
-1.23497e-07
1.58305e-05
-1.50574e-07
1.58303e-05
-1.83842e-07
1.58296e-05
-2.24698e-07
1.58283e-05
-2.74846e-07
1.5826e-05
-3.36406e-07
1.58224e-05
-4.12062e-07
1.5817e-05
-5.05515e-07
1.58091e-05
-6.20478e-07
-7.68869e-07
1.57978e-05
1.58111e-05
-6.31668e-10
1.58115e-05
-2.06265e-09
1.58122e-05
-3.67315e-09
1.5813e-05
-5.31242e-09
1.58139e-05
-6.88873e-09
1.58149e-05
-8.38726e-09
1.5816e-05
-9.85601e-09
1.58171e-05
-1.13952e-08
1.58181e-05
-1.31559e-08
1.58192e-05
-1.53289e-08
1.58202e-05
-1.81154e-08
1.58212e-05
-2.16992e-08
1.58222e-05
-2.62349e-08
1.5823e-05
-3.18575e-08
1.58237e-05
-3.8708e-08
1.58243e-05
-4.69675e-08
1.58247e-05
-5.68943e-08
1.58248e-05
-6.88548e-08
1.58247e-05
-8.33448e-08
1.58243e-05
-1.01003e-07
1.58234e-05
-1.22616e-07
1.5822e-05
-1.49131e-07
1.58198e-05
-1.81672e-07
1.58167e-05
-2.21581e-07
1.58123e-05
-2.70482e-07
1.58063e-05
-3.30385e-07
1.5798e-05
-4.03806e-07
1.57867e-05
-4.94193e-07
1.57711e-05
-6.0487e-07
-7.47121e-07
1.57494e-05
1.58111e-05
-7.7941e-10
1.58115e-05
-2.49697e-09
1.58122e-05
-4.33464e-09
1.5813e-05
-6.12365e-09
1.58139e-05
-7.78594e-09
1.58149e-05
-9.33426e-09
1.58158e-05
-1.0832e-08
1.58168e-05
-1.23798e-08
1.58178e-05
-1.41267e-08
1.58187e-05
-1.6263e-08
1.58196e-05
-1.89893e-08
1.58204e-05
-2.24862e-08
1.58211e-05
-2.69048e-08
1.58216e-05
-3.23765e-08
1.58219e-05
-3.90385e-08
1.5822e-05
-4.70668e-08
1.58218e-05
-5.67113e-08
1.58213e-05
-6.83258e-08
1.58203e-05
-8.23888e-08
1.58189e-05
-9.95146e-08
1.58167e-05
-1.20459e-07
1.58137e-05
-1.46128e-07
1.58096e-05
-1.77591e-07
1.58041e-05
-2.16116e-07
1.57969e-05
-2.63225e-07
1.57873e-05
-3.20781e-07
1.57746e-05
-3.91086e-07
1.57576e-05
-4.77238e-07
1.57349e-05
-5.82124e-07
-7.15687e-07
1.57034e-05
1.58111e-05
-9.3622e-10
1.58116e-05
-2.95588e-09
1.58123e-05
-5.01823e-09
1.58131e-05
-6.93666e-09
1.5814e-05
-8.6596e-09
1.58149e-05
-1.02369e-08
1.58158e-05
-1.1746e-08
1.58167e-05
-1.32835e-08
1.58175e-05
-1.4995e-08
1.58183e-05
-1.70703e-08
1.58191e-05
-1.97068e-08
1.58197e-05
-2.30793e-08
1.58201e-05
-2.73331e-08
1.58203e-05
-3.25952e-08
1.58203e-05
-3.89976e-08
1.58199e-05
-4.67093e-08
1.58192e-05
-5.59694e-08
1.5818e-05
-6.71155e-08
1.58162e-05
-8.06037e-08
1.58137e-05
-9.70177e-08
1.58103e-05
-1.17074e-07
1.58058e-05
-1.41627e-07
1.57999e-05
-1.7168e-07
1.57922e-05
-2.08411e-07
1.57822e-05
-2.53222e-07
1.57692e-05
-3.07801e-07
1.57523e-05
-3.74199e-07
1.57302e-05
-4.55093e-07
1.57009e-05
-5.52911e-07
-6.75673e-07
1.56609e-05
1.58111e-05
-1.10898e-09
1.58116e-05
-3.45779e-09
1.58124e-05
-5.74417e-09
1.58132e-05
-7.76619e-09
1.58141e-05
-9.51994e-09
1.58149e-05
-1.11045e-08
1.58158e-05
-1.26064e-08
1.58166e-05
-1.41135e-08
1.58174e-05
-1.57677e-08
1.58181e-05
-1.77578e-08
1.58186e-05
-2.02755e-08
1.58191e-05
-2.3487e-08
1.58192e-05
-2.75302e-08
1.58192e-05
-3.25262e-08
1.58188e-05
-3.86008e-08
1.5818e-05
-4.59141e-08
1.58167e-05
-5.46922e-08
1.58148e-05
-6.52534e-08
1.58123e-05
-7.80263e-08
1.58088e-05
-9.35587e-08
1.58043e-05
-1.1252e-07
1.57983e-05
-1.35705e-07
1.57907e-05
-1.64039e-07
1.57809e-05
-1.98601e-07
1.57683e-05
-2.40653e-07
1.57522e-05
-2.91694e-07
1.57315e-05
-3.53502e-07
1.57047e-05
-4.28287e-07
1.56698e-05
-5.18031e-07
-6.28426e-07
1.56226e-05
1.58112e-05
-1.30759e-09
1.58117e-05
-4.02727e-09
1.58125e-05
-6.53665e-09
1.58134e-05
-8.62702e-09
1.58142e-05
-1.03771e-08
1.58151e-05
-1.19472e-08
1.58159e-05
-1.34227e-08
1.58167e-05
-1.48774e-08
1.58174e-05
-1.64518e-08
1.58179e-05
-1.83333e-08
1.58184e-05
-2.07045e-08
1.58186e-05
-2.37201e-08
1.58186e-05
-2.7509e-08
1.58182e-05
-3.21854e-08
1.58175e-05
-3.78675e-08
1.58163e-05
-4.47053e-08
1.58145e-05
-5.29095e-08
1.5812e-05
-6.27762e-08
1.58087e-05
-7.47025e-08
1.58043e-05
-8.91948e-08
1.57987e-05
-1.06869e-07
1.57914e-05
-1.28453e-07
1.57822e-05
-1.54787e-07
1.57704e-05
-1.86839e-07
1.57555e-05
-2.25726e-07
1.57365e-05
-2.72744e-07
1.57124e-05
-3.2939e-07
1.56815e-05
-3.97402e-07
1.56419e-05
-4.78363e-07
-5.75476e-07
1.55889e-05
1.58112e-05
-1.54715e-09
1.58119e-05
-4.69834e-09
1.58128e-05
-7.42431e-09
1.58137e-05
-9.5328e-09
1.58145e-05
-1.1241e-08
1.58154e-05
-1.27762e-08
1.58161e-05
-1.42046e-08
1.58169e-05
-1.55835e-08
1.58175e-05
-1.70558e-08
1.58179e-05
-1.88062e-08
1.58182e-05
-2.1004e-08
1.58183e-05
-2.37901e-08
1.58181e-05
-2.72833e-08
1.58175e-05
-3.15897e-08
1.58164e-05
-3.6819e-08
1.58148e-05
-4.31095e-08
1.58126e-05
-5.06548e-08
1.58095e-05
-5.97257e-08
1.58055e-05
-7.06843e-08
1.58003e-05
-8.39908e-08
1.57936e-05
-1.00203e-07
1.57852e-05
-1.19975e-07
1.57744e-05
-1.44056e-07
1.57609e-05
-1.73298e-07
1.57438e-05
-2.08667e-07
1.57223e-05
-2.51254e-07
1.56952e-05
-3.02286e-07
1.56609e-05
-3.63044e-07
1.56173e-05
-4.34805e-07
-5.18311e-07
1.55602e-05
1.58113e-05
-1.85059e-09
1.58121e-05
-5.52082e-09
1.58131e-05
-8.4401e-09
1.58141e-05
-1.04947e-08
1.5815e-05
-1.21221e-08
1.58158e-05
-1.36033e-08
1.58165e-05
-1.49609e-08
1.58172e-05
-1.62392e-08
1.58177e-05
-1.75889e-08
1.58181e-05
-1.91878e-08
1.58183e-05
-2.11875e-08
1.58182e-05
-2.37129e-08
1.58178e-05
-2.68719e-08
1.5817e-05
-3.07619e-08
1.58156e-05
-3.5483e-08
1.58137e-05
-4.11602e-08
1.5811e-05
-4.79683e-08
1.58074e-05
-5.61507e-08
1.58028e-05
-6.60315e-08
1.57968e-05
-7.80209e-08
1.57892e-05
-9.26138e-08
1.57796e-05
-1.10387e-07
1.57676e-05
-1.31993e-07
1.57524e-05
-1.58166e-07
1.57335e-05
-1.89718e-07
1.57098e-05
-2.2754e-07
1.56801e-05
-2.7261e-07
1.56428e-05
-3.25792e-07
1.55962e-05
-3.88196e-07
-4.58386e-07
1.55363e-05
1.58114e-05
-2.2555e-09
1.58124e-05
-6.5686e-09
1.58136e-05
-9.61698e-09
1.58146e-05
-1.15211e-08
1.58155e-05
-1.30346e-08
1.58164e-05
-1.44411e-08
1.58171e-05
-1.56974e-08
1.58177e-05
-1.68489e-08
1.58182e-05
-1.80568e-08
1.58185e-05
-1.94852e-08
1.58186e-05
-2.12635e-08
1.58183e-05
-2.35e-08
1.58178e-05
-2.62908e-08
1.58167e-05
-2.9723e-08
1.58151e-05
-3.38857e-08
1.58129e-05
-3.88903e-08
1.58098e-05
-4.4892e-08
1.58057e-05
-5.21039e-08
1.58005e-05
-6.08097e-08
1.57939e-05
-7.13652e-08
1.57854e-05
-8.42001e-08
1.57749e-05
-9.9811e-08
1.57616e-05
-1.18753e-07
1.57451e-05
-1.41637e-07
1.57245e-05
-1.6913e-07
1.56989e-05
-2.01926e-07
1.56671e-05
-2.40781e-07
1.56275e-05
-2.86185e-07
1.55785e-05
-3.3927e-07
-3.96833e-07
1.5517e-05
1.58115e-05
-2.833e-09
1.58129e-05
-7.94812e-09
1.58143e-05
-1.09721e-08
1.58154e-05
-1.26161e-08
1.58163e-05
-1.40016e-08
1.58172e-05
-1.53083e-08
1.58179e-05
-1.64261e-08
1.58185e-05
-1.74256e-08
1.58189e-05
-1.84753e-08
1.58192e-05
-1.9716e-08
1.58192e-05
-2.12515e-08
1.58188e-05
-2.31728e-08
1.58181e-05
-2.55637e-08
1.58169e-05
-2.85003e-08
1.5815e-05
-3.20595e-08
1.58125e-05
-3.63385e-08
1.58091e-05
-4.14721e-08
1.58046e-05
-4.76414e-08
1.57989e-05
-5.50876e-08
1.57916e-05
-6.41088e-08
1.57825e-05
-7.50678e-08
1.57711e-05
-8.83786e-08
1.57568e-05
-1.04496e-07
1.57391e-05
-1.23914e-07
1.57171e-05
-1.47157e-07
1.56899e-05
-1.74728e-07
1.56563e-05
-2.07194e-07
1.56148e-05
-2.44673e-07
1.55641e-05
-2.88589e-07
-3.34416e-07
1.55017e-05
1.58119e-05
-3.7254e-09
1.58137e-05
-9.8181e-09
1.58152e-05
-1.24871e-08
1.58164e-05
-1.37734e-08
1.58174e-05
-1.50299e-08
1.58183e-05
-1.61972e-08
1.5819e-05
-1.71392e-08
1.58196e-05
-1.79694e-08
1.58199e-05
-1.88482e-08
1.58201e-05
-1.98864e-08
1.582e-05
-2.11612e-08
1.58196e-05
-2.27468e-08
1.58188e-05
-2.47125e-08
1.58174e-05
-2.7122e-08
1.58154e-05
-3.00395e-08
1.58126e-05
-3.35481e-08
1.58089e-05
-3.77621e-08
1.5804e-05
-4.28283e-08
1.57979e-05
-4.89435e-08
1.57901e-05
-5.63427e-08
1.57804e-05
-6.53288e-08
1.57682e-05
-7.62263e-08
1.57531e-05
-8.93909e-08
1.57344e-05
-1.05204e-07
1.57113e-05
-1.24058e-07
1.56829e-05
-1.4627e-07
1.56479e-05
-1.7224e-07
1.56049e-05
-2.01664e-07
1.55529e-05
-2.36615e-07
-2.70816e-07
1.54893e-05
1.58124e-05
-5.19767e-09
1.5815e-05
-1.23804e-08
1.58167e-05
-1.41557e-08
1.5818e-05
-1.5069e-08
1.58191e-05
-1.6163e-08
1.582e-05
-1.7109e-08
1.58207e-05
-1.78369e-08
1.58212e-05
-1.84878e-08
1.58216e-05
-1.9185e-08
1.58217e-05
-2.0008e-08
1.58215e-05
-2.10075e-08
1.5821e-05
-2.224e-08
1.58201e-05
-2.37583e-08
1.58186e-05
-2.56136e-08
1.58164e-05
-2.7856e-08
1.58134e-05
-3.05561e-08
1.58094e-05
-3.38079e-08
1.58043e-05
-3.77223e-08
1.57978e-05
-4.24549e-08
1.57897e-05
-4.81602e-08
1.57794e-05
-5.51032e-08
1.57667e-05
-6.35022e-08
1.57509e-05
-7.36187e-08
1.57315e-05
-8.57284e-08
1.57075e-05
-1.00102e-07
1.56781e-05
-1.16891e-07
1.56422e-05
-1.36317e-07
1.5598e-05
-1.57437e-07
1.55452e-05
-1.8387e-07
-2.0455e-07
1.5479e-05
1.58135e-05
-7.78078e-09
1.58167e-05
-1.55335e-08
1.58184e-05
-1.58617e-08
1.58199e-05
-1.66044e-08
1.58212e-05
-1.74282e-08
1.58222e-05
-1.80534e-08
1.58229e-05
-1.85422e-08
1.58234e-05
-1.90054e-08
1.58237e-05
-1.95095e-08
1.58238e-05
-2.01026e-08
1.58236e-05
-2.08143e-08
1.5823e-05
-2.16791e-08
1.5822e-05
-2.27309e-08
1.58204e-05
-2.40113e-08
1.58181e-05
-2.55531e-08
1.5815e-05
-2.74157e-08
1.58108e-05
-2.96753e-08
1.58055e-05
-3.23981e-08
1.57988e-05
-3.57117e-08
1.57903e-05
-3.96553e-08
1.57797e-05
-4.44997e-08
1.57665e-05
-5.03304e-08
1.57502e-05
-5.73262e-08
1.57301e-05
-6.56717e-08
1.57056e-05
-7.55258e-08
1.56756e-05
-8.69424e-08
1.56392e-05
-9.99315e-08
1.55944e-05
-1.12648e-07
1.55406e-05
-1.30034e-07
-1.2966e-07
1.54657e-05
1.5817e-05
-1.38601e-08
1.58204e-05
-1.89183e-08
1.58224e-05
-1.7832e-08
1.58238e-05
-1.79956e-08
1.58249e-05
-1.85126e-08
1.58257e-05
-1.8861e-08
1.58262e-05
-1.90997e-08
1.58266e-05
-1.93281e-08
1.58266e-05
-1.95824e-08
1.58264e-05
-1.9882e-08
1.58258e-05
-2.02426e-08
1.58248e-05
-2.06821e-08
1.58233e-05
-2.1219e-08
1.58212e-05
-2.18771e-08
1.58183e-05
-2.26697e-08
1.58145e-05
-2.36295e-08
1.58097e-05
-2.47991e-08
1.58035e-05
-2.6208e-08
1.57957e-05
-2.79336e-08
1.5786e-05
-2.99624e-08
1.5774e-05
-3.24941e-08
1.57592e-05
-3.55403e-08
1.57411e-05
-3.91996e-08
1.5719e-05
-4.35665e-08
1.56922e-05
-4.8723e-08
1.56599e-05
-5.46427e-08
1.56213e-05
-6.13804e-08
1.55753e-05
-6.66771e-08
1.55177e-05
-7.24391e-08
-2.71683e-08
1.54153e-05
1.57971e-05
1.57782e-05
1.57604e-05
1.57424e-05
1.57238e-05
1.5705e-05
1.56859e-05
1.56666e-05
1.5647e-05
1.56271e-05
1.56069e-05
1.55862e-05
1.5565e-05
1.55431e-05
1.55204e-05
1.54968e-05
1.5472e-05
1.54458e-05
1.54178e-05
1.53879e-05
1.53554e-05
1.53198e-05
1.52806e-05
1.52371e-05
1.51883e-05
1.51337e-05
1.50723e-05
1.50056e-05
1.49332e-05
1.4906e-05
1.55559e-05
-9.09011e-06
9.37886e-06
1.52221e-05
-9.17695e-06
9.51073e-06
1.48341e-05
-9.24075e-06
9.62871e-06
1.44009e-05
-9.27877e-06
9.71199e-06
1.39415e-05
-9.31111e-06
9.77053e-06
1.34695e-05
-9.34558e-06
9.8176e-06
1.29917e-05
-9.38364e-06
9.86139e-06
1.25112e-05
-9.42526e-06
9.90577e-06
1.20289e-05
-9.47029e-06
9.95255e-06
1.1545e-05
-9.51856e-06
1.00025e-05
1.10591e-05
-9.56996e-06
1.00559e-05
1.0571e-05
-9.62471e-06
1.01128e-05
1.00806e-05
-9.68335e-06
1.01737e-05
9.58786e-06
-9.74666e-06
1.02394e-05
9.09274e-06
-9.81558e-06
1.03107e-05
8.59513e-06
-9.89129e-06
1.03889e-05
8.0948e-06
-9.97527e-06
1.04756e-05
7.59145e-06
-1.00695e-05
1.05728e-05
7.0846e-06
-1.01763e-05
1.06832e-05
6.57359e-06
-1.02993e-05
1.08103e-05
6.05754e-06
-1.0443e-05
1.0959e-05
5.53466e-06
-1.0614e-05
1.11369e-05
5.00447e-06
-1.08206e-05
1.13507e-05
4.45869e-06
-1.1081e-05
1.16268e-05
3.90648e-06
-1.13998e-05
1.1952e-05
3.30558e-06
-1.18695e-05
1.24704e-05
2.71134e-06
-1.2381e-05
1.29752e-05
1.96331e-06
-1.35135e-05
1.42615e-05
1.19495e-06
-1.43557e-05
1.5124e-05
-1.82302e-05
1.94252e-05
1.58393e-05
-8.68751e-06
1.53893e-05
-8.72685e-06
1.49145e-05
-8.76597e-06
1.44322e-05
-8.79646e-06
1.39497e-05
-8.82869e-06
1.34692e-05
-8.86505e-06
1.29902e-05
-8.9046e-06
1.25113e-05
-8.94635e-06
1.20312e-05
-8.99024e-06
1.15492e-05
-9.03655e-06
1.10649e-05
-9.08569e-06
1.05783e-05
-9.13813e-06
1.00895e-05
-9.1945e-06
9.59838e-06
-9.25554e-06
9.1049e-06
-9.3221e-06
8.6089e-06
-9.39528e-06
8.11009e-06
-9.47647e-06
7.60813e-06
-9.56749e-06
7.10251e-06
-9.67072e-06
6.5925e-06
-9.78933e-06
6.07712e-06
-9.92762e-06
5.55477e-06
-1.00916e-05
5.02388e-06
-1.02897e-05
4.47894e-06
-1.05361e-05
3.92198e-06
-1.08428e-05
3.32468e-06
-1.12722e-05
2.71816e-06
-1.17745e-05
1.97719e-06
-1.27725e-05
1.20253e-06
-1.3581e-05
-1.70277e-05
1.58013e-05
-8.23296e-06
1.5336e-05
-8.26162e-06
1.48649e-05
-8.29481e-06
1.43952e-05
-8.32678e-06
1.39256e-05
-8.3591e-06
1.34547e-05
-8.39418e-06
1.29816e-05
-8.43144e-06
1.25057e-05
-8.47049e-06
1.20272e-05
-8.51172e-06
1.15463e-05
-8.55562e-06
1.10631e-05
-8.60257e-06
1.0578e-05
-8.65294e-06
1.00907e-05
-8.70722e-06
9.6012e-06
-8.76606e-06
9.10936e-06
-8.83026e-06
8.61495e-06
-8.90086e-06
8.11767e-06
-8.97919e-06
7.61714e-06
-9.06696e-06
7.11282e-06
-9.1664e-06
6.60396e-06
-9.28047e-06
6.08949e-06
-9.41315e-06
5.56787e-06
-9.57001e-06
5.03703e-06
-9.75881e-06
4.49278e-06
-9.99182e-06
3.93313e-06
-1.02832e-05
3.33842e-06
-1.06775e-05
2.723e-06
-1.1159e-05
1.98746e-06
-1.2037e-05
1.20403e-06
-1.27976e-05
-1.58236e-05
1.57927e-05
-7.77281e-06
1.53297e-05
-7.79861e-06
1.48625e-05
-7.8276e-06
1.43932e-05
-7.85748e-06
1.39224e-05
-7.88831e-06
1.34495e-05
-7.92126e-06
1.29745e-05
-7.95647e-06
1.24978e-05
-7.99378e-06
1.20195e-05
-8.03338e-06
1.15394e-05
-8.07561e-06
1.10576e-05
-8.12075e-06
1.05739e-05
-8.16917e-06
1.0088e-05
-8.22136e-06
9.59991e-06
-8.27796e-06
9.1094e-06
-8.33975e-06
8.61627e-06
-8.40773e-06
8.1202e-06
-8.48313e-06
7.62078e-06
-8.56754e-06
7.11742e-06
-8.66304e-06
6.60933e-06
-8.77238e-06
6.0954e-06
-8.89922e-06
5.57404e-06
-9.04865e-06
5.04299e-06
-9.22776e-06
4.49852e-06
-9.44735e-06
3.93664e-06
-9.72133e-06
3.34274e-06
-1.00836e-05
2.71981e-06
-1.05361e-05
1.98891e-06
-1.13061e-05
1.19905e-06
-1.20077e-05
-1.46246e-05
1.57748e-05
-7.30986e-06
1.53099e-05
-7.33372e-06
1.48422e-05
-7.35996e-06
1.43729e-05
-7.38814e-06
1.39025e-05
-7.41791e-06
1.34307e-05
-7.44954e-06
1.29574e-05
-7.48316e-06
1.24825e-05
-7.51882e-06
1.20058e-05
-7.55667e-06
1.15272e-05
-7.59701e-06
1.10466e-05
-7.64018e-06
1.0564e-05
-7.68657e-06
1.00793e-05
-7.73664e-06
9.59231e-06
-7.791e-06
9.10293e-06
-7.85037e-06
8.61088e-06
-7.91568e-06
8.11582e-06
-7.98806e-06
7.61729e-06
-8.06901e-06
7.11469e-06
-8.16044e-06
6.60717e-06
-8.26486e-06
6.09358e-06
-8.38563e-06
5.57229e-06
-8.52736e-06
5.04094e-06
-8.69641e-06
4.49591e-06
-8.90232e-06
3.93234e-06
-9.15775e-06
3.33827e-06
-9.48951e-06
2.70976e-06
-9.9076e-06
1.98244e-06
-1.05788e-05
1.18743e-06
-1.12127e-05
-1.34372e-05
1.57525e-05
-6.84605e-06
1.52873e-05
-6.86855e-06
1.48204e-05
-6.89305e-06
1.43521e-05
-6.9198e-06
1.38825e-05
-6.94834e-06
1.34114e-05
-6.9785e-06
1.29387e-05
-7.01045e-06
1.24643e-05
-7.04438e-06
1.19881e-05
-7.08051e-06
1.15102e-05
-7.11908e-06
1.10304e-05
-7.16042e-06
1.05487e-05
-7.20487e-06
1.0065e-05
-7.25288e-06
9.57897e-06
-7.305e-06
9.09052e-06
-7.36192e-06
8.59933e-06
-7.42449e-06
8.10505e-06
-7.49378e-06
7.60719e-06
-7.57115e-06
7.1051e-06
-7.65836e-06
6.59792e-06
-7.75768e-06
6.08445e-06
-7.87216e-06
5.56301e-06
-8.00592e-06
5.0312e-06
-8.1646e-06
4.48538e-06
-8.3565e-06
3.92033e-06
-8.59269e-06
3.3255e-06
-8.89468e-06
2.69283e-06
-9.27494e-06
1.96847e-06
-9.85442e-06
1.17066e-06
-1.04149e-05
-1.22665e-05
1.57257e-05
-6.38203e-06
1.52605e-05
-6.40337e-06
1.47939e-05
-6.42646e-06
1.43259e-05
-6.45186e-06
1.38567e-05
-6.47908e-06
1.3386e-05
-6.50783e-06
1.29138e-05
-6.53825e-06
1.24401e-05
-6.57061e-06
1.19647e-05
-6.60511e-06
1.14875e-05
-6.64198e-06
1.10086e-05
-6.68149e-06
1.05278e-05
-6.724e-06
1.00448e-05
-6.76992e-06
9.55956e-06
-6.81977e-06
9.07183e-06
-6.87419e-06
8.5813e-06
-6.93396e-06
8.08759e-06
-7.00007e-06
7.59018e-06
-7.07375e-06
7.08842e-06
-7.15659e-06
6.58139e-06
-7.25065e-06
6.06786e-06
-7.35863e-06
5.54612e-06
-7.48418e-06
5.01372e-06
-7.6322e-06
4.46701e-06
-7.80979e-06
3.90066e-06
-8.02634e-06
3.30486e-06
-8.29888e-06
2.66931e-06
-8.63938e-06
1.94824e-06
-9.13334e-06
1.14924e-06
-9.61591e-06
-1.11173e-05
1.56945e-05
-5.91791e-06
1.52294e-05
-5.93823e-06
1.4763e-05
-5.96011e-06
1.42954e-05
-5.98424e-06
1.38265e-05
-6.01018e-06
1.33562e-05
-6.03757e-06
1.28845e-05
-6.06654e-06
1.24113e-05
-6.09736e-06
1.19364e-05
-6.13026e-06
1.14599e-05
-6.16543e-06
1.09815e-05
-6.20314e-06
1.05012e-05
-6.24371e-06
1.00189e-05
-6.28754e-06
9.53419e-06
-6.3351e-06
9.04699e-06
-6.38699e-06
8.55693e-06
-6.4439e-06
8.0636e-06
-6.50674e-06
7.56647e-06
-6.57662e-06
7.06485e-06
-6.65497e-06
6.5578e-06
-6.7436e-06
6.04407e-06
-6.8449e-06
5.52191e-06
-6.96202e-06
4.98885e-06
-7.09914e-06
4.44125e-06
-7.26219e-06
3.87376e-06
-7.45885e-06
3.27706e-06
-7.70219e-06
2.63975e-06
-8.00208e-06
1.92234e-06
-8.41593e-06
1.12404e-06
-8.81761e-06
-9.99324e-06
1.56592e-05
-5.45373e-06
1.51941e-05
-5.47312e-06
1.47278e-05
-5.4939e-06
1.42604e-05
-5.51683e-06
1.37918e-05
-5.54151e-06
1.33218e-05
-5.56758e-06
1.28504e-05
-5.59514e-06
1.23775e-05
-5.62448e-06
1.1903e-05
-5.65581e-06
1.14269e-05
-5.68931e-06
1.0949e-05
-5.72523e-06
1.04692e-05
-5.76387e-06
9.98725e-06
-5.8056e-06
9.503e-06
-5.85085e-06
9.01616e-06
-5.90015e-06
8.5264e-06
-5.95414e-06
8.03329e-06
-6.01363e-06
7.53628e-06
-6.07961e-06
7.03465e-06
-6.15334e-06
6.52746e-06
-6.23641e-06
6.01342e-06
-6.33086e-06
5.49078e-06
-6.43937e-06
4.95705e-06
-6.56542e-06
4.40862e-06
-6.71376e-06
3.84021e-06
-6.89043e-06
3.24287e-06
-7.10485e-06
2.60485e-06
-7.36406e-06
1.89162e-06
-7.70269e-06
1.09612e-06
-8.02211e-06
-8.89711e-06
1.56199e-05
-4.98944e-06
1.51547e-05
-5.00797e-06
1.46886e-05
-5.02774e-06
1.42213e-05
-5.04952e-06
1.37527e-05
-5.07298e-06
1.32829e-05
-5.09776e-06
1.28117e-05
-5.12396e-06
1.23391e-05
-5.15185e-06
1.18649e-05
-5.18163e-06
1.13891e-05
-5.21349e-06
1.09115e-05
-5.24763e-06
1.0432e-05
-5.28434e-06
9.95032e-06
-5.32395e-06
9.46632e-06
-5.36685e-06
8.97969e-06
-5.41352e-06
8.49009e-06
-5.46454e-06
7.99707e-06
-5.52061e-06
7.50005e-06
-5.5826e-06
6.99832e-06
-5.65161e-06
6.4909e-06
-5.72899e-06
5.9765e-06
-5.81646e-06
5.45336e-06
-5.91623e-06
4.91901e-06
-6.03108e-06
4.36989e-06
-6.16464e-06