/*--------------------------------*- C++ -*----------------------------------*\
  =========                 |
  \\      /  F ield         | OpenFOAM: The Open Source CFD Toolbox
   \\    /   O peration     | Website:  https://openfoam.org
    \\  /    A nd           | Version:  11
     \\/     M anipulation  |
\*---------------------------------------------------------------------------*/
FoamFile
{
    format      ascii;
    class       volVectorField;
    location    "2.7";
    object      U;
}
// * * * * * * * * * * * * * * * * * * * * * * * * * * * * * * * * * * * * * //

dimensions      [0 1 -1 0 0 0 0];

internalField   nonuniform List<vector> 
12600
(
(0.412112 0.000105585 0)
(0.411841 0.000179965 0)
(0.411428 0.000191091 0)
(0.410958 0.00019432 0)
(0.410491 0.000198538 0)
(0.410035 0.000201215 0)
(0.409581 0.000202489 0)
(0.40913 0.000203119 0)
(0.408681 0.000203279 0)
(0.408237 0.00020291 0)
(0.407802 0.000201944 0)
(0.407375 0.000200269 0)
(0.406961 0.000197688 0)
(0.406561 0.000194064 0)
(0.406181 0.000189396 0)
(0.405823 0.000183397 0)
(0.405494 0.000175595 0)
(0.405198 0.00016574 0)
(0.404943 0.000153899 0)
(0.404741 0.000139544 0)
(0.404602 0.000123107 0)
(0.404542 0.000102293 0)
(0.404578 7.49935e-05 0)
(0.404733 3.49207e-05 0)
(0.405038 -1.37234e-05 0)
(0.405525 -6.87361e-05 0)
(0.406246 -0.000139178 0)
(0.407255 -0.00022493 0)
(0.40874 -0.000361772 0)
(0.409653 -0.000878221 0)
(0.412492 0.000153794 0)
(0.412638 0.000281132 0)
(0.412773 0.000262816 0)
(0.412825 0.000254388 0)
(0.412872 0.000256598 0)
(0.412926 0.000256579 0)
(0.412984 0.000254308 0)
(0.413043 0.000250967 0)
(0.413105 0.000246568 0)
(0.413172 0.000240837 0)
(0.413245 0.0002336 0)
(0.413328 0.000224693 0)
(0.413421 0.000213704 0)
(0.41353 0.000200235 0)
(0.413655 0.000183728 0)
(0.413802 0.000163245 0)
(0.413975 0.000140262 0)
(0.414179 0.000112426 0)
(0.414421 7.65015e-05 0)
(0.414709 3.28054e-05 0)
(0.415056 -2.09453e-05 0)
(0.415472 -8.73307e-05 0)
(0.415975 -0.00016823 0)
(0.416582 -0.000266162 0)
(0.417321 -0.0003862 0)
(0.418197 -0.000536994 0)
(0.419329 -0.000723824 0)
(0.420478 -0.000985109 0)
(0.422382 -0.00130263 0)
(0.422965 -0.00213519 0)
(0.41248 8.51988e-05 0)
(0.412554 0.000152615 0)
(0.412645 0.000155893 0)
(0.412712 0.000156401 0)
(0.412764 0.000161493 0)
(0.412818 0.000163388 0)
(0.412877 0.000161632 0)
(0.412938 0.000158089 0)
(0.413001 0.000152857 0)
(0.413068 0.000145426 0)
(0.413141 0.000135372 0)
(0.413222 0.000122451 0)
(0.413312 0.000106124 0)
(0.413417 8.63235e-05 0)
(0.413538 6.15976e-05 0)
(0.41368 3.20955e-05 0)
(0.413846 -4.71435e-06 0)
(0.414041 -5.14242e-05 0)
(0.414272 -0.000107905 0)
(0.414546 -0.000176415 0)
(0.414872 -0.000260294 0)
(0.415263 -0.000363156 0)
(0.415735 -0.000489572 0)
(0.416305 -0.000645821 0)
(0.417 -0.000837423 0)
(0.417842 -0.00107749 0)
(0.418872 -0.00136514 0)
(0.420109 -0.00174888 0)
(0.421553 -0.00223272 0)
(0.423295 -0.00262672 0)
(0.412472 5.57169e-05 0)
(0.412522 0.000130961 0)
(0.412596 0.000157712 0)
(0.412659 0.000164691 0)
(0.41271 0.000171451 0)
(0.412761 0.000174003 0)
(0.412817 0.000172099 0)
(0.412876 0.000167829 0)
(0.412938 0.000161318 0)
(0.413003 0.000152089 0)
(0.413074 0.000139433 0)
(0.413152 0.000122639 0)
(0.413241 9.95919e-05 0)
(0.413343 7.08784e-05 0)
(0.413461 3.62302e-05 0)
(0.413598 -5.45269e-06 0)
(0.413759 -5.61746e-05 0)
(0.413949 -0.000117551 0)
(0.414172 -0.000192479 0)
(0.414437 -0.000284474 0)
(0.414753 -0.000397626 0)
(0.415131 -0.000537093 0)
(0.415587 -0.000709115 0)
(0.416139 -0.000921217 0)
(0.416808 -0.00118176 0)
(0.417622 -0.00150357 0)
(0.41861 -0.00189764 0)
(0.419809 -0.00238444 0)
(0.42122 -0.00299068 0)
(0.423065 -0.00342652 0)
(0.412468 3.99709e-05 0)
(0.412502 0.000100878 0)
(0.412559 0.000124795 0)
(0.412615 0.000128016 0)
(0.412664 0.000127646 0)
(0.412714 0.000126386 0)
(0.412768 0.000122321 0)
(0.412825 0.000115207 0)
(0.412885 0.00010533 0)
(0.412949 9.19535e-05 0)
(0.413018 7.42722e-05 0)
(0.413094 5.17422e-05 0)
(0.41318 2.30804e-05 0)
(0.41328 -1.30741e-05 0)
(0.413394 -5.7291e-05 0)
(0.413526 -0.000110307 0)
(0.413681 -0.000173843 0)
(0.413863 -0.000250928 0)
(0.414077 -0.000345272 0)
(0.414331 -0.000461022 0)
(0.414633 -0.000603185 0)
(0.414995 -0.000778069 0)
(0.415431 -0.000993403 0)
(0.415958 -0.00125861 0)
(0.416596 -0.00158471 0)
(0.417372 -0.00198582 0)
(0.418312 -0.00247736 0)
(0.419466 -0.00307034 0)
(0.420821 -0.00380991 0)
(0.422673 -0.00447046 0)
(0.412466 2.93786e-05 0)
(0.41249 7.69057e-05 0)
(0.412535 0.000100065 0)
(0.412585 0.000105633 0)
(0.412633 0.000106474 0)
(0.412681 0.000105942 0)
(0.412733 0.000102606 0)
(0.412788 9.58806e-05 0)
(0.412846 8.57869e-05 0)
(0.412908 7.17157e-05 0)
(0.412975 5.24451e-05 0)
(0.413049 2.65099e-05 0)
(0.413132 -6.07112e-06 0)
(0.413227 -4.76393e-05 0)
(0.413336 -9.91544e-05 0)
(0.413463 -0.000161717 0)
(0.41361 -0.000237208 0)
(0.413783 -0.0003288 0)
(0.413986 -0.000440512 0)
(0.414227 -0.000577346 0)
(0.414512 -0.000745582 0)
(0.414854 -0.000952967 0)
(0.415265 -0.00120878 0)
(0.41576 -0.00152406 0)
(0.416361 -0.00191193 0)
(0.417091 -0.00238812 0)
(0.417976 -0.00297188 0)
(0.419069 -0.0036748 0)
(0.420354 -0.00455637 0)
(0.422153 -0.00542223 0)
(0.412464 2.2036e-05 0)
(0.412482 5.8692e-05 0)
(0.412519 7.87765e-05 0)
(0.412564 8.40159e-05 0)
(0.412609 8.29104e-05 0)
(0.412655 7.95627e-05 0)
(0.412704 7.36792e-05 0)
(0.412756 6.44788e-05 0)
(0.412812 5.15436e-05 0)
(0.412872 3.39816e-05 0)
(0.412936 1.04123e-05 0)
(0.413007 -2.09137e-05 0)
(0.413086 -6.04054e-05 0)
(0.413177 -0.00010933 0)
(0.41328 -0.000169198 0)
(0.4134 -0.000241779 0)
(0.413539 -0.000329271 0)
(0.413701 -0.000435083 0)
(0.413891 -0.000563901 0)
(0.414116 -0.000721615 0)
(0.414382 -0.000915425 0)
(0.4147 -0.00115408 0)
(0.415082 -0.00144811 0)
(0.415542 -0.00181021 0)
(0.416099 -0.00225563 0)
(0.416776 -0.00280236 0)
(0.417596 -0.00347304 0)
(0.418614 -0.00428431 0)
(0.419812 -0.00529854 0)
(0.421518 -0.00637065 0)
(0.412463 1.66047e-05 0)
(0.412478 4.41756e-05 0)
(0.412508 5.98376e-05 0)
(0.412548 6.3445e-05 0)
(0.41259 6.06121e-05 0)
(0.412633 5.53792e-05 0)
(0.41268 4.81099e-05 0)
(0.41273 3.78836e-05 0)
(0.412784 2.38007e-05 0)
(0.412841 4.71376e-06 0)
(0.412902 -2.08767e-05 0)
(0.41297 -5.44137e-05 0)
(0.413045 -9.79244e-05 0)
(0.41313 -0.000152182 0)
(0.413227 -0.00021869 0)
(0.413339 -0.000299344 0)
(0.413468 -0.000396691 0)
(0.413619 -0.00051451 0)
(0.413795 -0.000657945 0)
(0.414002 -0.000833546 0)
(0.414246 -0.00104944 0)
(0.414537 -0.00131552 0)
(0.414886 -0.00164367 0)
(0.415306 -0.00204811 0)
(0.415812 -0.00254593 0)
(0.416428 -0.00315741 0)
(0.417174 -0.00390844 0)
(0.418105 -0.00482163 0)
(0.419198 -0.00596133 0)
(0.420783 -0.00722777 0)
(0.412463 1.23391e-05 0)
(0.412474 3.22479e-05 0)
(0.4125 4.3165e-05 0)
(0.412535 4.44888e-05 0)
(0.412575 3.98996e-05 0)
(0.412616 3.28146e-05 0)
(0.41266 2.38795e-05 0)
(0.412708 1.21305e-05 0)
(0.412759 -3.67248e-06 0)
(0.412813 -2.49751e-05 0)
(0.412871 -5.35052e-05 0)
(0.412935 -9.09315e-05 0)
(0.413005 -0.000139087 0)
(0.413085 -0.000199084 0)
(0.413175 -0.000272438 0)
(0.413278 -0.00036123 0)
(0.413396 -0.000468315 0)
(0.413534 -0.000597774 0)
(0.413693 -0.000755207 0)
(0.413881 -0.000947816 0)
(0.414101 -0.00118451 0)
(0.414363 -0.00147608 0)
(0.414675 -0.00183547 0)
(0.41505 -0.00227822 0)
(0.415501 -0.00282319 0)
(0.416049 -0.00349308 0)
(0.416713 -0.00431686 0)
(0.417542 -0.00532366 0)
(0.418514 -0.0065779 0)
(0.419949 -0.00802768 0)
(0.412462 8.83391e-06 0)
(0.412472 2.2202e-05 0)
(0.412495 2.84461e-05 0)
(0.412526 2.70399e-05 0)
(0.412562 2.04847e-05 0)
(0.412601 1.15105e-05 0)
(0.412643 8.48058e-07 0)
(0.412688 -1.24221e-05 0)
(0.412736 -2.97645e-05 0)
(0.412788 -5.28776e-05 0)
(0.412842 -8.36639e-05 0)
(0.412902 -0.000123985 0)
(0.412968 -0.000175643 0)
(0.413041 -0.000240069 0)
(0.413123 -0.000318858 0)
(0.413217 -0.000414194 0)
(0.413324 -0.000529162 0)
(0.413447 -0.000668153 0)
(0.413589 -0.00083715 0)
(0.413755 -0.00104387 0)
(0.41395 -0.00129788 0)
(0.414179 -0.00161081 0)
(0.414452 -0.00199661 0)
(0.414778 -0.00247208 0)
(0.415169 -0.00305763 0)
(0.415643 -0.00377813 0)
(0.416215 -0.00466533 0)
(0.416932 -0.0057545 0)
(0.417767 -0.00710998 0)
(0.419026 -0.00872467 0)
(0.412462 5.84422e-06 0)
(0.412471 1.35267e-05 0)
(0.41249 1.53171e-05 0)
(0.412519 1.0956e-05 0)
(0.412552 2.29009e-06 0)
(0.412589 -8.53034e-06 0)
(0.412629 -2.08427e-05 0)
(0.412671 -3.55385e-05 0)
(0.412716 -5.42814e-05 0)
(0.412764 -7.90134e-05 0)
(0.412815 -0.000111824 0)
(0.412871 -0.000154741 0)
(0.412931 -0.000209615 0)
(0.412998 -0.000278036 0)
(0.413072 -0.000361697 0)
(0.413155 -0.000462879 0)
(0.41325 -0.000584849 0)
(0.413358 -0.000732238 0)
(0.413482 -0.000911351 0)
(0.413625 -0.00113034 0)
(0.413792 -0.00139935 0)
(0.413987 -0.00173065 0)
(0.414218 -0.00213901 0)
(0.414492 -0.00264218 0)
(0.414819 -0.00326191 0)
(0.415213 -0.0040249 0)
(0.415687 -0.00496538 0)
(0.41628 -0.00612419 0)
(0.416965 -0.00756497 0)
(0.418023 -0.00932414 0)
(0.412462 3.19137e-06 0)
(0.41247 5.82596e-06 0)
(0.412487 3.4453e-06 0)
(0.412513 -3.92296e-06 0)
(0.412544 -1.47417e-05 0)
(0.412579 -2.73232e-05 0)
(0.412616 -4.11843e-05 0)
(0.412656 -5.72411e-05 0)
(0.412698 -7.72727e-05 0)
(0.412743 -0.000103419 0)
(0.41279 -0.000137938 0)
(0.412841 -0.000182982 0)
(0.412896 -0.000240467 0)
(0.412955 -0.00031208 0)
(0.413021 -0.000399603 0)
(0.413094 -0.0005054 0)
(0.413176 -0.000632871 0)
(0.413268 -0.000786844 0)
(0.413372 -0.000973886 0)
(0.413492 -0.00120249 0)
(0.413629 -0.00148321 0)
(0.413789 -0.00182883 0)
(0.413975 -0.00225475 0)
(0.414195 -0.0027795 0)
(0.414454 -0.00342584 0)
(0.414764 -0.00422198 0)
(0.415134 -0.00520404 0)
(0.415594 -0.0064175 0)
(0.416117 -0.00792498 0)
(0.416951 -0.00980214 0)
(0.412462 8.59537e-07 0)
(0.412469 -1.07769e-06 0)
(0.412485 -7.40114e-06 0)
(0.412509 -1.77311e-05 0)
(0.412538 -3.07017e-05 0)
(0.41257 -4.49701e-05 0)
(0.412605 -6.02472e-05 0)
(0.412642 -7.75248e-05 0)
(0.412682 -9.86771e-05 0)
(0.412723 -0.000125992 0)
(0.412767 -0.000161864 0)
(0.412812 -0.000208552 0)
(0.412861 -0.000268039 0)
(0.412914 -0.000342085 0)
(0.412971 -0.00043254 0)
(0.413033 -0.000541836 0)
(0.413101 -0.00067347 0)
(0.413177 -0.000832412 0)
(0.413261 -0.00102541 0)
(0.413356 -0.0012612 0)
(0.413463 -0.00155062 0)
(0.413586 -0.00190683 0)
(0.413726 -0.0023456 0)
(0.413889 -0.00288601 0)
(0.414079 -0.00355146 0)
(0.414301 -0.00437117 0)
(0.414562 -0.00538254 0)
(0.414883 -0.00663453 0)
(0.415235 -0.00818813 0)
(0.415825 -0.0101528 0)
(0.412462 -1.50339e-06 0)
(0.412468 -7.33035e-06 0)
(0.412483 -1.73364e-05 0)
(0.412506 -3.05865e-05 0)
(0.412533 -4.56644e-05 0)
(0.412563 -6.15154e-05 0)
(0.412596 -7.80703e-05 0)
(0.412631 -9.6414e-05 0)
(0.412667 -0.000118494 0)
(0.412705 -0.000146708 0)
(0.412744 -0.000183561 0)
(0.412786 -0.000231396 0)
(0.412828 -0.000292252 0)
(0.412874 -0.000367938 0)
(0.412921 -0.000460353 0)
(0.412972 -0.000571968 0)
(0.413027 -0.000706335 0)
(0.413086 -0.000868502 0)
(0.413149 -0.00106533 0)
(0.413219 -0.00130567 0)
(0.413295 -0.00160053 0)
(0.41338 -0.00196324 0)
(0.413474 -0.00240979 0)
(0.413579 -0.00295948 0)
(0.413697 -0.00363602 0)
(0.41383 -0.00446908 0)
(0.413979 -0.0054966 0)
(0.414157 -0.00676965 0)
(0.414333 -0.00834692 0)
(0.414665 -0.0103642 0)
(0.412461 -3.56153e-06 0)
(0.412468 -1.326e-05 0)
(0.412482 -2.67961e-05 0)
(0.412503 -4.27325e-05 0)
(0.412529 -5.97481e-05 0)
(0.412557 -7.70268e-05 0)
(0.412588 -9.46953e-05 0)
(0.41262 -0.000113928 0)
(0.412654 -0.000136722 0)
(0.412689 -0.000165547 0)
(0.412724 -0.000202992 0)
(0.41276 -0.000251465 0)
(0.412797 -0.000313046 0)
(0.412835 -0.000389568 0)
(0.412873 -0.000482949 0)
(0.412913 -0.000595678 0)
(0.412954 -0.000731323 0)
(0.412995 -0.000894955 0)
(0.413038 -0.00109346 0)
(0.413082 -0.00133573 0)
(0.413127 -0.00163279 0)
(0.413174 -0.00199797 0)
(0.41322 -0.00244726 0)
(0.413267 -0.0029999 0)
(0.413313 -0.0036795 0)
(0.413357 -0.00451561 0)
(0.413393 -0.00554594 0)
(0.413426 -0.00682209 0)
(0.413423 -0.00839963 0)
(0.41349 -0.0104317 0)
(0.412461 -5.52353e-06 0)
(0.412468 -1.90206e-05 0)
(0.412481 -3.58064e-05 0)
(0.412502 -5.42554e-05 0)
(0.412526 -7.30537e-05 0)
(0.412553 -9.15927e-05 0)
(0.412582 -0.000110196 0)
(0.412612 -0.000130118 0)
(0.412643 -0.000153384 0)
(0.412674 -0.00018251 0)
(0.412705 -0.000220147 0)
(0.412737 -0.000268745 0)
(0.412768 -0.000330397 0)
(0.412798 -0.000406939 0)
(0.412827 -0.000500286 0)
(0.412855 -0.000612918 0)
(0.412882 -0.000748382 0)
(0.412907 -0.000911715 0)
(0.412929 -0.00110975 0)
(0.412947 -0.00135131 0)
(0.412961 -0.00164731 0)
(0.412969 -0.00201092 0)
(0.412969 -0.00245788 0)
(0.412958 -0.00300711 0)
(0.412932 -0.00368173 0)
(0.412886 -0.0045106 0)
(0.412812 -0.00553033 0)
(0.412701 -0.00679147 0)
(0.412523 -0.00834562 0)
(0.412325 -0.0103531 0)
(0.412461 -7.46405e-06 0)
(0.412468 -2.46639e-05 0)
(0.412481 -4.45823e-05 0)
(0.412501 -6.53561e-05 0)
(0.412525 -8.57154e-05 0)
(0.41255 -0.000105297 0)
(0.412577 -0.000124625 0)
(0.412605 -0.000145016 0)
(0.412633 -0.000168503 0)
(0.412661 -0.000197626 0)
(0.412689 -0.000235063 0)
(0.412715 -0.000283274 0)
(0.41274 -0.000344341 0)
(0.412763 -0.00042008 0)
(0.412783 -0.000512388 0)
(0.4128 -0.00062371 0)
(0.412813 -0.000757534 0)
(0.412821 -0.000918812 0)
(0.412822 -0.00111425 0)
(0.412815 -0.0013525 0)
(0.412799 -0.00164422 0)
(0.412769 -0.00200228 0)
(0.412723 -0.00244197 0)
(0.412655 -0.00298158 0)
(0.412559 -0.00364338 0)
(0.412426 -0.00445498 0)
(0.412243 -0.00545114 0)
(0.411992 -0.00667975 0)
(0.411645 -0.00818759 0)
(0.411191 -0.0101316 0)
(0.412461 -9.42457e-06 0)
(0.412468 -3.03625e-05 0)
(0.412482 -5.33181e-05 0)
(0.412502 -7.61969e-05 0)
(0.412525 -9.78578e-05 0)
(0.412549 -0.000118245 0)
(0.412574 -0.000138078 0)
(0.4126 -0.000158708 0)
(0.412626 -0.000182149 0)
(0.412651 -0.000210946 0)
(0.412674 -0.000247779 0)
(0.412696 -0.000295087 0)
(0.412715 -0.000354914 0)
(0.412731 -0.000429041 0)
(0.412742 -0.000519324 0)
(0.412748 -0.000628147 0)
(0.412747 -0.000758905 0)
(0.412738 -0.000916408 0)
(0.412719 -0.00110717 0)
(0.412688 -0.00133955 0)
(0.412641 -0.00162387 0)
(0.412575 -0.0019725 0)
(0.412484 -0.00240011 0)
(0.412361 -0.00292412 0)
(0.412198 -0.00356558 0)
(0.41198 -0.00435037 0)
(0.411694 -0.00531069 0)
(0.411311 -0.00649038 0)
(0.410805 -0.00793069 0)
(0.410112 -0.00977512 0)
(0.412462 -1.14733e-05 0)
(0.412468 -3.62864e-05 0)
(0.412483 -6.22206e-05 0)
(0.412503 -8.69593e-05 0)
(0.412526 -0.000109618 0)
(0.41255 -0.000130544 0)
(0.412573 -0.000150647 0)
(0.412597 -0.000171268 0)
(0.41262 -0.000194387 0)
(0.412642 -0.000222537 0)
(0.412662 -0.000258371 0)
(0.41268 -0.000304267 0)
(0.412693 -0.000362208 0)
(0.412702 -0.000433923 0)
(0.412705 -0.00052121 0)
(0.4127 -0.000626373 0)
(0.412686 -0.000752679 0)
(0.412661 -0.000904749 0)
(0.412622 -0.00108882 0)
(0.412567 -0.00131291 0)
(0.412492 -0.00158684 0)
(0.41239 -0.00192238 0)
(0.412256 -0.00233337 0)
(0.41208 -0.00283616 0)
(0.411852 -0.00345029 0)
(0.411556 -0.00419949 0)
(0.411172 -0.00511282 0)
(0.410667 -0.00622894 0)
(0.410014 -0.00758314 0)
(0.409108 -0.00929665 0)
(0.412462 -1.36933e-05 0)
(0.412469 -4.26483e-05 0)
(0.412485 -7.15318e-05 0)
(0.412506 -9.78335e-05 0)
(0.412529 -0.000121134 0)
(0.412552 -0.000142314 0)
(0.412575 -0.000162443 0)
(0.412597 -0.000182794 0)
(0.412618 -0.000205301 0)
(0.412637 -0.00023248 0)
(0.412654 -0.000266927 0)
(0.412667 -0.000310925 0)
(0.412675 -0.000366364 0)
(0.412677 -0.0004349 0)
(0.412671 -0.000518253 0)
(0.412656 -0.000618621 0)
(0.412629 -0.000739111 0)
(0.412589 -0.000884108 0)
(0.412532 -0.00105952 0)
(0.412454 -0.00127291 0)
(0.412351 -0.00153354 0)
(0.412216 -0.00185241 0)
(0.412041 -0.00224243 0)
(0.411816 -0.00271866 0)
(0.411527 -0.00329891 0)
(0.411157 -0.00400447 0)
(0.410684 -0.00486091 0)
(0.410068 -0.00590089 0)
(0.409285 -0.00715369 0)
(0.408195 -0.00871165 0)
(0.412462 -1.61966e-05 0)
(0.41247 -4.97279e-05 0)
(0.412488 -8.1537e-05 0)
(0.412511 -0.000109014 0)
(0.412534 -0.000132544 0)
(0.412557 -0.000153688 0)
(0.412578 -0.000173593 0)
(0.412599 -0.000193394 0)
(0.412618 -0.000214981 0)
(0.412635 -0.000240854 0)
(0.412648 -0.000273518 0)
(0.412657 -0.000315133 0)
(0.41266 -0.000367487 0)
(0.412656 -0.000432148 0)
(0.412642 -0.000510745 0)
(0.412617 -0.000605347 0)
(0.412579 -0.000718868 0)
(0.412524 -0.000855409 0)
(0.412449 -0.00102049 0)
(0.41235 -0.00122114 0)
(0.412221 -0.00146596 0)
(0.412054 -0.00176511 0)
(0.411841 -0.00213038 0)
(0.41157 -0.00257544 0)
(0.411226 -0.00311618 0)
(0.410788 -0.00377126 0)
(0.410234 -0.00456253 0)
(0.40952 -0.00551634 0)
(0.408625 -0.00665636 0)
(0.407386 -0.0080421 0)
(0.412462 -1.91336e-05 0)
(0.412472 -5.79107e-05 0)
(0.412492 -9.25834e-05 0)
(0.412518 -0.000120697 0)
(0.412542 -0.000143974 0)
(0.412565 -0.000164789 0)
(0.412585 -0.000184218 0)
(0.412604 -0.000203201 0)
(0.412622 -0.0002236 0)
(0.412636 -0.000247869 0)
(0.412647 -0.000278361 0)
(0.412652 -0.00031706 0)
(0.41265 -0.000365626 0)
(0.41264 -0.000425535 0)
(0.412619 -0.000498313 0)
(0.412585 -0.000585891 0)
(0.412535 -0.000690977 0)
(0.412467 -0.000817357 0)
(0.412376 -0.000970107 0)
(0.412257 -0.00115568 0)
(0.412103 -0.00138193 0)
(0.411908 -0.00165807 0)
(0.41166 -0.00199473 0)
(0.411346 -0.00240406 0)
(0.410951 -0.00289997 0)
(0.410453 -0.0034984 0)
(0.409827 -0.00421752 0)
(0.409029 -0.00507746 0)
(0.408039 -0.00609722 0)
(0.406686 -0.00730279 0)
(0.412463 -2.28129e-05 0)
(0.412475 -6.76884e-05 0)
(0.412499 -0.00010505 0)
(0.412528 -0.000133088 0)
(0.412554 -0.000155584 0)
(0.412576 -0.000175723 0)
(0.412596 -0.000194324 0)
(0.412614 -0.000212163 0)
(0.41263 -0.000231152 0)
(0.412642 -0.000253684 0)
(0.41265 -0.000281916 0)
(0.412652 -0.000317626 0)
(0.412646 -0.000362312 0)
(0.41263 -0.000417321 0)
(0.412602 -0.000484046 0)
(0.41256 -0.000564242 0)
(0.4125 -0.000660365 0)
(0.412419 -0.000775842 0)
(0.412313 -0.000915257 0)
(0.412176 -0.00108442 0)
(0.412001 -0.00129037 0)
(0.411779 -0.00154132 0)
(0.411499 -0.00184664 0)
(0.411148 -0.00221689 0)
(0.410708 -0.00266395 0)
(0.410156 -0.00320104 0)
(0.409468 -0.00384285 0)
(0.408599 -0.00460367 0)
(0.407531 -0.0054994 0)
(0.406097 -0.00652452 0)
(0.412464 -2.76121e-05 0)
(0.412479 -7.98084e-05 0)
(0.412509 -0.000119328 0)
(0.412542 -0.000146372 0)
(0.412569 -0.000167735 0)
(0.412591 -0.000186969 0)
(0.412611 -0.000204237 0)
(0.412629 -0.000220221 0)
(0.412643 -0.000236982 0)
(0.412653 -0.000256827 0)
(0.412658 -0.000281665 0)
(0.412657 -0.000313071 0)
(0.412647 -0.000352421 0)
(0.412627 -0.000400957 0)
(0.412593 -0.00045995 0)
(0.412543 -0.00053098 0)
(0.412474 -0.000616253 0)
(0.412382 -0.000718821 0)
(0.412262 -0.000842745 0)
(0.412109 -0.000993144 0)
(0.411914 -0.00117619 0)
(0.411669 -0.00139902 0)
(0.411361 -0.00166972 0)
(0.410976 -0.00199726 0)
(0.410497 -0.00239149 0)
(0.409899 -0.00286298 0)
(0.409158 -0.00342331 0)
(0.408231 -0.00408158 0)
(0.407101 -0.0048528 0)
(0.405612 -0.005705 0)
(0.412465 -3.4266e-05 0)
(0.412486 -9.54404e-05 0)
(0.412525 -0.000135578 0)
(0.412562 -0.000160082 0)
(0.412591 -0.000180124 0)
(0.412613 -0.000198987 0)
(0.412633 -0.00021577 0)
(0.41265 -0.000231005 0)
(0.412663 -0.000246811 0)
(0.412672 -0.000265301 0)
(0.412675 -0.000288076 0)
(0.412671 -0.00031645 0)
(0.412658 -0.000351607 0)
(0.412633 -0.000394637 0)
(0.412594 -0.000446654 0)
(0.412537 -0.000509048 0)
(0.41246 -0.000583754 0)
(0.412358 -0.000673407 0)
(0.412227 -0.000781502 0)
(0.412059 -0.000912423 0)
(0.411847 -0.0010715 0)
(0.411582 -0.00126479 0)
(0.41125 -0.00149903 0)
(0.410836 -0.00178161 0)
(0.410323 -0.00212048 0)
(0.409687 -0.00252357 0)
(0.408903 -0.00299957 0)
(0.407928 -0.00355279 0)
(0.406748 -0.00420029 0)
(0.405224 -0.0048897 0)
(0.412467 -4.41019e-05 0)
(0.412498 -0.000116644 0)
(0.412548 -0.000155129 0)
(0.41259 -0.000174255 0)
(0.412619 -0.0001899 0)
(0.412641 -0.000204719 0)
(0.412661 -0.000217401 0)
(0.412678 -0.000228767 0)
(0.412691 -0.000240846 0)
(0.412698 -0.000255334 0)
(0.412699 -0.000273472 0)
(0.412693 -0.000296353 0)
(0.412677 -0.000324988 0)
(0.412648 -0.000360306 0)
(0.412605 -0.000403242 0)
(0.412542 -0.000454998 0)
(0.412459 -0.000517232 0)
(0.412348 -0.000592145 0)
(0.412207 -0.000682665 0)
(0.412027 -0.00079231 0)
(0.411801 -0.000925526 0)
(0.411518 -0.00108724 0)
(0.411166 -0.00128285 0)
(0.410728 -0.00151811 0)
(0.410188 -0.00179916 0)
(0.409521 -0.00213149 0)
(0.408702 -0.00252151 0)
(0.40769 -0.00296819 0)
(0.406473 -0.00349648 0)
(0.404916 -0.00403541 0)
(0.412472 -5.89542e-05 0)
(0.412518 -0.000143917 0)
(0.412584 -0.000181682 0)
(0.412633 -0.00020183 0)
(0.412663 -0.000219917 0)
(0.412685 -0.000235492 0)
(0.412705 -0.00024766 0)
(0.412722 -0.000258288 0)
(0.412733 -0.000269407 0)
(0.412739 -0.000282262 0)
(0.412739 -0.000297783 0)
(0.412731 -0.000316866 0)
(0.412713 -0.000340346 0)
(0.412681 -0.000369009 0)
(0.412634 -0.000403619 0)
(0.412567 -0.00044518 0)
(0.412477 -0.000495083 0)
(0.41236 -0.000555004 0)
(0.41221 -0.000627298 0)
(0.412021 -0.000714629 0)
(0.411783 -0.000820664 0)
(0.411486 -0.000949247 0)
(0.411118 -0.00110455 0)
(0.410662 -0.00129094 0)
(0.4101 -0.00151274 0)
(0.409409 -0.00177281 0)
(0.408566 -0.00207488 0)
(0.407525 -0.00241041 0)
(0.406282 -0.00281325 0)
(0.40468 -0.00321258 0)
(0.412479 -8.7471e-05 0)
(0.41255 -0.000161587 0)
(0.412633 -0.000175582 0)
(0.412685 -0.000185333 0)
(0.412716 -0.000197816 0)
(0.41274 -0.000208755 0)
(0.412761 -0.000217211 0)
(0.412778 -0.000224707 0)
(0.412789 -0.000232781 0)
(0.412795 -0.000242537 0)
(0.412794 -0.000254289 0)
(0.412784 -0.000268596 0)
(0.412764 -0.000286014 0)
(0.412731 -0.000307094 0)
(0.41268 -0.000332541 0)
(0.41261 -0.000363219 0)
(0.412516 -0.000400205 0)
(0.412394 -0.000444983 0)
(0.412238 -0.000499232 0)
(0.412041 -0.000564984 0)
(0.411794 -0.000644277 0)
(0.411487 -0.0007397 0)
(0.411106 -0.000854247 0)
(0.410635 -0.000990968 0)
(0.410058 -0.00115284 0)
(0.409351 -0.00134144 0)
(0.408495 -0.00155819 0)
(0.407434 -0.0017848 0)
(0.406183 -0.00205495 0)
(0.404443 -0.00219875 0)
(0.41249 -0.00015529 0)
(0.412641 -0.000289733 0)
(0.412757 -0.000274738 0)
(0.412789 -0.000271841 0)
(0.412811 -0.000278459 0)
(0.412833 -0.000284299 0)
(0.412852 -0.000288112 0)
(0.412864 -0.000291743 0)
(0.41287 -0.000296097 0)
(0.412868 -0.000301411 0)
(0.412858 -0.000307972 0)
(0.412838 -0.000316113 0)
(0.412805 -0.000326234 0)
(0.412759 -0.000338912 0)
(0.412694 -0.0003542 0)
(0.412608 -0.000372818 0)
(0.412496 -0.000395746 0)
(0.412353 -0.000423116 0)
(0.412172 -0.000456753 0)
(0.411946 -0.000495281 0)
(0.411666 -0.000544853 0)
(0.411319 -0.000604756 0)
(0.410893 -0.000676659 0)
(0.410372 -0.000762518 0)
(0.409739 -0.000863737 0)
(0.408973 -0.000980408 0)
(0.408054 -0.00111278 0)
(0.406943 -0.00123429 0)
(0.405629 -0.00139933 0)
(0.403176 -0.00096307 0)
(0.412111 -0.000106875 0)
(0.411834 -0.00018171 0)
(0.411409 -0.000194585 0)
(0.410921 -0.000199593 0)
(0.410429 -0.000205709 0)
(0.409941 -0.000210379 0)
(0.409447 -0.000213851 0)
(0.408947 -0.000217003 0)
(0.408439 -0.00022012 0)
(0.407925 -0.000223318 0)
(0.407401 -0.000226771 0)
(0.406868 -0.000230666 0)
(0.406322 -0.000235135 0)
(0.405761 -0.000240263 0)
(0.405181 -0.000246266 0)
(0.404578 -0.000253323 0)
(0.403947 -0.000261609 0)
(0.403283 -0.000271641 0)
(0.402579 -0.000283662 0)
(0.401826 -0.000298361 0)
(0.401014 -0.000316172 0)
(0.40013 -0.000337284 0)
(0.399159 -0.000362361 0)
(0.398084 -0.000392086 0)
(0.396885 -0.000427507 0)
(0.395542 -0.000467972 0)
(0.394034 -0.000517997 0)
(0.392357 -0.00054584 0)
(0.390576 -0.00065162 0)
(0.387109 -6.32942e-05 0)
(0.415314 -0.00182583 -1.23428e-18)
(0.420557 -0.00244628 -9.49897e-21)
(0.424425 -0.00293253 1.27018e-18)
(0.426479 -0.00359353 2.55193e-18)
(0.427631 -0.00446486 1.30266e-18)
(0.42842 -0.00550616 -1.29254e-18)
(0.429048 -0.00668904 1.31796e-18)
(0.429607 -0.00801254 0)
(0.43015 -0.00947989 1.3362e-18)
(0.430699 -0.011091 -5.17962e-21)
(0.431251 -0.0128501 9.38665e-20)
(0.431795 -0.0147716 0)
(0.432327 -0.016879 -1.57951e-18)
(0.432849 -0.0192031 0)
(0.433364 -0.0217828 0)
(0.433877 -0.0246672 -1.73271e-18)
(0.43439 -0.0279204 -1.66348e-18)
(0.434909 -0.0316266 -2.77937e-22)
(0.435434 -0.0358982 1.65244e-18)
(0.435969 -0.040887 2.44779e-19)
(0.436515 -0.0468001 -2.26698e-18)
(0.437073 -0.0539455 2.61058e-19)
(0.437654 -0.0626869 -1.35064e-19)
(0.438214 -0.073935 2.05483e-18)
(0.438902 -0.0877014 2.81414e-19)
(0.439303 -0.108824 -1.43298e-19)
(0.440747 -0.130729 0)
(0.44011 -0.183989 -1.81213e-18)
(0.446212 -0.21712 -1.88964e-18)
(0.44314 -0.400708 0)
(0.424695 -0.00256758 1.23769e-18)
(0.426421 -0.00295718 -2.91875e-20)
(0.42748 -0.0036636 2.45753e-20)
(0.427618 -0.0046008 -1.29137e-18)
(0.427745 -0.00568103 -4.13474e-20)
(0.42804 -0.00686397 1.39478e-18)
(0.428463 -0.00815215 1.30171e-18)
(0.428945 -0.009557 1.77428e-19)
(0.429447 -0.0110836 -9.1022e-20)
(0.42995 -0.012738 1.48859e-18)
(0.430436 -0.0145353 1.63151e-18)
(0.430898 -0.0164981 1.48012e-18)
(0.431338 -0.018654 1.72522e-18)
(0.431761 -0.0210348 1.56829e-18)
(0.432167 -0.0236799 1.72422e-18)
(0.432557 -0.0266402 3.65508e-18)
(0.432928 -0.0299816 1.72355e-18)
(0.433276 -0.0337908 -2.01874e-18)
(0.433597 -0.0381826 2.08963e-18)
(0.433881 -0.0433116 -1.26484e-19)
(0.434112 -0.0493895 1.31254e-19)
(0.434271 -0.0567203 2.19041e-18)
(0.434317 -0.0657034 0)
(0.434194 -0.0771362 -1.44522e-19)
(0.433856 -0.0913873 2.57248e-18)
(0.432935 -0.112331 0)
(0.432101 -0.135589 2.51582e-18)
(0.428201 -0.186959 -2.15333e-18)
(0.427988 -0.222802 -3.75341e-20)
(0.415357 -0.399177 8.70391e-20)
(0.424337 -0.00297197 -9.65255e-21)
(0.425064 -0.0035769 -9.78044e-21)
(0.425648 -0.00459319 -1.26438e-18)
(0.426075 -0.00574175 -4.10696e-20)
(0.426513 -0.00691345 4.20957e-20)
(0.427061 -0.00812391 -4.30009e-20)
(0.427616 -0.00941353 -1.36422e-18)
(0.428118 -0.0108072 0)
(0.428568 -0.0123199 0)
(0.428982 -0.0139671 0)
(0.429369 -0.0157677 -1.56073e-18)
(0.42973 -0.0177427 -9.09941e-20)
(0.430067 -0.0199167 -1.44501e-18)
(0.43038 -0.0223202 -1.70255e-18)
(0.430665 -0.0249935 -1.86627e-18)
(0.430914 -0.0279886 -1.81334e-18)
(0.431123 -0.0313727 1.35002e-19)
(0.43128 -0.0352336 1.818e-18)
(0.431372 -0.039687 -1.8833e-18)
(0.431378 -0.0448885 -1.3103e-19)
(0.431266 -0.0510518 0)
(0.430992 -0.0584768 -4.6678e-18)
(0.430483 -0.0675879 1.46984e-19)
(0.42962 -0.079081 -2.46927e-18)
(0.428285 -0.093665 6.92988e-20)
(0.425922 -0.114177 0)
(0.422983 -0.138827 -5.39235e-18)
(0.41566 -0.187357 4.91802e-18)
(0.409467 -0.227398 -2.65194e-18)
(0.386406 -0.394009 -1.23319e-19)
(0.424255 -0.00429407 0)
(0.424828 -0.00510088 -1.30076e-18)
(0.425347 -0.00611523 3.71042e-23)
(0.425766 -0.00716942 2.09132e-20)
(0.42616 -0.00824339 0)
(0.426561 -0.0093965 0)
(0.426942 -0.010668 -1.43997e-18)
(0.42729 -0.0120668 0)
(0.427616 -0.0135961 9.45166e-20)
(0.427929 -0.015265 -1.9439e-19)
(0.428224 -0.0170886 1.05427e-22)
(0.428492 -0.0190867 -1.53884e-18)
(0.428728 -0.0212848 1.06078e-19)
(0.428926 -0.0237159 1.64951e-18)
(0.429078 -0.0264219 1.13126e-19)
(0.429177 -0.0294561 1.76444e-18)
(0.429211 -0.0328863 -1.93015e-18)
(0.429162 -0.0368007 -2.02345e-18)
(0.429008 -0.0413157 0)
(0.428715 -0.0465875 2.05311e-18)
(0.428235 -0.0528298 1.41366e-19)
(0.427497 -0.0603411 2.48764e-18)
(0.426389 -0.0695485 -1.53799e-19)
(0.424749 -0.0811091 2.54002e-18)
(0.422322 -0.0958634 -2.64176e-18)
(0.418516 -0.116079 0)
(0.413213 -0.141516 2.89667e-18)
(0.402653 -0.187511 -2.723e-18)
(0.390061 -0.230384 2.71577e-18)
(0.357177 -0.38596 5.81866e-20)
(0.423836 -0.00548538 0)
(0.424254 -0.00626502 1.29699e-18)
(0.424612 -0.0072006 0)
(0.424945 -0.00822208 0)
(0.425273 -0.00932154 0)
(0.425604 -0.0105223 0)
(0.425922 -0.0118361 1.46111e-18)
(0.426217 -0.0132635 4.69591e-20)
(0.426486 -0.0148097 -4.83038e-20)
(0.426727 -0.0164892 0)
(0.426934 -0.0183221 0)
(0.4271 -0.0203315 1.0541e-19)
(0.42722 -0.0225447 -5.95041e-24)
(0.427288 -0.0249953 -1.90379e-18)
(0.427296 -0.0277252 0)
(0.42723 -0.0307875 -1.91879e-18)
(0.427073 -0.03425 0)
(0.4268 -0.0382011 2.1971e-18)
(0.426379 -0.0427571 -2.70557e-19)
(0.425763 -0.0480734 -2.09986e-18)
(0.424885 -0.054362 1.18903e-18)
(0.42365 -0.061918 0)
(0.421906 -0.0711645 0)
(0.41944 -0.0827299 0)
(0.415874 -0.0975129 1.44788e-18)
(0.410566 -0.11739 -1.52173e-18)
(0.402824 -0.143178 0)
(0.389098 -0.186612 -1.61294e-18)
(0.369965 -0.231468 -1.70639e-18)
(0.327692 -0.375056 1.03766e-18)
(0.423254 -0.00655969 6.35725e-19)
(0.423576 -0.00736941 6.71073e-19)
(0.423845 -0.00832032 6.97849e-19)
(0.424123 -0.00936205 6.50102e-19)
(0.424404 -0.0104824 7.772e-19)
(0.424668 -0.0116916 6.83691e-19)
(0.424904 -0.0130019 7.48769e-19)
(0.42511 -0.0144227 -7.69605e-19)
(0.425283 -0.0159662 4.93198e-20)
(0.425421 -0.0176485 7.13859e-19)
(0.425519 -0.0194887 8.40744e-19)
(0.42557 -0.0215086 8.13814e-19)
(0.425567 -0.0237345 1.1162e-19)
(0.425499 -0.0261995 -9.28407e-19)
(0.425353 -0.0289455 1.19779e-19)
(0.425111 -0.0320256 -2.48437e-19)
(0.424749 -0.0355078 -9.10123e-19)
(0.424236 -0.0394798 -1.08274e-18)
(0.423529 -0.0440568 0)
(0.422568 -0.0493922 -1.47081e-19)
(0.421268 -0.0556948 2.08923e-20)
(0.419507 -0.0632534 1.60989e-19)
(0.417094 -0.0724817 1.20611e-18)
(0.413761 -0.0839833 2.69011e-19)
(0.409017 -0.0986604 -4.5697e-20)
(0.402161 -0.118131 1.67819e-18)
(0.391934 -0.143831 -1.05745e-19)
(0.375119 -0.184687 1.6887e-18)
(0.349398 -0.230626 1.89618e-18)
(0.298687 -0.361125 -1.21007e-18)
(0.422537 -0.00759557 -6.53828e-19)
(0.422782 -0.008418 -6.58745e-19)
(0.422968 -0.00936732 -6.96411e-19)
(0.423177 -0.0104054 2.52418e-20)
(0.423387 -0.0115252 -1.42234e-18)
(0.42357 -0.0127358 -7.39706e-19)
(0.42372 -0.0140492 -1.61942e-18)
(0.423837 -0.0154755 9.31322e-20)
(0.42392 -0.0170257 -5.04336e-20)
(0.423962 -0.0187144 -1.66356e-18)
(0.423956 -0.0205597 6.57724e-21)
(0.423892 -0.0225835 -8.27685e-19)
(0.42376 -0.024813 8.64229e-19)
(0.423547 -0.0272817 -9.12315e-21)
(0.423236 -0.0300316 1.23436e-19)
(0.422805 -0.0331155 -1.27999e-19)
(0.422224 -0.0366004 1.06141e-18)
(0.421455 -0.0405726 1.10708e-18)
(0.420445 -0.0451451 1.46139e-19)
(0.41912 -0.050468 9.27084e-19)
(0.417376 -0.0567447 -1.03295e-18)