/*--------------------------------*- C++ -*----------------------------------*\
  =========                 |
  \\      /  F ield         | OpenFOAM: The Open Source CFD Toolbox
   \\    /   O peration     | Website:  https://openfoam.org
    \\  /    A nd           | Version:  11
     \\/     M anipulation  |
\*---------------------------------------------------------------------------*/
FoamFile
{
    format      ascii;
    class       volScalarField;
    location    "7.7";
    object      p;
}
// * * * * * * * * * * * * * * * * * * * * * * * * * * * * * * * * * * * * * //

dimensions      [0 2 -2 0 0 0 0];

internalField   nonuniform List<scalar> 
12600
(
0.224655
0.224565
0.224517
0.224504
0.224498
0.224492
0.224486
0.224482
0.22448
0.22448
0.224479
0.224478
0.224473
0.224465
0.224451
0.224432
0.224404
0.224362
0.224301
0.224212
0.224089
0.223918
0.223686
0.223373
0.222958
0.22241
0.221696
0.220773
0.219619
0.218112
0.224585
0.224546
0.224513
0.224501
0.224495
0.22449
0.224485
0.224483
0.224482
0.224481
0.224481
0.22448
0.224478
0.22447
0.224456
0.224439
0.224415
0.224377
0.224321
0.224238
0.224122
0.223961
0.223739
0.223439
0.223037
0.222504
0.221805
0.220897
0.219734
0.218254
0.224553
0.22454
0.224517
0.224502
0.224495
0.224491
0.224486
0.224483
0.224482
0.224482
0.224483
0.224482
0.224481
0.224476
0.224467
0.224454
0.224433
0.2244
0.224351
0.224278
0.224174
0.224027
0.223823
0.223544
0.223167
0.222663
0.221992
0.221117
0.21996
0.218512
0.224531
0.224524
0.224509
0.224496
0.22449
0.224486
0.224483
0.224481
0.224481
0.224482
0.224483
0.224484
0.224485
0.224483
0.224478
0.22447
0.224455
0.224431
0.224392
0.224333
0.224246
0.224121
0.223944
0.223698
0.223359
0.222898
0.222275
0.221451
0.22033
0.21892
0.224514
0.22451
0.224501
0.224492
0.224487
0.224484
0.224481
0.22448
0.224481
0.224482
0.224485
0.224488
0.224491
0.224493
0.224493
0.22449
0.224484
0.224469
0.224443
0.224402
0.224336
0.224239
0.224097
0.223893
0.223605
0.223204
0.222647
0.221895
0.22084
0.219497
0.224501
0.224498
0.224493
0.224486
0.224481
0.224479
0.224477
0.224477
0.224479
0.224481
0.224485
0.22449
0.224496
0.224502
0.224507
0.224511
0.224514
0.224511
0.224501
0.224479
0.224441
0.224377
0.224277
0.224125
0.223901
0.223576
0.223108
0.222453
0.221496
0.220254
0.224489
0.224487
0.224484
0.224479
0.224475
0.224474
0.224473
0.224474
0.224476
0.22448
0.224486
0.224493
0.224501
0.224511
0.224522
0.224534
0.224546
0.224557
0.224564
0.224565
0.224556
0.224531
0.22448
0.22439
0.224242
0.22401
0.223651
0.223123
0.222299
0.221199
0.224478
0.224477
0.224475
0.224472
0.224469
0.224468
0.224468
0.22447
0.224473
0.224478
0.224485
0.224494
0.224505
0.224519
0.224536
0.224556
0.224578
0.224602
0.224628
0.224654
0.224678
0.224694
0.224697
0.224677
0.224617
0.224494
0.224267
0.223896
0.223248
0.222342
0.224468
0.224468
0.224467
0.224464
0.224462
0.224462
0.224462
0.224464
0.224468
0.224474
0.224482
0.224493
0.224508
0.224526
0.224548
0.224575
0.224608
0.224646
0.224691
0.224743
0.2248
0.224861
0.224922
0.224978
0.225015
0.225015
0.224943
0.224762
0.224336
0.223686
0.224459
0.224459
0.224458
0.224456
0.224455
0.224455
0.224456
0.224458
0.224463
0.224469
0.224479
0.224491
0.224508
0.224529
0.224557
0.224591
0.224633
0.224685
0.224749
0.224825
0.224916
0.225022
0.225144
0.225279
0.225421
0.225557
0.22566
0.225699
0.225546
0.22522
0.22445
0.22445
0.224449
0.224448
0.224447
0.224447
0.224448
0.224451
0.224456
0.224463
0.224473
0.224487
0.224505
0.224529
0.224561
0.224601
0.224652
0.224717
0.224797
0.224897
0.225021
0.225171
0.225353
0.225569
0.225818
0.226098
0.22639
0.226677
0.226845
0.226917
0.224441
0.224441
0.224441
0.22444
0.224439
0.224439
0.22444
0.224443
0.224447
0.224454
0.224465
0.224479
0.224499
0.224525
0.22456
0.224605
0.224663
0.224738
0.224834
0.224955
0.225107
0.225299
0.225537
0.22583
0.226186
0.226611
0.227101
0.227654
0.228185
0.228722
0.224433
0.224433
0.224432
0.224431
0.22443
0.22443
0.224431
0.224433
0.224437
0.224444
0.224454
0.224469
0.224489
0.224516
0.224553
0.224601
0.224664
0.224747
0.224854
0.224992
0.225169
0.225395
0.225683
0.226047
0.226502
0.227067
0.227753
0.228578
0.229496
0.23055
0.224425
0.224425
0.224424
0.224422
0.224421
0.224421
0.224421
0.224422
0.224426
0.224432
0.224441
0.224455
0.224474
0.224501
0.224538
0.224588
0.224654
0.224741
0.224855
0.225005
0.2252
0.225453
0.225781
0.226203
0.226744
0.227433
0.2283
0.229386
0.230692
0.232281
0.224417
0.224416
0.224415
0.224414
0.224412
0.224411
0.22441
0.224411
0.224413
0.224417
0.224425
0.224437
0.224455
0.224481
0.224516
0.224565
0.22463
0.224718
0.224835
0.22499
0.225195
0.225465
0.22582
0.226284
0.22689
0.227678
0.228696
0.230008
0.23167
0.233769
0.224409
0.224409
0.224407
0.224405
0.224403
0.224401
0.224399
0.224398
0.224399
0.224401
0.224407
0.224417
0.224432
0.224454
0.224487
0.224531
0.224593
0.224678
0.224792
0.224946
0.225151
0.225426
0.225791
0.226276
0.22692
0.227771
0.228896
0.230377
0.232323
0.234851
0.224402
0.224401
0.224399
0.224397
0.224394
0.22439
0.224387
0.224385
0.224383
0.224384
0.224386
0.224393
0.224404
0.224422
0.224449
0.224488
0.224543
0.22462
0.224726
0.22487
0.225066
0.225331
0.225689
0.226171
0.226819
0.227691
0.228862
0.230433
0.232554
0.235367
0.224395
0.224394
0.224391
0.224389
0.224384
0.22438
0.224375
0.22437
0.224367
0.224364
0.224364
0.224366
0.224373
0.224385
0.224405
0.224435
0.22448
0.224545
0.224636
0.224763
0.224939
0.22518
0.225511
0.225963
0.22658
0.227421
0.22857
0.230133
0.232287
0.235191
0.224389
0.224388
0.224385
0.224381
0.224375
0.224369
0.224362
0.224356
0.224349
0.224344
0.224339
0.224337
0.224338
0.224343
0.224354
0.224374
0.224405
0.224454
0.224524
0.224627
0.224772
0.224975
0.22526
0.225655
0.226203
0.226961
0.228011
0.229459
0.231487
0.234251
0.224384
0.224382
0.224378
0.224373
0.224366
0.224359
0.22435
0.224341
0.224332
0.224322
0.224314
0.224306
0.2243
0.224297
0.224298
0.224305
0.224321
0.224349
0.224394
0.224464
0.224569
0.224721
0.224941
0.225253
0.225696
0.226319
0.227197
0.228423
0.230162
0.232552
0.22438
0.224378
0.224373
0.224367
0.224358
0.224349
0.224338
0.224326
0.224314
0.224301
0.224287
0.224274
0.224261
0.224248
0.224238
0.224231
0.224228
0.224233
0.224249
0.224281
0.224337
0.224427
0.224565
0.224772
0.225077
0.22552
0.226159
0.227067
0.228373
0.230176
0.224377
0.224374
0.224369
0.224361
0.224351
0.224339
0.224326
0.224312
0.224296
0.224279
0.224261
0.224241
0.224221
0.224199
0.224176
0.224153
0.224131
0.22411
0.224093
0.224083
0.224084
0.224102
0.224146
0.22423
0.224371
0.224597
0.224945
0.22546
0.226219
0.227268
0.224376
0.224373
0.224366
0.224356
0.224344
0.224331
0.224316
0.224299
0.22428
0.224259
0.224235
0.22421
0.224181
0.224149
0.224114
0.224075
0.224032
0.223985
0.223933
0.223878
0.223819
0.223759
0.223701
0.22365
0.223611
0.223596
0.223617
0.223689
0.223826
0.224044
0.224377
0.224373
0.224365
0.224353
0.224339
0.224323
0.224306
0.224286
0.224264
0.224239
0.224211
0.224179
0.224143
0.224102
0.224054
0.223999
0.223935
0.223861
0.223774
0.223673
0.223554
0.223414
0.223251
0.223059
0.222833
0.222566
0.222246
0.221854
0.221359
0.220715
0.22438
0.224376
0.224365
0.22435
0.224334
0.224317
0.224298
0.224275
0.22425
0.224221
0.224189
0.224151
0.224108
0.224057
0.223997
0.223927
0.223843
0.223743
0.223622
0.223476
0.223298
0.223081
0.222813
0.222483
0.222073
0.221558
0.220905
0.220063
0.218953
0.217482
0.224387
0.224381
0.224366
0.224349
0.224331
0.224312
0.224291
0.224266
0.224238
0.224206
0.22417
0.224127
0.224077
0.224018
0.223948
0.223863
0.223761
0.223637
0.223485
0.223297
0.223065
0.222775
0.222411
0.221952
0.22137
0.220626
0.219661
0.21841
0.21674
0.214529
0.224398
0.224389
0.224369
0.224348
0.224328
0.224308
0.224285
0.224258
0.224227
0.224193
0.224152
0.224105
0.22405
0.223983
0.223904
0.223808
0.22369
0.223545
0.223366
0.223142
0.222862
0.222508
0.22206
0.221489
0.220757
0.219813
0.218586
0.21698
0.214835
0.212006
0.224416
0.2244
0.224373
0.22435
0.22433
0.224308
0.224282
0.224254
0.224222
0.224185
0.224141
0.224091
0.224031
0.223959
0.223872
0.223766
0.223635
0.223474
0.223273
0.22302
0.222701
0.222296
0.221779
0.221117
0.220263
0.219161
0.217726
0.215841
0.213331
0.210034
0.224446
0.224405
0.224368
0.224348
0.224328
0.224305
0.224278
0.224249
0.224215
0.224177
0.224132
0.224079
0.224015
0.223939
0.223847
0.223735
0.223596
0.223423
0.223206
0.222933
0.222587
0.222145
0.221579
0.220851
0.21991
0.218694
0.217119
0.215038
0.212287
0.208688
0.224516
0.224425
0.224371
0.224349
0.22433
0.224307
0.224279
0.224249
0.224215
0.224175
0.224129
0.224075
0.22401
0.223932
0.223838
0.223721
0.223578
0.223399
0.223174
0.22289
0.222528
0.222067
0.221475
0.220711
0.219724
0.218444
0.216779
0.214589
0.211708
0.207916
0.216595
0.215776
0.215339
0.215127
0.214883
0.214553
0.214188
0.213808
0.213412
0.212991
0.21254
0.212055
0.211528
0.210947
0.210297
0.209559
0.208709
0.207718
0.206547
0.205144
0.203442
0.201347
0.198728
0.195406
0.191102
0.185466
0.177853
0.166922
0.155285
0.122017
0.217139
0.21666
0.216305
0.216044
0.215755
0.21541
0.215044
0.214688
0.214332
0.213963
0.213573
0.213158
0.212709
0.212215
0.211664
0.21104
0.210324
0.209491
0.208511
0.207341
0.205925
0.204188
0.202023
0.199285
0.19575
0.191143
0.184879
0.176334
0.165556
0.140421
0.217181
0.216864
0.21662
0.216382
0.216125
0.215858
0.215593
0.215332
0.215065
0.214784
0.214484
0.214164
0.213818
0.213438
0.213015
0.212537
0.21199
0.211355
0.210608
0.209717
0.208638
0.207314
0.205662
0.203571
0.200868
0.19734
0.192511
0.186044
0.176967
0.158824
0.217544
0.217397
0.217298
0.217127
0.216923
0.216724
0.216532
0.216342
0.216146
0.215944
0.215734
0.215516
0.215283
0.215031
0.214754
0.214443
0.214088
0.213677
0.213193
0.212613
0.211906
0.211032
0.209932
0.208524
0.206678
0.20424
0.200823
0.196255
0.189216
0.176937
0.218112
0.218083
0.218083
0.217966
0.217812
0.217682
0.217575
0.217473
0.217373
0.217275
0.217181
0.217087
0.216993
0.216894
0.216789
0.216673
0.216541
0.216387
0.2162
0.215968
0.215672
0.215287
0.214774
0.214078
0.213107
0.211753
0.209711
0.206915
0.202
0.194515
0.218881
0.218961
0.219067
0.219023
0.218942
0.2189
0.218891
0.218891
0.218898
0.218916
0.218949
0.218995
0.219055
0.219129
0.219218
0.219321
0.219438
0.219567
0.219707
0.219852
0.219995
0.220123
0.220217
0.220243
0.220141
0.219836
0.219099
0.217927
0.215049
0.211349
0.219869
0.22006
0.220275
0.220316
0.220317
0.220369
0.220465
0.220578
0.220706
0.220856
0.221033
0.221238
0.221474
0.221743
0.222049
0.222396
0.222786
0.223224
0.223714
0.224258
0.22486
0.225516
0.226221
0.22696
0.227696
0.228381
0.228848
0.229117
0.22808
0.227279
0.2211
0.221405
0.221736
0.221872
0.221965
0.222124
0.222338
0.222578
0.222841
0.223139
0.223477
0.223859
0.224288
0.224771
0.225312
0.22592
0.226602
0.227366
0.228221
0.229176
0.230241
0.231422
0.232723
0.234142
0.23566
0.237245
0.238779
0.24027
0.240806
0.242093
0.222592
0.223015
0.223465
0.223705
0.223903
0.224179
0.224521
0.2249
0.225312
0.22577
0.226283
0.226856
0.227493
0.228203
0.228994
0.229876
0.23086
0.231957
0.233181
0.234545
0.236063
0.237748
0.239611
0.241655
0.243873
0.24624
0.248669
0.251134
0.25293
0.25559
0.224353
0.224894
0.225464
0.225816
0.226129
0.226531
0.227012
0.227539
0.22811
0.228738
0.229436
0.230208
0.231062
0.232006
0.233053
0.234212
0.235499
0.236925
0.238508
0.240263
0.242207
0.244356
0.246723
0.249315
0.252127
0.255136
0.258269
0.261458
0.264192
0.267602
0.226366
0.227022
0.227708
0.228178
0.228614
0.229149
0.229773
0.230454
0.231188
0.231992
0.232877
0.233851
0.234922
0.2361
0.237397
0.238827
0.240403
0.242141
0.244058
0.24617
0.248495
0.25105
0.253846
0.256889
0.260173
0.26367
0.26731
0.270993
0.274359
0.278011
0.228582
0.229345
0.230137
0.230725
0.231289
0.231958
0.232726
0.233558
0.234455
0.235431
0.2365
0.237669
0.238948
0.240348
0.24188
0.24356
0.2454
0.247418
0.249628
0.252048
0.254694
0.257579
0.260713
0.264096
0.267716
0.271538
0.275486
0.279439
0.283127
0.286643
0.230907
0.231763
0.232644
0.233346
0.234037
0.234836
0.235739
0.236715
0.237764
0.238901
0.240139
0.241488
0.242956
0.244554
0.246294
0.248191
0.250258
0.252509
0.254961
0.257626
0.260519
0.263648
0.267018
0.270622
0.274439
0.27842
0.282478
0.286468
0.290131
0.293232
0.233196
0.234124
0.235072
0.235876
0.236685
0.237603
0.238626
0.239729
0.240912
0.242189
0.243575
0.245076
0.246703
0.248466
0.250376
0.252447
0.254692
0.257122
0.259752
0.262591
0.26565
0.268933
0.272437
0.276147
0.28003
0.284027
0.288032
0.291873
0.29528
0.297875
0.235252
0.236228
0.237218
0.238106
0.239017
0.240034
0.241154
0.242359
0.243649
0.245038
0.246538
0.248157
0.249905
0.251791
0.253825
0.25602
0.258386
0.260935
0.263675
0.266615
0.26976
0.273109
0.276652
0.280366
0.28421
0.28811
0.291952
0.295547
0.298634
0.300752
0.236846
0.237844
0.238848
0.239796
0.240784
0.241873
0.243061
0.244336
0.2457
0.247165
0.248741
0.250438
0.252262
0.254223
0.256331
0.258595
0.261025
0.263629
0.266414
0.269385
0.272541
0.275877
0.279377
0.283011
0.286729
0.290448
0.294044
0.297312
0.299991
0.301497
0.237745
0.238738
0.239733
0.240711
0.241744
0.242872
0.244095
0.245403
0.246803
0.248304
0.249914
0.251643
0.253497
0.255484
0.257613
0.259892
0.262329
0.264929
0.267696
0.270633
0.273734
0.27699
0.280379
0.283865
0.287388
0.290855
0.294129
0.296987
0.299155
0.30004
0.237752
0.238718
0.239682
0.240658
0.2417
0.242831
0.24405
0.245355
0.246749
0.248243
0.249845
0.25156
0.253397
0.255361
0.257461
0.259703
0.262092
0.264634
0.267328
0.270174
0.273164
0.276282
0.279503
0.282783
0.286055
0.289218
0.292126
0.294541
0.296204
0.296438
0.236753
0.237669
0.238587
0.239528
0.240538
0.241633
0.242812
0.244073
0.245422
0.246867
0.248415
0.250073
0.251846
0.253741
0.255764
0.25792
0.260214
0.262647
0.26522
0.267929
0.270757
0.273693
0.276704
0.27974
0.282729
0.28556
0.288081
0.290033
0.2912
0.290467
0.234741
0.235588
0.236446
0.237322
0.23826
0.23928
0.240381
0.241561
0.242825
0.244181
0.245634
0.247192
0.248859
0.250641
0.252543
0.25457
0.256723
0.259004
0.261411
0.263935
0.266571
0.269288
0.272052
0.274811
0.277484
0.279952
0.282057
0.283502
0.284179
0.282282
0.231826
0.232585
0.233369
0.234151
0.23498
0.235887
0.236875
0.237939
0.239081
0.240309
0.24163
0.243048
0.244569
0.246197
0.247938
0.249793
0.251765
0.253853
0.256053
0.258357
0.260747
0.2632
0.265674
0.268112
0.270429
0.272493
0.274149
0.275043
0.27526
0.272209
0.228228
0.228878
0.229567
0.230223
0.230907
0.231668
0.232509
0.233422
0.234406
0.235468
0.236617
0.237857
0.239192
0.240627
0.242164
0.243806
0.245553
0.247405
0.249354
0.25139
0.253496
0.255641
0.257784
0.259859
0.261776
0.263391
0.264551
0.264816
0.264513
0.260145
0.224221
0.224733
0.225301
0.225801
0.22631
0.226894
0.227557
0.228286
0.229079
0.229943
0.230886
0.231913
0.233027
0.23423
0.235526
0.236916
0.238399
0.239973
0.24163
0.243356
0.245132
0.246924
0.248686
0.250346
0.251806
0.252904
0.253489
0.252997
0.251985
0.246177
0.220093
0.220439
0.220856
0.221175
0.221484
0.221866
0.222324
0.222841
0.223413
0.224049
0.224756
0.225538
0.226397
0.227336
0.228356
0.229458
0.23064
0.231898
0.23322
0.234593
0.235992
0.237381
0.238707
0.23989
0.240822
0.241317
0.241228
0.239849
0.237963
0.230445
0.216114
0.216266
0.2165
0.216616
0.216709
0.216867
0.217097
0.217378
0.217706
0.218089
0.218533
0.219043
0.21962
0.220264
0.220978
0.22176
0.222607
0.223511
0.224461
0.225438
0.226414
0.227348
0.228179
0.228818
0.229145
0.228944
0.228069
0.225667
0.222761
0.213131
0.212518
0.212445
0.212462
0.212355
0.212215
0.212132
0.212111
0.212135
0.212197
0.212305
0.212466
0.212682
0.212953
0.213279
0.213661
0.214096
0.214578
0.215097
0.21564
0.216183
0.216694
0.217124
0.217404
0.217433
0.217077
0.216083
0.214307
0.21072
0.206646
0.194415
0.209474
0.209148
0.208919
0.208582
0.208207
0.207873
0.207587
0.207335
0.207116
0.206933
0.206791
0.206693
0.206638
0.206627
0.206657
0.206723
0.206817
0.206928
0.207035
0.207112
0.207121
0.207003
0.206682
0.206037
0.204919
0.203034
0.200233
0.195278
0.189885
0.174478
0.20713
0.206475
0.205929
0.205347
0.204743
0.20415
0.203574
0.20303
0.20252
0.202037
0.201583
0.201158
0.200764
0.2004
0.200061
0.19974
0.199428
0.199109
0.19876
0.198347
0.197826
0.197129
0.196165
0.194797
0.192854
0.189991
0.186057
0.179557
0.172762
0.153518
0.205747
0.204677
0.203732
0.202897
0.202124
0.201293
0.200392
0.199523
0.198698
0.197894
0.197108
0.196342
0.195598
0.194872
0.194156
0.193443
0.192718
0.191962
0.191145
0.190229
0.189157
0.187853
0.186209
0.184066
0.181226
0.177287
0.172093
0.163793
0.155662
0.131628
0.204603
0.2031
0.201917
0.200933
0.199873
0.198696
0.197524
0.196381
0.195247
0.194112
0.19298
0.191856
0.19074
0.189627
0.188511
0.187381
0.186221
0.185009
0.183711
0.182281
0.180654
0.178739
0.176413
0.173489
0.169741
0.164698
0.158243
0.147783
0.138955
0.108949
0.0864704
0.0632831
0.0386396
0.0136559
-0.0108687
-0.0347027
-0.0575202
-0.0791277
-0.0988198
-0.116403
-0.131577
-0.143881
-0.152875
-0.158361
-0.160182
-0.158058
-0.151666
-0.141036
-0.125979
-0.109786
-0.0953005
-0.0864473
-0.0851862
-0.0875906
-0.0895312
-0.0902604
-0.0895582
-0.0868116
-0.0824637
-0.0768314
0.123099
0.103008
0.0810002
0.0591535
0.0374315
0.0158657
-0.00511456
-0.0253085
-0.0444724
-0.0624583
-0.0786643
-0.0926708
-0.103583
-0.110736
-0.115189
-0.116962
-0.114698
-0.108546
-0.0992412
-0.0885279
-0.0798408
-0.077223
-0.0809483
-0.0862828
-0.0897637
-0.0901824
-0.0869364
-0.0815664
-0.0769713
-0.0731333
0.132053
0.113177
0.092849
0.0719593
0.0507572
0.0298288
0.00916849
-0.0110403
-0.0306339
-0.0489582
-0.0653787
-0.0793987
-0.0905014
-0.0983357
-0.103205
-0.104942
-0.102961
-0.0974785
-0.090185
-0.0811668
-0.0739512
-0.0716697
-0.0738988
-0.0768954
-0.0778923
-0.0769796
-0.0752185
-0.0737547
-0.0732078
-0.0676162
0.145689
0.129122
0.110363
0.0911804
0.0719171
0.0524079
0.0324485
0.0125189
-0.00680927
-0.0249555
-0.0413881
-0.055605
-0.0671349
-0.0756177
-0.0809914
-0.0832288
-0.0823108
-0.0786797
-0.0733251
-0.0672342
-0.0626662
-0.0609171
-0.0610363
-0.0611672
-0.0600372
-0.0581717
-0.0565074
-0.0550015
-0.0535384
-0.0495953
0.153514
0.138325
0.121099
0.103504
0.0855567
0.0669273
0.0477296
0.0284645
0.00965927
-0.00821822
-0.0246715
-0.0391638
-0.0511862
-0.0603323
-0.0664255
-0.0694748
-0.0695891
-0.0671493
-0.0630119
-0.0583067
-0.0543858
-0.0519229
-0.0504412
-0.0489998
-0.0469661
-0.0445283
-0.0420035
-0.0394168
-0.0367494
-0.0357232
0.159914
0.14623
0.130438
0.114149
0.0973262
0.0796357
0.0612293
0.0425746
0.0241686
0.00648611
-0.00994754
-0.0245636
-0.0368274
-0.0463182
-0.0528193
-0.056329
-0.0570192
-0.0553301
-0.0520816
-0.0482629
-0.0447838
-0.0420868
-0.0398977
-0.0375868
-0.0347385
-0.0314303
-0.0279316
-0.0245733
-0.0215507
-0.0200852
0.16473
0.152269
0.13773
0.122615
0.10688
0.0901765
0.072613
0.054626
0.0367037
0.0193292
0.003034
-0.0116066
-0.024045
-0.033845
-0.0407596
-0.0447658
-0.0460589
-0.0450897
-0.0425803
-0.0393518
-0.0361007
-0.0331441
-0.0302978
-0.0271536
-0.0234974
-0.0194636
-0.0153186
-0.011304
-0.00742589
-0.00414427
0.16854
0.157132
0.143713
0.129655
0.114893
0.0990694
0.0822673
0.0649043
0.0474575
0.0304039
0.0142714
-0.000360799
-0.0129304
-0.0229799
-0.0302333
-0.0346435
-0.0364022
-0.0359444
-0.0339106
-0.0310087
-0.0278097
-0.0245558
-0.0211377
-0.0173232
-0.0130346
-0.00841066
-0.00363252
0.00117623
0.0060546
0.0106142
0.171617
0.161112
0.148655
0.135533
0.12165
0.106634
0.0905521
0.073795
0.0568203
0.0400948
0.0241443
0.00955495
-0.00309642
-0.013332
-0.0208521
-0.0255873
-0.0277141
-0.0276439
-0.0259496
-0.0232501
-0.0200291
-0.0164947
-0.0126044
-0.00824502
-0.00341114
0.00176986
0.00716343
0.0126569
0.0182649
0.0234374
0.174176
0.16444
0.152815
0.140519
0.127421
0.113142
0.0977268
0.0815416
0.0650223
0.0486232
0.0328669
0.018344
0.00564336
-0.00473911
-0.012481
-0.0174894
-0.0199181
-0.0201476
-0.0186901
-0.0160975
-0.0127958
-0.00898322
-0.00467194
0.000169926
0.00549794
0.0111811
0.0170976
0.0231149
0.0292382
0.0347787
0.176365
0.167284
0.156375
0.144803
0.132408
0.118795
0.10399
0.0883361
0.0722473
0.0561637
0.0406028
0.026158
0.0134288
0.0029289
-0.00499653
-0.0102294
-0.0128984
-0.01335
-0.0120451
-0.0094874
-0.0060657
-0.00197958
0.0027131
0.0079822
0.0137435
0.0198563
0.0261995
0.0326155
0.0391144
0.0449213
0.178292
0.169768
0.159473
0.148535
0.136767
0.123754
0.109504
0.0943386
0.0786518
0.0628678
0.0474969
0.0331345
0.0203903
0.00979553
0.00171776
-0.00369934
-0.00655948
-0.00717402
-0.00596153
-0.00338957
0.000176589
0.00452921
0.00957002
0.015219
0.0213589
0.0278359
0.0345217
0.0412369
0.0480014
0.0539903
0.180034
0.171984
0.162216
0.151831
0.140621
0.128147
0.114398
0.0996794
0.0843635
0.0688589
0.0536675
0.039386
0.026634
0.0159595
0.00775264
0.00218245
-0.00082968
-0.00155925
-0.000392883
0.00223045
0.00595907
0.010572
0.0159339
0.0219227
0.0283917
0.0351718
0.042124
0.0490532
0.0559872
0.0620738
0.181649
0.174004
0.164685
0.154785
0.144069
0.132077
0.11878
0.104465
0.0894876
0.0742391
0.0592128
0.0450059
0.0322474
0.0215025
0.0131837
0.00748515
0.00435338
0.00354716
0.00470408
0.00740719
0.011311
0.0161777
0.021837
0.0281296
0.0348818
0.0419084
0.0490586
0.0561264
0.0631445
0.0692489
0.183178
0.175881
0.166946
0.157467
0.14719
0.135628
0.122736
0.108784
0.0941119
0.0790942
0.0642154
0.0500728
0.0373049
0.026494
0.0180751
0.0122677
0.00904252
0.00818989
0.00936665
0.0121719
0.0162606
0.0213746
0.0273104
0.0338745
0.0408678
0.0480891
0.0553757
0.0625153
0.069542
0.0755949
0.184651
0.177654
0.169047
0.159936
0.150046
0.138868
0.126337
0.11271
0.0983101
0.0834968
0.0687454
0.0546536
0.0418694
0.0309926
0.0224813
0.0165796
0.0132823
0.0124077
0.0136282
0.0165541
0.020835
0.0261905
0.032384
0.0391904
0.0463859
0.0537543
0.0611216
0.0682735
0.0752435
0.081189
0.186092
0.179355
0.171029
0.162239
0.152692
0.141855
0.129644
0.116305
0.102145
0.0875083
0.0728624
0.0588053
0.0459946
0.0350484
0.0264483
0.020463
0.0171109
0.016234
0.0175185
0.0205805
0.0250602
0.0306517
0.0370861
0.0441077
0.0514696
0.0589415
0.0663391
0.0734509
0.0803092
0.0861044
0.187516
0.181006
0.172922
0.164413
0.15517
0.144633
0.132707
0.119622
0.105669
0.0911815
0.0766177
0.0625766
0.0497263
0.038704
0.0300154
0.023954
0.0205611
0.019698
0.0210637
0.0242758
0.02896
0.0347828
0.0414427
0.0486547
0.0561498
0.0636849
0.0710679
0.0780943
0.0847955
0.0904094
0.188935
0.182626
0.174748
0.166487
0.157512
0.147243
0.135568
0.122704
0.108929
0.0945617
0.0800554
0.0660097
0.0531038
0.0419957
0.0332163
0.0270831
0.0236611
0.0228252
0.0242871
0.0276622
0.0325566
0.0386067
0.0454783
0.0528577
0.060455
0.068016
0.0753439
0.0822469
0.088756
0.0941695
0.190356
0.184229
0.176531
0.168486
0.159748
0.149717
0.138263
0.125591
0.111963
0.0976883
0.0832136
0.069141
0.0561611
0.0449549
0.0360802
0.0298762
0.0264321
0.0256367
0.0272097
0.03076
0.0358703
0.0421445
0.0492152
0.0567409
0.0644118
0.071965
0.0792018
0.0859482
0.0922383
0.0974447
0.191782
0.185824
0.178287
0.170432
0.161903
0.15208
0.140822
0.128314
0.114806
0.100596
0.086126
0.0720022
0.0589273
0.0476081
0.0386319
0.0323654
0.028893
0.0281496
0.0298489
0.0335873
0.0389198
0.0454157
0.0526739
0.0603258
0.0680435
0.0755589
0.0826758
0.08924
0.0952894
0.100287
0.193211
0.187416
0.180027
0.172341
0.163995
0.154357
0.143271
0.130904
0.117488
0.103314
0.0888217
0.0746211
0.0614279
0.0499787
0.0408919
0.0345548
0.0310688
0.0303835
0.0322214
0.0361603
0.0417217
0.048438
0.0558739
0.0636332
0.0713713
0.0788187
0.0857899
0.0921601
0.0979671
0.102757
0.194639
0.189007
0.181762
0.17423
0.166042
0.156567
0.145633
0.133384
0.120035
0.10587
0.0913271
0.0770211
0.0636819
0.0520817
0.0428713
0.0364598
0.0329662
0.0323473
0.0343393
0.0384939
0.0442928
0.05123
0.0588355
0.0666859
0.0744213
0.0817722
0.0885659
0.0947197
0.100296
0.104918
0.196058
0.190592
0.183498
0.176109
0.168059
0.158726
0.147926
0.135776
0.122471
0.108289
0.0936701
0.0792349
0.0657235
0.0539534
0.0446103
0.0381267
0.034623
0.0340777
0.0362345
0.0406119
0.0466507
0.0538061
0.061573
0.069501
0.0772178
0.0844594
0.0910656
0.0969766
0.102275
0.106747
0.197462
0.192169
0.18524
0.177985
0.170054
0.160849
0.150172
0.1381
0.12481
0.110574
0.0958379
0.0812369
0.0675179
0.0555451
0.0460511
0.0394587
0.0359346
0.0354851
0.0378464
0.0424839
0.0487886
0.0561736
0.0640974
0.0720832
0.0797542
0.086865
0.0932992
0.0990373
0.104107
0.108343
0.198835
0.193736
0.186997
0.179865
0.172031
0.162941
0.152388
0.140403
0.127135
0.112843
0.0979773
0.0831734
0.0692445
0.0570493
0.0474477
0.0408377
0.0372162
0.0368295
0.039368
0.0442407
0.0507904
0.0583857
0.0664446
0.0744569
0.0820369
0.0889503
0.0951332
0.100703
0.10577
0.110111
0.200149
0.195278
0.188783
0.18177
0.173998
0.164963
0.154466
0.142501
0.129187
0.114793
0.0997526
0.0846969
0.0704997
0.057988
0.0480687
0.0413942
0.0378863
0.0376677
0.0404735
0.0456599
0.0525244
0.0603892
0.0686333
0.0767167
0.0842313
0.0909608
0.0968412
0.101999
0.106616
0.110978
0.201379
0.196757
0.190566
0.183789
0.176175
0.167316
0.156958
0.145058
0.13172
0.117226
0.102009
0.0867318
0.0722803
0.059585
0.0495849
0.0425343
0.0388103
0.0386651
0.0416821
0.0471272
0.0542547
0.0623446
0.0707355
0.0788659
0.0863231
0.0929661
0.0988708
0.104219
0.10879
0.112499
0.202504
0.198167
0.192077
0.185209
0.17752
0.168707
0.158406
0.146477
0.133034
0.118353
0.102889
0.0873277
0.0725627
0.0595736
0.0494991
0.0426152
0.0390002
0.0390601
0.0424001
0.0481858
0.0555979
0.0638698
0.0722887
0.0802592
0.0873789
0.0935341
0.0988811
0.10382
0.108655
0.113252
0.203638
0.200122
0.194753
0.188233
0.180764
0.172124
0.16198
0.150153
0.136684
0.121812
0.106003
0.0899656
0.0746376
0.0610695
0.0503925
0.0430531
0.0393685
0.0395935
0.0432776
0.0495743
0.0575212
0.066273
0.0750543
0.0832108
0.0903447
0.0963938
0.101693
0.106451
0.110869
0.114478
0.140903
0.118232
0.108161
0.11437
0.139487
0.158544
0.167211
0.172509
0.176082
0.17856
0.180648
0.182757
0.184954
0.187234
0.189604
0.19206
0.194564
0.197066
0.199522
0.201895
0.204161
0.20629
0.208314
0.21016
0.212037
0.213673
0.215564
0.217092
0.219449
0.218457
0.145816
0.119587
0.105026
0.109409
0.136128
0.158263
0.168362
0.173734
0.177169
0.179252
0.180706
0.182258
0.184033
0.185968
0.188053
0.1903
0.19268
0.19514
0.197626
0.200087
0.202486
0.204766
0.206934
0.208898
0.210753
0.212333
0.213904
0.215017
0.216534
0.217083
0.146621
0.125411
0.107136
0.112262
0.133534
0.157177
0.169905
0.175859
0.179
0.180644
0.181437
0.182211
0.18334
0.184749
0.186408
0.188341
0.190519
0.192879
0.195359
0.197897
0.200442
0.202932
0.205336
0.207591
0.209696
0.211582
0.21334
0.214842
0.216383
0.21778
0.138412
0.124594
0.113012
0.118152
0.133597
0.156638
0.172622
0.179944
0.182962
0.183729
0.18353
0.183359
0.183743
0.184511
0.185609
0.187104
0.18898
0.191171
0.193592
0.196166
0.198827
0.201512
0.20417
0.206752
0.209225
0.211544
0.213707
0.21567
0.217456
0.219006
0.118086
0.110064
0.111478
0.122724
0.139146
0.158602
0.175444
0.184718
0.188426
0.188905
0.18738
0.185652
0.184894
0.184822
0.18521
0.186061
0.187406
0.18922
0.191416
0.1939
0.196582
0.199384
0.202237
0.205084
0.207875
0.21056
0.213104
0.215469
0.217642
0.219552
0.0916755
0.089676
0.0996372
0.119468
0.141606
0.16146
0.178319
0.189448
0.19437
0.195448
0.193587
0.190004
0.187384
0.185634
0.184947
0.184902
0.185543
0.186796
0.188577
0.190811
0.19339
0.196216
0.199202
0.202276
0.205372
0.208433
0.211408
0.214254
0.216949
0.219397
0.0728216
0.0755807
0.0868212
0.108183
0.134936
0.158589
0.177937
0.19195
0.199428
0.201374
0.20004
0.19676
0.192592
0.188453
0.185959
0.184077
0.183619
0.18399
0.185139
0.186953
0.189285
0.192026
0.195067
0.198318
0.201696
0.205128
0.208554
0.211915
0.215179
0.21822
0.0630727
0.0679048
0.0775001
0.0959955
0.120099
0.145661
0.169197
0.187263
0.199001
0.204752
0.20485
0.201759
0.197351
0.192905
0.188462
0.184822
0.182748
0.18122
0.181235
0.182256
0.184072
0.186509
0.189429
0.192737
0.196321
0.200084
0.203948
0.207831
0.211691
0.215366
0.0549261
0.0638257
0.0700011
0.0855099
0.105579
0.128139
0.151472
0.17293
0.190219
0.201525
0.205858
0.204879
0.200468
0.195146
0.18977
0.185393
0.181582
0.178609
0.177208
0.176718
0.177689
0.179522
0.182006
0.185091
0.188632
0.192562
0.196776
0.201154
0.205638
0.210011
0.0444787
0.0591801
0.064477
0.0758302
0.0913333
0.110304
0.131359
0.152334
0.171241
0.186636
0.197391
0.202348
0.201377
0.196568
0.189977
0.183575
0.178222
0.174464
0.17127
0.169047
0.168805
0.169611
0.171667
0.174581
0.177938
0.181891
0.186252
0.190947
0.195964
0.201034
0.0313337
0.0508933
0.0557256
0.0650686
0.0767389
0.0918686
0.109741
0.12883
0.147349
0.163772
0.176925
0.186205
0.191344
0.191904
0.188033
0.181348
0.17385
0.167159
0.161776
0.158321
0.156028
0.155162
0.15644
0.158515
0.16178
0.166302
0.170918
0.175863
0.181279
0.186755
0.0158753
0.037219
0.0425476
0.0509489
0.0601932
0.0722261
0.0868836
0.103318
0.12019
0.136176
0.149994
0.160886
0.16833
0.172294
0.173067
0.170695
0.165383
0.158272
0.150825
0.144316
0.139272
0.136484
0.135683
0.136035
0.138313
0.141753
0.145973
0.151927
0.15848
0.164541
-0.00205313
0.0187514
0.0245323
0.0325872
0.0403402
0.0500166
0.0620299
0.0758916
0.0905893
0.105117
0.118336
0.129472
0.137903
0.143313
0.145658
0.145192
0.142452
0.137883
0.131832
0.124981
0.118286
0.112737
0.10889
0.107163
0.107843
0.110275
0.113663
0.11782
0.123161
0.130083
-0.022654
-0.00254737
0.00262377
0.0101841
0.0169312
0.0249222
0.0347398
0.0462521
0.0588274
0.0716172
0.0836636
0.0941356
0.102444
0.108194
0.111221
0.111519
0.109336
0.105104
0.099429
0.0929391
0.0861884
0.0797328
0.0741702
0.0700696
0.0678524
0.0679846
0.0705363
0.0750004
0.0805037
0.0860715
-0.0445498
-0.0243749
-0.0210485
-0.0147464
-0.00917883
-0.00261421
0.00545685
0.0149464
0.0255068
0.0366513
0.0474581
0.057046
0.0648212
0.07035
0.0733795
0.0737776
0.071653
0.0672993
0.0611063
0.0535684
0.0453669
0.0372009
0.0297428
0.0235579
0.0190325
0.0165466
0.01624
0.0182214
0.0227343
0.0295131
-0.0651079
-0.0460873
-0.044903
-0.0404536
-0.0365548
-0.0315642
-0.0250652
-0.0171004
-0.00796632
0.00169154
0.0112487
0.0201203
0.0275117
0.032931
0.0359928
0.0365803
0.034593
0.0300543
0.0232811
0.0147821
0.00521251
-0.00489336
-0.0148821
-0.0240766
-0.0317888
-0.0374501
-0.0408174
-0.041715