/*--------------------------------*- C++ -*----------------------------------*\
  =========                 |
  \\      /  F ield         | OpenFOAM: The Open Source CFD Toolbox
   \\    /   O peration     | Website:  https://openfoam.org
    \\  /    A nd           | Version:  11
     \\/     M anipulation  |
\*---------------------------------------------------------------------------*/
FoamFile
{
    format      ascii;
    class       volScalarField;
    location    "7.7";
    object      p;
}
// * * * * * * * * * * * * * * * * * * * * * * * * * * * * * * * * * * * * * //

dimensions      [0 2 -2 0 0 0 0];

internalField   nonuniform List<scalar> 
12600
(
0.0911645
0.0910278
0.0909643
0.0909462
0.0909306
0.0909094
0.0908861
0.0908622
0.0908375
0.090811
0.0907819
0.0907494
0.0907129
0.0906714
0.0906238
0.0905686
0.0905041
0.0904283
0.0903383
0.0902312
0.0901031
0.0899489
0.089762
0.0895351
0.0892595
0.0889226
0.0885088
0.0879955
0.0873506
0.0864856
0.0910881
0.091019
0.0909667
0.0909452
0.0909286
0.0909082
0.0908854
0.0908618
0.0908372
0.090811
0.0907821
0.0907499
0.0907137
0.0906725
0.0906253
0.0905706
0.0905068
0.0904318
0.0903428
0.0902369
0.0901103
0.0899581
0.0897739
0.0895506
0.0892783
0.0889455
0.0885392
0.0880386
0.0874563
0.0868087
0.0910529
0.0910201
0.0909747
0.0909471
0.0909291
0.0909094
0.0908872
0.0908638
0.0908394
0.0908134
0.0907848
0.090753
0.0907172
0.0906767
0.0906303
0.0905766
0.090514
0.0904407
0.0903538
0.0902503
0.0901262
0.089977
0.0897971
0.089579
0.0893133
0.0889894
0.088595
0.0881145
0.0875494
0.0868694
0.091028
0.0910075
0.0909719
0.0909446
0.0909261
0.0909076
0.0908863
0.0908635
0.0908398
0.0908143
0.0907864
0.0907553
0.0907204
0.0906808
0.0906356
0.0905834
0.0905224
0.0904514
0.0903673
0.090267
0.0901469
0.0900027
0.089829
0.0896186
0.0893627
0.0890512
0.0886719
0.0882108
0.0876545
0.0869782
0.0910097
0.0909964
0.0909699
0.0909453
0.0909267
0.0909087
0.0908882
0.0908661
0.0908428
0.0908179
0.0907907
0.0907604
0.0907266
0.0906883
0.0906447
0.0905943
0.0905357
0.0904668
0.090386
0.09029
0.0901752
0.0900376
0.0898718
0.0896713
0.0894278
0.0891316
0.0887706
0.0883312
0.0877931
0.0871375
0.0909962
0.090987
0.0909667
0.0909448
0.0909261
0.0909084
0.0908888
0.0908675
0.0908448
0.0908206
0.0907942
0.090765
0.0907324
0.0906955
0.0906536
0.0906056
0.0905499
0.0904845
0.0904078
0.0903169
0.0902085
0.0900788
0.0899227
0.0897342
0.0895056
0.0892278
0.0888888
0.0884754
0.0879644
0.0873389
0.0909861
0.0909792
0.0909633
0.090944
0.0909261
0.090909
0.0908904
0.09087
0.0908482
0.0908249
0.0907995
0.0907715
0.0907404
0.0907053
0.0906655
0.09062
0.0905674
0.0905061
0.0904342
0.0903492
0.0902483
0.0901277
0.0899829
0.0898084
0.0895971
0.0893405
0.0890273
0.0886446
0.0881686
0.0875838
0.0909785
0.090973
0.0909601
0.0909433
0.0909265
0.0909099
0.0908921
0.0908726
0.0908517
0.0908293
0.090805
0.0907783
0.0907486
0.0907156
0.0906782
0.0906356
0.0905866
0.0905297
0.0904633
0.0903851
0.0902925
0.0901822
0.0900502
0.0898915
0.0896998
0.0894673
0.0891834
0.0888363
0.0884028
0.0878686
0.0909728
0.0909683
0.0909575
0.0909427
0.090927
0.0909111
0.0908942
0.0908756
0.0908557
0.0908343
0.0908112
0.090786
0.0907582
0.0907273
0.0906926
0.0906533
0.0906083
0.0905564
0.090496
0.0904252
0.0903418
0.0902429
0.090125
0.0899837
0.0898135
0.0896077
0.0893567
0.0890498
0.0886656
0.0881913
0.0909687
0.0909649
0.0909556
0.0909425
0.0909279
0.0909127
0.0908966
0.090879
0.0908601
0.0908398
0.090818
0.0907944
0.0907685
0.09074
0.0907081
0.0906723
0.0906316
0.0905849
0.0905311
0.0904684
0.090395
0.0903083
0.0902056
0.0900831
0.0899363
0.0897594
0.0895444
0.089282
0.0889535
0.0885477
0.0909659
0.0909626
0.0909545
0.0909427
0.0909291
0.0909147
0.0908993
0.0908827
0.0908648
0.0908457
0.0908253
0.0908034
0.0907795
0.0907535
0.0907247
0.0906926
0.0906565
0.0906155
0.0905686
0.0905145
0.0904517
0.0903781
0.0902915
0.0901891
0.0900671
0.0899211
0.0897446
0.0895305
0.0892631
0.0889336
0.0909643
0.0909613
0.090954
0.0909433
0.0909307
0.090917
0.0909024
0.0908867
0.0908698
0.090852
0.090833
0.0908129
0.0907912
0.0907677
0.0907421
0.090714
0.0906827
0.0906476
0.090608
0.0905629
0.0905111
0.0904512
0.0903815
0.0902999
0.0902039
0.0900904
0.0899547
0.0897917
0.08959
0.0893433
0.0909637
0.090961
0.0909543
0.0909444
0.0909326
0.0909196
0.0909058
0.0908909
0.0908752
0.0908585
0.0908411
0.0908227
0.0908033
0.0907825
0.0907602
0.0907362
0.0907099
0.090681
0.0906489
0.090613
0.0905726
0.0905268
0.0904745
0.0904145
0.0903454
0.0902653
0.0901717
0.0900621
0.0899293
0.0897704
0.0909641
0.0909616
0.0909553
0.090946
0.0909348
0.0909225
0.0909094
0.0908954
0.0908807
0.0908653
0.0908494
0.0908329
0.0908157
0.0907977
0.0907789
0.0907589
0.0907378
0.0907151
0.0906907
0.0906643
0.0906355
0.0906041
0.0905695
0.0905314
0.0904895
0.0904435
0.0903929
0.0903376
0.0902755
0.0902075
0.0909653
0.0909629
0.090957
0.0909481
0.0909375
0.0909257
0.0909132
0.0909001
0.0908864
0.0908723
0.0908579
0.0908432
0.0908283
0.0908132
0.0907977
0.090782
0.090766
0.0907497
0.0907331
0.0907162
0.0906992
0.0906821
0.0906653
0.0906492
0.0906346
0.0906227
0.0906149
0.090614
0.0906228
0.0906464
0.0909674
0.0909651
0.0909593
0.0909507
0.0909404
0.0909291
0.0909173
0.0909049
0.0908922
0.0908794
0.0908665
0.0908537
0.0908411
0.0908287
0.0908167
0.0908052
0.0907944
0.0907844
0.0907755
0.0907682
0.0907628
0.09076
0.0907609
0.0907666
0.0907789
0.0908005
0.0908348
0.0908872
0.0909654
0.0910785
0.0909702
0.0909679
0.0909622
0.0909537
0.0909436
0.0909328
0.0909215
0.0909099
0.0908981
0.0908864
0.090875
0.0908641
0.0908537
0.0908441
0.0908355
0.0908282
0.0908225
0.0908188
0.0908176
0.0908196
0.0908257
0.090837
0.0908551
0.090882
0.0909206
0.0909746
0.0910496
0.0911531
0.0912973
0.0914954
0.0909739
0.0909716
0.0909657
0.0909571
0.0909471
0.0909365
0.0909258
0.0909148
0.090904
0.0908934
0.0908835
0.0908743
0.0908661
0.0908593
0.090854
0.0908508
0.0908501
0.0908525
0.0908587
0.0908699
0.0908872
0.0909121
0.090947
0.0909944
0.0910581
0.0911431
0.0912565
0.0914078
0.0916131
0.0918892
0.0909784
0.0909759
0.0909698
0.0909609
0.0909508
0.0909404
0.0909301
0.0909198
0.0909097
0.0909003
0.0908917
0.0908843
0.0908783
0.090874
0.090872
0.0908727
0.0908769
0.0908852
0.0908986
0.0909186
0.0909466
0.0909847
0.0910354
0.0911023
0.0911898
0.0913038
0.0914528
0.091648
0.0919082
0.0922529
0.0909838
0.0909811
0.0909744
0.0909649
0.0909546
0.0909444
0.0909344
0.0909247
0.0909153
0.0909069
0.0908996
0.0908939
0.0908899
0.0908882
0.0908893
0.0908938
0.0909025
0.0909165
0.0909368
0.0909652
0.0910034
0.0910538
0.0911196
0.0912047
0.0913143
0.0914552
0.0916366
0.0918711
0.0921789
0.0925812
0.0909902
0.0909871
0.0909795
0.0909692
0.0909585
0.0909484
0.0909387
0.0909294
0.0909207
0.0909132
0.0909072
0.090903
0.090901
0.0909016
0.0909056
0.0909137
0.0909268
0.0909461
0.0909729
0.0910091
0.0910568
0.0911188
0.0911986
0.0913006
0.0914305
0.0915956
0.091806
0.0920746
0.0924223
0.0928707
0.0909976
0.090994
0.0909852
0.0909736
0.0909624
0.0909523
0.0909429
0.0909339
0.0909258
0.0909192
0.0909143
0.0909116
0.0909113
0.0909142
0.090921
0.0909324
0.0909495
0.0909738
0.0910066
0.0910501
0.0911066
0.0911793
0.0912719
0.0913892
0.0915373
0.0917241
0.0919597
0.0922575
0.0926374
0.0931203
0.0910064
0.0910019
0.0909912
0.090978
0.0909662
0.0909562
0.0909469
0.0909381
0.0909305
0.0909247
0.0909209
0.0909194
0.0909208
0.0909257
0.0909349
0.0909494
0.0909703
0.090999
0.0910373
0.0910874
0.091152
0.0912343
0.0913384
0.0914694
0.0916337
0.0918393
0.0920966
0.0924185
0.0928234
0.0933303
0.0910168
0.0910109
0.0909975
0.0909822
0.0909698
0.0909599
0.0909507
0.090942
0.0909349
0.0909298
0.0909269
0.0909267
0.0909296
0.0909363
0.0909478
0.090965
0.0909893
0.0910221
0.0910653
0.0911213
0.091193
0.0912838
0.0913981
0.0915411
0.0917194
0.0919412
0.0922166
0.092558
0.0929819
0.0935042
0.0910294
0.0910212
0.0910037
0.090986
0.0909733
0.0909634
0.090954
0.0909453
0.0909385
0.090934
0.0909319
0.0909327
0.0909368
0.0909452
0.0909586
0.0909783
0.0910054
0.0910418
0.0910893
0.0911506
0.0912285
0.0913267
0.0914497
0.091603
0.0917932
0.0920283
0.0923185
0.0926754
0.0931136
0.0936453
0.091045
0.0910328
0.0910092
0.0909891
0.0909768
0.0909672
0.0909575
0.0909488
0.0909423
0.0909384
0.090937
0.0909386
0.0909439
0.0909536
0.0909687
0.0909904
0.0910201
0.0910594
0.0911106
0.0911762
0.0912593
0.0913638
0.0914941
0.0916559
0.0918557
0.0921016
0.0924033
0.092772
0.0932214
0.09376
0.091065
0.0910457
0.0910131
0.0909906
0.0909787
0.090969
0.090959
0.0909503
0.0909441
0.0909406
0.0909399
0.0909423
0.0909485
0.0909594
0.0909759
0.0909993
0.091031
0.0910729
0.091127
0.0911962
0.0912836
0.091393
0.0915292
0.0916979
0.0919053
0.0921593
0.0924695
0.0928467
0.093306
0.0938515
0.0910913
0.0910598
0.0910174
0.0909947
0.0909835
0.090973
0.0909623
0.0909534
0.0909474
0.0909442
0.0909438
0.0909466
0.0909535
0.0909651
0.0909827
0.0910073
0.0910406
0.0910843
0.0911407
0.0912126
0.0913033
0.0914164
0.0915568
0.0917304
0.0919434
0.092203
0.0925186
0.0929002
0.0933689
0.0939299
0.0911274
0.0910596
0.0910105
0.0909939
0.0909844
0.0909732
0.0909621
0.0909535
0.0909479
0.0909449
0.0909449
0.0909482
0.0909556
0.0909679
0.0909862
0.0910118
0.0910461
0.0910911
0.0911492
0.0912229
0.0913157
0.0914316
0.0915753
0.0917522
0.0919685
0.0922315
0.0925491
0.0929302
0.093397
0.0939917
0.0912043
0.0910688
0.0910085
0.0909955
0.0909871
0.0909752
0.0909637
0.0909551
0.0909494
0.0909465
0.0909465
0.09095
0.0909576
0.0909702
0.0909889
0.0910148
0.0910497
0.0910953
0.0911542
0.0912289
0.0913227
0.0914402
0.0915857
0.0917641
0.091982
0.0922465
0.092564
0.0929411
0.0933678
0.0938288
0.0863636
0.0855882
0.0851892
0.0851051
0.0849971
0.0847864
0.0845375
0.0842917
0.0840555
0.0838263
0.0836035
0.0833881
0.0831796
0.0829769
0.0827781
0.0825815
0.082385
0.0821856
0.0819796
0.0817614
0.0815225
0.0812468
0.0809232
0.0804486
0.0799759
0.078455
0.0783008
0.0701154
0.0736389
0.0226813
0.0868289
0.086114
0.085617
0.0854389
0.0852761
0.0850492
0.0848036
0.084582
0.0843803
0.0841877
0.0840025
0.0838263
0.0836592
0.0835007
0.0833504
0.0832081
0.0830736
0.0829466
0.0828263
0.0827114
0.0825995
0.082485
0.0823587
0.0821796
0.0819814
0.0812304
0.081179
0.0756521
0.0783134
0.0369228
0.0864429
0.0860238
0.0857184
0.0855862
0.0854514
0.0852608
0.0850617
0.0848845
0.0847224
0.0845666
0.0844183
0.0842809
0.0841557
0.0840431
0.0839439
0.0838595
0.0837914
0.0837419
0.0837136
0.0837096
0.0837335
0.083789
0.0838775
0.0839909
0.0841337
0.0840569
0.0843605
0.0811442
0.0834517
0.0512052
0.0864534
0.0862265
0.0860354
0.0858866
0.0857364
0.0855671
0.0854023
0.085257
0.0851263
0.0850051
0.0848951
0.0847995
0.0847197
0.0846571
0.0846136
0.0845922
0.0845967
0.0846318
0.0847036
0.08482
0.0849912
0.0852301
0.0855506
0.0859696
0.086497
0.0870573
0.0878902
0.0867272
0.0891122
0.0652973
0.0865874
0.0864302
0.0862927
0.0861572
0.0860245
0.0858942
0.0857728
0.0856656
0.0855713
0.0854888
0.0854204
0.0853692
0.0853376
0.0853281
0.0853443
0.0853907
0.0854732
0.0855993
0.0857788
0.0860245
0.0863531
0.086787
0.0873539
0.0880918
0.089034
0.0902099
0.091703
0.0923613
0.0952109
0.0791198
0.0867997
0.0866918
0.0866028
0.0864959
0.0863878
0.0862898
0.0862037
0.0861306
0.0860716
0.086028
0.0860022
0.0859974
0.0860167
0.0860638
0.0861437
0.0862626
0.0864285
0.0866519
0.0869463
0.0873295
0.0878251
0.088465
0.0892907
0.0903605
0.0917368
0.0935215
0.0957563
0.0980419
0.101648
0.092572
0.0870735
0.0870037
0.086952
0.0868728
0.0867912
0.0867253
0.0866754
0.0866396
0.0866194
0.0866175
0.0866369
0.0866811
0.0867543
0.0868614
0.0870088
0.0872045
0.0874589
0.0877853
0.088201
0.0887289
0.0893997
0.0902547
0.0913492
0.0927611
0.0945834
0.0969724
0.0999937
0.103737
0.108342
0.105467
0.0873982
0.0873619
0.0873443
0.0872949
0.0872432
0.0872108
0.0871971
0.087199
0.0872184
0.087259
0.0873249
0.0874201
0.0875496
0.0877195
0.0879377
0.0882141
0.0885612
0.0889953
0.0895377
0.0902164
0.0910688
0.0921457
0.0935157
0.0952758
0.0975487
0.100535
0.104356
0.109407
0.115186
0.117633
0.0877702
0.087765
0.087779
0.0877598
0.0877389
0.0877399
0.0877624
0.0878026
0.0878627
0.0879476
0.0880618
0.0882099
0.0883978
0.088633
0.0889248
0.0892847
0.0897279
0.0902734
0.0909463
0.0917797
0.0928178
0.0941204
0.095769
0.0978783
0.100599
0.104169
0.108778
0.114997
0.122056
0.128912
0.0881845
0.0882086
0.0882527
0.0882637
0.0882745
0.0883094
0.0883683
0.0884474
0.0885492
0.0886791
0.0888425
0.0890446
0.0892924
0.0895944
0.0899614
0.0904069
0.090948
0.091607
0.0924124
0.0934024
0.0946274
0.0961559
0.0980816
0.100535
0.103693
0.107825
0.113186
0.12044
0.128803
0.139132
0.0886369
0.0886885
0.0887608
0.088802
0.0888446
0.0889134
0.0890085
0.0891266
0.0892702
0.0894456
0.0896585
0.0899152
0.0902234
0.0905928
0.0910357
0.0915672
0.0922067
0.0929792
0.0939169
0.0950624
0.0964722
0.0982228
0.100419
0.103205
0.106781
0.111441
0.117501
0.125658
0.135259
0.148079
0.0891204
0.0891978
0.0892965
0.0893673
0.0894417
0.089544
0.0896749
0.0898314
0.0900166
0.090237
0.0904991
0.0908099
0.091178
0.0916142
0.092132
0.0927484
0.0934848
0.0943687
0.0954357
0.0967326
0.0983213
0.100286
0.102739
0.10584
0.109806
0.11495
0.121639
0.130564
0.141247
0.155563
0.0896275
0.0897289
0.0898517
0.0899511
0.0900567
0.0901917
0.0903572
0.090551
0.0907765
0.0910407
0.0913506
0.0917139
0.0921401
0.092641
0.0932314
0.0939297
0.0947593
0.09575
0.0969405
0.0983811
0.100139
0.102303
0.104996
0.108386
0.112705
0.11828
0.125513
0.135064
0.146619
0.161633
0.0901485
0.0902718
0.0904163
0.0905428
0.0906785
0.0908446
0.0910429
0.0912721
0.091536
0.0918417
0.092197
0.09261
0.0930912
0.0936531
0.0943118
0.095087
0.0960038
0.097094
0.0983989
0.0999721
0.101884
0.104231
0.107139
0.110785
0.115412
0.121353
0.129037
0.139066
0.151281
0.166577
0.0906728
0.0908156
0.0909791
0.0911308
0.0912946
0.0914897
0.0917184
0.0919802
0.0922795
0.0926235
0.0930204
0.0934791
0.0940105
0.0946282
0.0953491
0.0961941
0.0971896
0.0983694
0.0997767
0.101468
0.103516
0.106021
0.109115
0.112978
0.117859
0.124094
0.132123
0.142482
0.155157
0.17018
0.0911887
0.0913485
0.0915282
0.0917025
0.0918919
0.092113
0.0923688
0.0926596
0.0929903
0.0933684
0.0938021
0.0943011
0.0948767
0.0955432
0.0963183
0.0972238
0.0982875
0.0995442
0.101039
0.102829
0.104992
0.107627
0.110871
0.114906
0.119983
0.126431
0.134693
0.145226
0.158114
0.172212
0.0916845
0.0918585
0.0920515
0.0922452
0.0924569
0.0927005
0.0929793
0.0932948
0.0936521
0.0940588
0.0945235
0.095056
0.0956683
0.0963752
0.0971949
0.09815
0.099269
0.100588
0.102152
0.104021
0.106272
0.109007
0.112362
0.116519
0.121726
0.128302
0.136677
0.147212
0.159984
0.172811
0.092149
0.0923344
0.0925376
0.0927471
0.0929771
0.093239
0.0935362
0.0938713
0.0942495
0.0946786
0.0951673
0.0957257
0.0963661
0.0971037
0.0979569
0.098949
0.100109
0.101472
0.103087
0.105011
0.107322
0.110122
0.113546
0.117772
0.123041
0.129655
0.138017
0.148367
0.160692
0.172046
0.0925725
0.0927663
0.0929767
0.0931981
0.093442
0.0937174
0.0940279
0.0943767
0.0947697
0.0952143
0.0957193
0.0962951
0.096954
0.0977115
0.0985863
0.0996015
0.100786
0.102177
0.10382
0.105774
0.108116
0.110945
0.114394
0.118634
0.123896
0.130454
0.138676
0.148657
0.160346
0.169798
0.0929478
0.093147
0.0933616
0.0935908
0.0938438
0.0941275
0.0944457
0.0948024
0.0952034
0.095656
0.0961692
0.0967532
0.0974206
0.0981866
0.0990701
0.100094
0.101287
0.102686
0.104335
0.106294
0.108636
0.111459
0.114889
0.119089
0.124275
0.130689
0.138656
0.148094
0.159076
0.165905
0.0932702
0.0934718
0.0936876
0.0939203
0.0941774
0.0944642
0.0947846
0.0951429
0.095545
0.0959982
0.0965112
0.0970943
0.0977599
0.0985231
0.0994024
0.10042
0.101606
0.102993
0.104628
0.106566
0.108879
0.11166
0.11503
0.119139
0.124186
0.130371
0.137984
0.146717
0.15694
0.160682
0.0935392
0.0937406
0.0939546
0.0941868
0.094443
0.0947276
0.0950446
0.0953984
0.0957948
0.0962411
0.0967456
0.0973187
0.0979723
0.0987214
0.099584
0.100582
0.101744
0.103103
0.104702
0.106595
0.108852
0.111558
0.114828
0.118797
0.123646
0.129524
0.136699
0.144582
0.154012
0.154375
0.0937559
0.0939543
0.0941639
0.0943915
0.0946422
0.09492
0.0952284
0.0955721
0.0959566
0.096389
0.0968774
0.0974318
0.0980639
0.0987881
0.099622
0.100587
0.10171
0.103023
0.104567
0.106394
0.108567
0.11117
0.114303
0.118089
0.122687
0.128191
0.134863
0.141762
0.150384
0.146654
0.0939275
0.0941202
0.094322
0.0945409
0.0947816
0.0950477
0.0953424
0.0956702
0.0960366
0.0964485
0.0969137
0.0974417
0.0980437
0.0987336
0.0995281
0.100448
0.101518
0.10277
0.104242
0.105982
0.108051
0.110522
0.113488
0.117054
0.121359
0.126432
0.132553
0.13833
0.146162
0.137552
0.0940609
0.0942452
0.0944355
0.0946419
0.09487
0.0951218
0.0953995
0.0957071
0.0960502
0.0964355
0.0968705
0.0973644
0.0979281
0.0985747
0.0993201
0.100184
0.10119
0.102368
0.103753
0.10539
0.107334
0.109652
0.112426
0.115742
0.11972
0.124316
0.129852
0.134358
0.141459
0.127351
0.0941721
0.0943439
0.094514
0.0947013
0.0949123
0.0951455
0.0954018
0.0956856
0.0960025
0.096358
0.0967587
0.0972135
0.0977327
0.0983288
0.099017
0.0998158
0.100747
0.101839
0.103125
0.104645
0.106449
0.108596
0.111159
0.114201
0.117829
0.121909
0.126845
0.129961
0.136378
0.116247
0.0942799
0.0944346
0.0945736
0.0947417
0.094941
0.0951548
0.0953837
0.0956368
0.0959209
0.0962403
0.096601
0.0970113
0.0974807
0.0980206
0.0986453
0.0993721
0.100222
0.10122
0.102397
0.103789
0.105443
0.107407
0.109744
0.112497
0.115758
0.119292
0.123634
0.125189
0.131032
0.104495
0.0944265
0.0945101
0.0945745
0.0947155
0.0949074
0.0951104
0.09532
0.095548
0.095801
0.0960827
0.0963997
0.0967614
0.0971761
0.0976541
0.0982092
0.0988573
0.0996176
0.100513
0.101573
0.102829
0.104322
0.106094
0.108196
0.110648
0.113538
0.116499
0.120291
0.120105
0.125592
0.0923154
0.0948312
0.0947587
0.0946767
0.0947623
0.0949249
0.0950978
0.0952787
0.0954802
0.0957022
0.0959443
0.0962165
0.0965298
0.0968887
0.097303
0.0977869
0.0983551
0.099025
0.0998177
0.100759
0.101877
0.103208
0.104785
0.106651
0.108799
0.111319
0.113681
0.116986
0.114875
0.120198
0.0799353
0.0947919
0.0944894
0.0944031
0.0945716
0.0947927
0.0949828
0.0951508
0.0953187
0.0955012
0.0957025
0.0959274
0.0961851
0.096482
0.096826
0.0972293
0.0977061
0.0982731
0.0989498
0.0997595
0.100729
0.101887
0.103261
0.104887
0.106725
0.108899
0.110621
0.113604
0.109327
0.114751
0.0675992
0.0568066
0.0454898
0.0327738
0.0197084
0.00705648
-0.00484656
-0.0156968
-0.0250894
-0.0325072
-0.0373604
-0.0391192
-0.0375763
-0.0333016
-0.0277007
-0.0224534
-0.0184061
-0.0158603
-0.0143799
-0.0123117
-0.0108734
-0.0113047
-0.0122555
-0.0124668
-0.01204
-0.0115392
-0.0111683
-0.0107793
-0.0103005
-0.00991172
-0.0101541
0.109149
0.100863
0.0919418
0.0831884
0.0741118
0.0645199
0.0547573
0.0451509
0.0359151
0.0273235
0.01977
0.0139486
0.00998906
0.0073732
0.00505375
0.00200272
-0.00133486
-0.004764
-0.0080703
-0.0106921
-0.0124457
-0.0123566
-0.0100355
-0.00663088
-0.00322404
-0.000478509
0.0020126
0.00477006
0.00732218
0.0082769
0.104876
0.099509
0.0932308
0.0862395
0.0783602
0.0696811
0.060378
0.05082
0.0417094
0.0336543
0.0267811
0.0211079
0.016788
0.0135007
0.0103648
0.00668339
0.00243788
-0.0015957
-0.00467764
-0.00666005
-0.00753576
-0.0069457
-0.00478585
-0.00178579
0.00129608
0.00414894
0.00634156
0.00692746
0.00465491
-0.000259469
0.111006
0.10743
0.102796
0.0974807
0.091382
0.0843803
0.0765527
0.0681334
0.0594424
0.0508393
0.0426467
0.035299
0.0290888
0.0239779
0.0195903
0.0155384
0.0118754
0.00904214
0.00714165
0.00602067
0.00550346
0.00543919
0.0055687
0.00547941
0.00475055
0.00299336
-0.000512229
-0.00620712
-0.0143983
-0.0235998
0.108559
0.106304
0.103491
0.0998566
0.0953459
0.089964
0.0836993
0.0765855
0.0687916
0.0606517
0.0525825
0.0450106
0.0382688
0.0324983
0.0275999
0.0233681
0.0197735
0.0169491
0.0148605
0.0133796
0.0123991
0.011645
0.0107553
0.00941426
0.00724347
0.00386626
-0.000987826
-0.00715517
-0.014377
-0.0213817
0.107427
0.105993
0.104007
0.101238
0.0976457
0.0931923
0.0878335
0.0815711
0.0745129
0.0669072
0.0591178
0.0515547
0.0445963
0.038488
0.0332706
0.0288443
0.0251502
0.0222072
0.0199695
0.0183103
0.0170311
0.0158134
0.01432
0.0122642
0.00944693
0.00581403
0.00159187
-0.00282484
-0.0068883
-0.0102545
0.105578
0.104648
0.103308
0.101326
0.0985885
0.0950341
0.0905891
0.0852099
0.0789403
0.071947
0.0645278
0.057078
0.0500122
0.0436544
0.0381535
0.0335032
0.0296612
0.0266034
0.0242552
0.0224511
0.0209402
0.0194221
0.0176371
0.0154382
0.012855
0.0101164
0.00759256
0.0057838
0.00514105
0.00574613
0.104001
0.103432
0.102539
0.101057
0.0989058
0.096016
0.0922876
0.0876403
0.0820681
0.0756746
0.0686946
0.0614859
0.0544656
0.0480049
0.0423331
0.037522
0.0335595
0.0304034
0.027952
0.0260177
0.0243547
0.022724
0.0209804
0.0191298
0.0173472
0.0159451
0.0153166
0.0157661
0.0174752
0.0200736
0.102563
0.102219
0.101617
0.100505
0.0988076
0.0964429
0.0932919
0.0892496
0.0842754
0.0784256
0.0718821
0.0649605
0.0580664
0.0515977
0.0458418
0.0409325
0.0368902
0.0336699
0.0311581
0.0291717
0.0275002
0.0259802
0.0245561
0.0233273
0.0225309
0.0224535
0.0233432
0.0252266
0.0280274
0.0310169
0.101335
0.101143
0.100741
0.0998975
0.0985372
0.096577
0.0938878
0.0903485
0.085891
0.0805311
0.0744031
0.0677813
0.0610523
0.054629
0.0488418
0.0438761
0.039786
0.0365346
0.0340116
0.0320528
0.0304915
0.0292204
0.0282542
0.0277389
0.0278932
0.0288961
0.0308103
0.0334471
0.0366219
0.0395045
0.100293
0.100199
0.0999291
0.0992753
0.0981743
0.096532
0.0942152
0.0910938
0.0870793
0.0821547
0.076413
0.0700891
0.0635466
0.0572032
0.0514216
0.0464312
0.0423199
0.0390674
0.0365768
0.0347095
0.0333365
0.0323998
0.0319532
0.03214
0.033108
0.0349055
0.0374431
0.0404184
0.0436528
0.0463277
0.0994179
0.0993895
0.0992097
0.0986961
0.0977887
0.0963942
0.0943764
0.0916
0.0879619
0.0834187
0.0780283
0.071989
0.0656398
0.0593966
0.0536462
0.0486558
0.0445467
0.0413209
0.0389012
0.0371743
0.0360452
0.0354876
0.0355649
0.0363823
0.0379963
0.0403389
0.0432184
0.0462996
0.0494459
0.0518727
0.0986859
0.0987016
0.0985828
0.0981717
0.0974128
0.0962133
0.0944372
0.0919467
0.0886285
0.0844183
0.0793438
0.0735706
0.0674123
0.0612795
0.0555768
0.0506044
0.0465164
0.0433402
0.0410212
0.0394693
0.0386155
0.0384485
0.0390175
0.0403706
0.0424729
0.0451673
0.0482038
0.0512643
0.0542483
0.0564354
0.0980744
0.0981209
0.0980445
0.0977101
0.0970666
0.0960219
0.0944417
0.0921883
0.0891419
0.0852214
0.080429
0.0749006
0.0689256
0.0629063
0.0572608
0.0523187
0.0482658
0.045157
0.0429594
0.0416055
0.0410415
0.0412559
0.042267
0.0440584
0.0465146
0.0494184
0.0524948
0.0554706
0.0582666
0.0602726
0.0975631
0.0976323
0.0975865
0.0973109
0.0967588
0.0958384
0.0944182
0.0923625
0.0895472
0.0858783
0.0813362
0.0760304
0.0702273
0.0643195
0.0587357
0.0538315
0.0498238
0.0467953
0.0447342
0.0435918
0.0433195
0.0438931
0.0452895
0.0474281
0.0501291
0.0531408
0.056187
0.0590557
0.0616764
0.0635904
0.0971345
0.0972215
0.0971993
0.0969703
0.0964918
0.0956737
0.0943859
0.092496
0.0898777
0.0864269
0.0821058
0.0770005
0.0713557
0.0655539
0.0600322
0.0551699
0.051214
0.0482749
0.0463599
0.0454347
0.0454475
0.0463508
0.0480748
0.0504803
0.0533403
0.0563893
0.0593693
0.062137
0.0646244
0.0665407
0.0967739
0.0968759
0.0968731
0.096683
0.0962666
0.0955334
0.0943565
0.0926068
0.0901573
0.0868959
0.0827692
0.077843
0.0723417
0.0666378
0.0611753
0.0563557
0.0524552
0.0496106
0.0478474
0.04714
0.0474254
0.0486257
0.0506225
0.0532262
0.0561789
0.0592187
0.0621212
0.0648121
0.0672199
0.0692149
0.0964687
0.0965845
0.0965985
0.0964423
0.09608
0.0954197
0.0943375
0.0927081
0.0904041
0.0873071
0.0833511
0.0785834
0.0732101
0.0675941
0.0621856
0.0574069
0.0535625
0.0508144
0.0492058
0.0487129
0.0492551
0.0507187
0.0529381
0.0556825
0.0586779
0.0616811
0.0645115
0.067156
0.0695306
0.0716467
0.0962084
0.0963373
0.0963669
0.0962417
0.0959282
0.095333
0.0943333
0.0928085
0.0906311
0.0876776
0.083871
0.0792424
0.0739813
0.0684417
0.0630799
0.0583381
0.0545481
0.0518972
0.050443
0.0501586
0.0509397
0.0526334
0.0550307
0.0578689
0.0608711
0.0638246
0.0665982
0.0692225
0.0715814
0.0738599
0.095985
0.0961262
0.0961705
0.0960746
0.095807
0.095272
0.094346
0.0929138
0.0908478
0.0880201
0.0843442
0.0798369
0.074672
0.069196
0.0638721
0.0591617
0.0554215
0.0528659
0.0515652
0.0514822
0.0524833
0.0543755
0.0569109
0.0598061
0.062792
0.0656925
0.0684213
0.071031
0.0734572
0.0758949
0.0957928
0.095945
0.0960025
0.0959349
0.0957109
0.0952343
0.0943767
0.0930284
0.0910616
0.0883451
0.0847835
0.0803806
0.0752961
0.0698701
0.0645736
0.0598876
0.0561907
0.0537269
0.0525779
0.0526883
0.0538905
0.0559527
0.0585925
0.061515
0.064472
0.0673274
0.0700305
0.0726657
0.0751566
0.0776781
0.0956266
0.0957887
0.0958574
0.0958174
0.095636
0.095209
0.0944234
0.0931537
0.0912777
0.0886605
0.0851991
0.0808853
0.0758654
0.0704747
0.0651941
0.0605239
0.0568712
0.0544891
0.0534874
0.0537817
0.055166
0.0573715
0.0600907
0.0630224
0.0659421
0.0687654
0.0714725
0.0741604
0.0766837
0.0791881
0.0954822
0.0956531
0.0957308
0.0957173
0.0955795
0.0952073
0.0944844
0.0932901
0.0914992
0.0889726
0.0855995
0.0813606
0.0763893
0.0710181
0.0657403
0.0610756
0.0574549
0.0551572
0.054299
0.0547683
0.0563165
0.0586383
0.0614115
0.06435
0.0672474
0.0700476
0.072772
0.0755331
0.07804
0.0803696
0.0953571
0.095536
0.0956191
0.0956305
0.0955354
0.0952181
0.0945591
0.0934378
0.0917282
0.0892856
0.0859919
0.0818165
0.0768796
0.0715131
0.0662245
0.0615528
0.057957
0.05574
0.0550185
0.0556512
0.0573489
0.0597721
0.0625762
0.0654982
0.0683913
0.0712158
0.0740179
0.0768148
0.0791781
0.0811281
0.0952469
0.0954353
0.0955204
0.0955552
0.0955003
0.0952365
0.0946462
0.0935983
0.0919661
0.0896001
0.0863751
0.0822499
0.0773299
0.0719501
0.0666404
0.0619457
0.0583479
0.0562135
0.0556379
0.0564299
0.0582605
0.0607772
0.0636349
0.0665528
0.0693902
0.0722381
0.0751829
0.0779561
0.0800692
0.0813725
0.0951454
0.0953463
0.0954327
0.0954904
0.0954731
0.0952556
0.0947362
0.0937733
0.0922259
0.0899406
0.0867837
0.0827042
0.07779
0.0723782
0.0670314
0.0623344
0.0587365
0.0566499
0.0561968
0.0571244
0.059057
0.0616202
0.0645099
0.067526
0.0704374
0.0733649
0.0763478
0.0789045
0.0806244
0.0809514
0.0950472
0.0952586
0.0953516
0.0954367
0.0954574
0.0952868
0.0947986
0.0939233
0.0924484
0.0902345
0.087131
0.08308
0.0781545
0.0726946
0.0672639
0.0624686
0.0589148
0.0569311
0.0566303
0.0577163
0.0597756
0.0624017
0.0652445
0.0681629
0.0710832
0.0743479
0.0773707
0.079631
0.0809359
0.0799501
0.0949629
0.0951592
0.095265
0.0953815
0.0954428
0.0953461
0.0949821
0.0941793
0.092786
0.0906681
0.0876431
0.0836245
0.0786665
0.073161
0.0677314
0.062924
0.0591486
0.0572203
0.057041
0.0582581
0.0604352
0.0632131
0.0662815
0.0693891
0.0724443
0.0755034
0.0783503
0.0800124
0.080357
0.0777029
0.0949238
0.0950564
0.0951741
0.0953092
0.0953803
0.0952969
0.0949508
0.0942103
0.0929295
0.0908844
0.087883
0.0838394
0.0787994
0.0731964
0.0677524
0.06285
0.0591884
0.0573593
0.0572979
0.0585929
0.0607696
0.0634286
0.0663445
0.0694883
0.0729425
0.0763043
0.0790297
0.0804515
0.0803179
0.0758721
0.0949763
0.0950133
0.0951346
0.0952925
0.0954076
0.095408
0.0951864
0.0945877
0.0934267
0.0915047
0.0886487
0.0846601
0.0795661
0.0738151
0.0681217
0.0629572
0.0592276
0.057464
0.0576089
0.0591735
0.0616428
0.0645415
0.0677478
0.0710751
0.0744413
0.0774989
0.0796916
0.0797695
0.0765429
0.0702641
-0.0882689
-0.0887273
-0.00976308
0.0318527
0.0546896
0.0664346
0.0704241
0.0711256
0.0705752
0.069798
0.0692194
0.0689386
0.0689654
0.0692597
0.0697451
0.070351
0.0710241
0.0717248
0.0724288
0.0731172
0.0737934
0.0744411
0.0750955
0.07571
0.076394
0.0770237
0.0778389
0.0785531
0.0798001
0.0789236
-0.0894919
-0.0878334
-0.0155401
0.0328512
0.0576908
0.0692804
0.0731524
0.0734995
0.0724586
0.0711985
0.0701926
0.0695315
0.0692449
0.0693013
0.0696157
0.0701043
0.0707015
0.0713562
0.0720358
0.072714
0.0733881
0.0740377
0.0746878
0.0752939
0.0759258
0.0764877
0.0771393
0.0776067
0.0783229
0.078164
-0.0909869
-0.0908153
-0.0231853
0.0326569
0.0604334
0.0724729
0.0764183
0.0764465
0.0748306
0.0729673
0.071423
0.0702823
0.0695983
0.0693517
0.0694514
0.0697978
0.0703072
0.0709137
0.0715719
0.0722483
0.0729292
0.0735956
0.0742547
0.0748836
0.0755067
0.0760824
0.0766785
0.0771906
0.0778209
0.0783139
-0.0918729
-0.0953986
-0.0303813
0.0326419
0.0642141
0.0770267
0.0806692
0.0799924
0.0775017
0.0748526
0.0726811
0.0710276
0.0699521
0.0694302
0.0693547
0.069602
0.0700638
0.070656
0.0713194
0.072013
0.0727156
0.0734097
0.0740938
0.0747588
0.0754143
0.0760487
0.0766902
0.0773119
0.0779726
0.0785884
-0.0915342
-0.099221
-0.0375027
0.0318861
0.0682262
0.0825206
0.0858296
0.0842268
0.0806166
0.0770108
0.0741049
0.071846
0.0703144
0.0694715
0.0691959
0.0693373
0.0697541
0.0703381
0.0710135
0.0717302
0.0724593
0.0731824
0.0738927
0.0745852
0.0752637
0.075926
0.076582
0.0772261
0.0778673
0.0785063
-0.0896896
-0.101488
-0.0447298
0.029422
0.0713606
0.0883865
0.0918305
0.0893366
0.0843526
0.0794965
0.0757327
0.0727467
0.070647
0.0693827
0.0688449
0.0688546
0.069223
0.0698067
0.0705072
0.0712614
0.0720322
0.0727971
0.0735448
0.0742702
0.0749734
0.0756554
0.0763205
0.0769745
0.0776116
0.0782843
-0.0861086
-0.102831
-0.0513765
0.024789
0.072556
0.0938377
0.0983666
0.0947945
0.088841
0.0823179
0.0774121
0.0736005
0.0708843
0.0690917
0.0682162
0.0680763
0.0684131
0.0690271
0.0697854
0.0706072
0.0714475
0.0722789
0.0730863
0.0738639
0.074611
0.07533
0.0760239
0.0767042
0.0773549
0.0780468
-0.0810479
-0.102305
-0.0578798
0.0176641
0.0706211
0.0973684
0.104677
0.100685
0.093157
0.0854715
0.0790312
0.0741139
0.0708343
0.0684885
0.0671959
0.0668781
0.0672069
0.0679011
0.0687713
0.0697085
0.0706603
0.071594
0.0724914
0.0733467
0.0741595
0.0749334
0.0756706
0.0763857
0.0770571
0.0777665
-0.0750296
-0.0998638
-0.0635253
0.00713826
0.0637531
0.0956843
0.107385
0.105518
0.0973601
0.0886435
0.0802566
0.0741656
0.069978
0.0671898
0.0654934
0.0650184
0.0654014
0.0662563
0.0673155
0.0684343
0.0695579
0.0706472
0.0716783
0.0726471
0.0735547
0.0744064
0.0752054
0.0759694
0.0766744
0.0774135
-0.0685786
-0.0956948
-0.0695817
-0.0062994
0.0500799
0.0861171
0.102556
0.10482
0.0992274
0.0906781
0.0812456
0.0727865