/*--------------------------------*- C++ -*----------------------------------*\
  =========                 |
  \\      /  F ield         | OpenFOAM: The Open Source CFD Toolbox
   \\    /   O peration     | Website:  https://openfoam.org
    \\  /    A nd           | Version:  11
     \\/     M anipulation  |
\*---------------------------------------------------------------------------*/
FoamFile
{
    format      ascii;
    class       volVectorField;
    location    "7.7";
    object      U;
}
// * * * * * * * * * * * * * * * * * * * * * * * * * * * * * * * * * * * * * //

dimensions      [0 1 -1 0 0 0 0];

internalField   nonuniform List<vector> 
12600
(
(0.399658 0.000102577 0)
(0.399411 0.000173047 0)
(0.399044 0.000175399 0)
(0.39864 0.000171921 0)
(0.398268 0.000170037 0)
(0.397934 0.000166073 0)
(0.397635 0.000159179 0)
(0.397372 0.000149717 0)
(0.397156 0.000137589 0)
(0.396998 0.000122514 0)
(0.39691 0.000106154 0)
(0.396907 8.19939e-05 0)
(0.397008 4.97754e-05 0)
(0.397239 8.81814e-06 0)
(0.39763 -4.1054e-05 0)
(0.398219 -9.84318e-05 0)
(0.399051 -0.000169175 0)
(0.400185 -0.00025967 0)
(0.401688 -0.000369812 0)
(0.403634 -0.00050014 0)
(0.406123 -0.00066193 0)
(0.409291 -0.000863385 0)
(0.413293 -0.00111023 0)
(0.418312 -0.00141122 0)
(0.424575 -0.0017785 0)
(0.432329 -0.00222132 0)
(0.4419 -0.0027706 0)
(0.45364 -0.0033439 0)
(0.467904 -0.00440626 0)
(0.487806 -0.00380192 0)
(0.400037 0.00014711 0)
(0.400182 0.00024853 0)
(0.400367 0.000218565 0)
(0.400493 0.000192763 0)
(0.40063 0.0001719 0)
(0.4008 0.000148338 0)
(0.401004 0.000120765 0)
(0.401243 8.86546e-05 0)
(0.401524 4.90506e-05 0)
(0.401858 1.15281e-06 0)
(0.402255 -5.77321e-05 0)
(0.402729 -0.000129285 0)
(0.403294 -0.000215938 0)
(0.403972 -0.000321765 0)
(0.404784 -0.000451738 0)
(0.405762 -0.000612528 0)
(0.406932 -0.000811431 0)
(0.408367 -0.00105643 0)
(0.410047 -0.00135899 0)
(0.412213 -0.00173326 0)
(0.414871 -0.00219185 0)
(0.418113 -0.00275147 0)
(0.42208 -0.00343613 0)
(0.42694 -0.00427354 0)
(0.432891 -0.00529156 0)
(0.440176 -0.00652342 0)
(0.449081 -0.00802235 0)
(0.459975 -0.00974777 0)
(0.473217 -0.0121839 0)
(0.489501 -0.0129326 0)
(0.400024 7.22856e-05 0)
(0.400112 0.000115075 0)
(0.400237 8.64994e-05 0)
(0.400359 5.41624e-05 0)
(0.400491 3.01775e-05 0)
(0.40065 -1.99603e-06 0)
(0.400841 -4.67349e-05 0)
(0.401069 -0.000101251 0)
(0.401338 -0.000164712 0)
(0.401658 -0.000240441 0)
(0.402039 -0.000332257 0)
(0.402494 -0.000444206 0)
(0.40304 -0.00058107 0)
(0.403695 -0.000748724 0)
(0.404485 -0.000954605 0)
(0.405442 -0.00120691 0)
(0.406603 -0.00151812 0)
(0.408021 -0.00189823 0)
(0.409753 -0.00237293 0)
(0.411864 -0.00296975 0)
(0.414436 -0.00369822 0)
(0.417585 -0.00458366 0)
(0.421445 -0.00566801 0)
(0.426175 -0.00699543 0)
(0.431969 -0.00861329 0)
(0.439078 -0.0105794 0)
(0.447752 -0.0129763 0)
(0.45849 -0.0157955 0)
(0.471232 -0.0195175 0)
(0.488239 -0.0221141 0)
(0.400016 3.91598e-05 0)
(0.400079 7.78876e-05 0)
(0.400188 6.54617e-05 0)
(0.400305 3.24653e-05 0)
(0.400431 -4.95101e-06 0)
(0.400582 -5.14019e-05 0)
(0.400766 -0.000110072 0)
(0.400987 -0.000181146 0)
(0.401247 -0.000267345 0)
(0.401556 -0.000371675 0)
(0.401925 -0.000498062 0)
(0.402366 -0.000651803 0)
(0.402893 -0.000839398 0)
(0.403527 -0.00106895 0)
(0.404291 -0.00135066 0)
(0.405216 -0.00169692 0)
(0.406339 -0.00212411 0)
(0.407707 -0.00265085 0)
(0.409378 -0.00330471 0)
(0.411414 -0.0041147 0)
(0.4139 -0.00510612 0)
(0.416942 -0.00631779 0)
(0.420669 -0.00780207 0)
(0.425239 -0.00961903 0)
(0.430837 -0.011839 0)
(0.437714 -0.0145423 0)
(0.446107 -0.0178434 0)
(0.456541 -0.0217557 0)
(0.468889 -0.0268222 0)
(0.485637 -0.0311318 0)
(0.400011 1.88427e-05 0)
(0.400058 3.45415e-05 0)
(0.400147 1.01244e-05 0)
(0.400255 -4.01332e-05 0)
(0.400377 -9.70668e-05 0)
(0.400522 -0.000160416 0)
(0.400699 -0.00023612 0)
(0.400909 -0.000327587 0)
(0.401159 -0.000437785 0)
(0.401456 -0.000570244 0)
(0.401809 -0.000730067 0)
(0.40223 -0.000923975 0)
(0.402735 -0.00116019 0)
(0.403341 -0.00144903 0)
(0.404072 -0.00180347 0)
(0.404955 -0.00223954 0)
(0.406027 -0.0027773 0)
(0.407333 -0.00344064 0)
(0.408924 -0.00426003 0)
(0.410867 -0.00527105 0)
(0.413238 -0.00651193 0)
(0.416139 -0.00803187 0)
(0.419694 -0.0098948 0)
(0.424053 -0.0121769 0)
(0.429394 -0.0149686 0)
(0.435963 -0.0183747 0)
(0.443982 -0.0225382 0)
(0.453996 -0.0275193 0)
(0.465809 -0.0338571 0)
(0.482121 -0.0399421 0)
(0.400008 4.08987e-06 0)
(0.400045 -1.55304e-06 0)
(0.400121 -3.54301e-05 0)
(0.400221 -9.06527e-05 0)
(0.400337 -0.000156477 0)
(0.400475 -0.000231402 0)
(0.400641 -0.000320565 0)
(0.400841 -0.000428384 0)
(0.401078 -0.000558547 0)
(0.401358 -0.000715542 0)
(0.401692 -0.000905418 0)
(0.40209 -0.00113601 0)
(0.402567 -0.00141713 0)
(0.403139 -0.00176117 0)
(0.403828 -0.00218371 0)
(0.404661 -0.00270405 0)
(0.40567 -0.00334589 0)
(0.406899 -0.00413776 0)
(0.408396 -0.00511471 0)
(0.410222 -0.00631869 0)
(0.412453 -0.00779799 0)
(0.415181 -0.00961238 0)
(0.418523 -0.0118374 0)
(0.422622 -0.0145645 0)
(0.427646 -0.0179041 0)
(0.433832 -0.0219857 0)
(0.441386 -0.0269805 0)
(0.450863 -0.0329994 0)
(0.462006 -0.0405734 0)
(0.4777 -0.0484098 0)
(0.400007 -6.83452e-06 0)
(0.400037 -3.10842e-05 0)
(0.400102 -7.61873e-05 0)
(0.400192 -0.00014118 0)
(0.400301 -0.000219626 0)
(0.40043 -0.000309602 0)
(0.400585 -0.000415106 0)
(0.400772 -0.000541243 0)
(0.400993 -0.000692727 0)
(0.401255 -0.000874957 0)
(0.401566 -0.0010949 0)
(0.401937 -0.00136153 0)
(0.402381 -0.00168618 0)
(0.402913 -0.00208317 0)
(0.403553 -0.00257049 0)
(0.404327 -0.00317039 0)
(0.405264 -0.00390997 0)
(0.406402 -0.00482198 0)
(0.407789 -0.00594613 0)
(0.409481 -0.0073303 0)
(0.411546 -0.00903134 0)
(0.414072 -0.0111189 0)
(0.417164 -0.0136798 0)
(0.420957 -0.0168202 0)
(0.425607 -0.0206696 0)
(0.431339 -0.0253818 0)
(0.438339 -0.0311566 0)
(0.447164 -0.0381583 0)
(0.457505 -0.0469069 0)
(0.472385 -0.0564536 0)
(0.400006 -1.61421e-05 0)
(0.400031 -5.55404e-05 0)
(0.400087 -0.000112986 0)
(0.400168 -0.000188365 0)
(0.400268 -0.000277751 0)
(0.400388 -0.000379969 0)
(0.400531 -0.000498789 0)
(0.400703 -0.000639913 0)
(0.400907 -0.000809113 0)
(0.401148 -0.00101276 0)
(0.401434 -0.00125868 0)
(0.401775 -0.00155688 0)
(0.402181 -0.00192003 0)
(0.402668 -0.00236424 0)
(0.403253 -0.00290971 0)
(0.403958 -0.00358138 0)
(0.404813 -0.00440953 0)
(0.40585 -0.00543071 0)
(0.407112 -0.00668909 0)
(0.40865 -0.00823809 0)
(0.410527 -0.0101421 0)
(0.412822 -0.0124798 0)
(0.415631 -0.015349 0)
(0.419075 -0.0188696 0)
(0.423297 -0.0231889 0)
(0.428506 -0.0284841 0)
(0.434867 -0.0349832 0)
(0.442925 -0.0429044 0)
(0.452333 -0.0527586 0)
(0.466184 -0.0639609 0)
(0.400005 -2.33211e-05 0)
(0.400026 -7.69224e-05 0)
(0.400075 -0.000146073 0)
(0.400147 -0.000231282 0)
(0.400238 -0.000330712 0)
(0.400347 -0.000444255 0)
(0.400477 -0.00057577 0)
(0.400633 -0.000731358 0)
(0.400817 -0.000917591 0)
(0.401035 -0.0011416 0)
(0.401294 -0.00141197 0)
(0.4016 -0.00173961 0)
(0.401965 -0.00213845 0)
(0.402402 -0.00262615 0)
(0.402925 -0.00322486 0)
(0.403556 -0.00396186 0)
(0.404319 -0.00487026 0)
(0.405243 -0.00598999 0)
(0.406367 -0.00736931 0)
(0.407736 -0.00906665 0)
(0.409405 -0.0111529 0)
(0.411444 -0.0137151 0)
(0.413938 -0.0168605 0)
(0.416994 -0.0207217 0)
(0.420739 -0.0254622 0)
(0.425361 -0.0312815 0)
(0.431004 -0.0384344 0)
(0.438185 -0.0471926 0)
(0.446531 -0.0580611 0)
(0.459123 -0.0708303 0)
(0.400004 -2.95232e-05 0)
(0.400022 -9.52614e-05 0)
(0.400064 -0.000175121 0)
(0.400128 -0.000269723 0)
(0.400209 -0.000378473 0)
(0.400307 -0.000502229 0)
(0.400423 -0.000645108 0)
(0.400562 -0.000813489 0)
(0.400725 -0.00101453 0)
(0.400918 -0.00125609 0)
(0.401146 -0.00154748 0)
(0.401415 -0.00190046 0)
(0.401736 -0.00233004 0)
(0.402118 -0.00285523 0)
(0.402575 -0.00349991 0)
(0.403124 -0.00429343 0)
(0.403787 -0.00527141 0)
(0.40459 -0.00647677 0)
(0.405564 -0.00796133 0)
(0.406749 -0.00978792 0)
(0.408192 -0.0120331 0)
(0.409953 -0.0147907 0)
(0.412103 -0.0181769 0)
(0.414737 -0.022335 0)
(0.41796 -0.0274434 0)
(0.421938 -0.0337213 0)
(0.42679 -0.0414489 0)
(0.432989 -0.0509481 0)
(0.44015 -0.0627213 0)
(0.451248 -0.0769328 0)
(0.400004 -3.47753e-05 0)
(0.400019 -0.000110972 0)
(0.400055 -0.000200476 0)
(0.400111 -0.000303711 0)
(0.400181 -0.000420825 0)
(0.400267 -0.000553487 0)
(0.400369 -0.000706172 0)
(0.400489 -0.000885545 0)
(0.40063 -0.00109929 0)
(0.400797 -0.00135589 0)
(0.400992 -0.00166532 0)
(0.401222 -0.00204004 0)
(0.401494 -0.00249595 0)
(0.401818 -0.00305325 0)
(0.402204 -0.00373723 0)
(0.402666 -0.00457898 0)
(0.403223 -0.00561621 0)
(0.403896 -0.00689431 0)
(0.40471 -0.00846809 0)
(0.405699 -0.010404 0)
(0.4069 -0.0127833 0)
(0.408364 -0.0157057 0)
(0.410148 -0.0192944 0)
(0.412328 -0.023702 0)
(0.414993 -0.0291192 0)
(0.418276 -0.0357822 0)
(0.422272 -0.0439937 0)
(0.427394 -0.0541208 0)
(0.43326 -0.0666653 0)
(0.442628 -0.0821501 0)
(0.400003 -3.92225e-05 0)
(0.400016 -0.000124373 0)
(0.400047 -0.000222301 0)
(0.400094 -0.000333154 0)
(0.400155 -0.000457513 0)
(0.400228 -0.000597685 0)
(0.400314 -0.000758547 0)
(0.400415 -0.00094705 0)
(0.400534 -0.00117127 0)
(0.400671 -0.00144019 0)
(0.400832 -0.0017643 0)
(0.401021 -0.00215667 0)
(0.401243 -0.00263391 0)
(0.401505 -0.00321714 0)
(0.401816 -0.00393281 0)
(0.402188 -0.00481342 0)
(0.402633 -0.00589832 0)
(0.403168 -0.00723491 0)
(0.403815 -0.00888035 0)
(0.404597 -0.0109041 0)
(0.405545 -0.0133908 0)
(0.406695 -0.0164448 0)
(0.408093 -0.020195 0)
(0.409796 -0.0248011 0)
(0.41187 -0.0304634 0)
(0.414418 -0.0374317 0)
(0.417505 -0.046027 0)
(0.421468 -0.0566547 0)
(0.425942 -0.0698155 0)
(0.433362 -0.0863593 0)
(0.400002 -4.29599e-05 0)
(0.400013 -0.000135653 0)
(0.400039 -0.000240725 0)
(0.400078 -0.000358034 0)
(0.400129 -0.000488402 0)
(0.400189 -0.000634624 0)
(0.400259 -0.000801947 0)
(0.400341 -0.000997577 0)
(0.400435 -0.00122989 0)
(0.400544 -0.00150823 0)
(0.400669 -0.00184353 0)
(0.400815 -0.00224929 0)
(0.400984 -0.00274269 0)
(0.401182 -0.00334555 0)
(0.401416 -0.00408518 0)
(0.401692 -0.0049951 0)
(0.402022 -0.0061159 0)
(0.402415 -0.0074964 0)
(0.402887 -0.00919551 0)
(0.403455 -0.0112847 0)
(0.404139 -0.0138513 0)
(0.404965 -0.0170026 0)
(0.405963 -0.0208715 0)
(0.40717 -0.0256226 0)
(0.40863 -0.0314628 0)
(0.410411 -0.0386514 0)
(0.412548 -0.047522 0)
(0.415289 -0.0585094 0)
(0.418294 -0.0721104 0)
(0.423579 -0.089454 0)
(0.400002 -4.60517e-05 0)
(0.400011 -0.000144962 0)
(0.400032 -0.000255883 0)
(0.400063 -0.000378388 0)
(0.400104 -0.000513426 0)
(0.400151 -0.000664157 0)
(0.400205 -0.000836145 0)
(0.400266 -0.0010368 0)
(0.400336 -0.00127472 0)
(0.400415 -0.0015595 0)
(0.400504 -0.00190236 0)
(0.400605 -0.00231714 0)
(0.40072 -0.00282137 0)
(0.400853 -0.00343733 0)
(0.401007 -0.00419288 0)
(0.401186 -0.0051222 0)
(0.401396 -0.00626665 0)
(0.401644 -0.00767594 0)
(0.401938 -0.00941001 0)
(0.402286 -0.0115416 0)
(0.4027 -0.0141594 0)
(0.403193 -0.0173725 0)
(0.403781 -0.0213159 0)
(0.40448 -0.0261566 0)
(0.405311 -0.0321048 0)
(0.406306 -0.0394247 0)
(0.407466 -0.0484562 0)
(0.408942 -0.0596523 0)
(0.410429 -0.0735004 0)
(0.413437 -0.0913453 0)
(0.400002 -4.85492e-05 0)
(0.400009 -0.000152433 0)
(0.400025 -0.000267912 0)
(0.400049 -0.00039429 0)
(0.400079 -0.000532579 0)
(0.400114 -0.000686212 0)
(0.400151 -0.000861012 0)
(0.400193 -0.00106454 0)
(0.400237 -0.0013055 0)
(0.400285 -0.00159366 0)
(0.400337 -0.0019404 0)
(0.400393 -0.00235971 0)
(0.400454 -0.00286932 0)
(0.400521 -0.00349171 0)
(0.400593 -0.00425499 0)
(0.400674 -0.00519363 0)
(0.400764 -0.00634929 0)
(0.400864 -0.00777201 0)
(0.400976 -0.00952208 0)
(0.401102 -0.0116726 0)
(0.401243 -0.0143126 0)
(0.401399 -0.0175516 0)
(0.401572 -0.0215245 0)
(0.401759 -0.0263986 0)
(0.401954 -0.0323838 0)
(0.402154 -0.0397441 0)
(0.402328 -0.0488186 0)
(0.40252 -0.0600661 0)
(0.402467 -0.0739562 0)
(0.403119 -0.0919752 0)
(0.400001 -5.04997e-05 0)
(0.400007 -0.000158195 0)
(0.400019 -0.000276967 0)
(0.400036 -0.00040586 0)
(0.400056 -0.000545918 0)
(0.400078 -0.000700801 0)
(0.400099 -0.000876524 0)
(0.40012 -0.00108073 0)
(0.40014 -0.00132214 0)
(0.400157 -0.00161056 0)
(0.400172 -0.00195743 0)
(0.400183 -0.00237675 0)
(0.400189 -0.00288624 0)
(0.400189 -0.00350835 0)
(0.40018 -0.00427111 0)
(0.400162 -0.00520892 0)
(0.40013 -0.00636325 0)
(0.400082 -0.00778396 0)
(0.400013 -0.00953096 0)
(0.399916 -0.0116768 0)
(0.399784 -0.01431 0)
(0.399604 -0.0175387 0)
(0.399362 -0.0214964 0)
(0.399038 -0.0263476 0)
(0.3986 -0.0322987 0)
(0.39801 -0.0396084 0)
(0.397203 -0.0486075 0)
(0.396121 -0.0597476 0)
(0.394536 -0.0734706 0)
(0.392826 -0.0913214 0)
(0.400001 -5.19534e-05 0)
(0.400005 -0.00016239 0)
(0.400013 -0.00028323 0)
(0.400023 -0.000413259 0)
(0.400034 -0.000553567 0)
(0.400043 -0.000708015 0)
(0.400049 -0.000882754 0)
(0.40005 -0.00108542 0)
(0.400045 -0.00132467 0)
(0.400032 -0.00161024 0)
(0.40001 -0.00195349 0)
(0.399976 -0.00236831 0)
(0.399927 -0.00287219 0)
(0.399861 -0.0034873 0)
(0.399772 -0.00424133 0)
(0.399655 -0.00516818 0)
(0.399503 -0.00630874 0)
(0.399309 -0.00771205 0)
(0.39906 -0.00943705 0)
(0.398742 -0.011555 0)
(0.398339 -0.0141524 0)
(0.397827 -0.0173353 0)
(0.397177 -0.0212334 0)
(0.396349 -0.0260067 0)
(0.39529 -0.0318541 0)
(0.393926 -0.0390245 0)
(0.392161 -0.0478328 0)
(0.389839 -0.0587103 0)
(0.386768 -0.072061 0)
(0.382765 -0.0894041 0)
(0.400001 -5.29687e-05 0)
(0.400003 -0.000165187 0)
(0.400008 -0.000286923 0)
(0.400012 -0.000416701 0)
(0.400014 -0.000555708 0)
(0.400011 -0.000708025 0)
(0.400001 -0.000879878 0)
(0.399982 -0.0010788 0)
(0.399953 -0.00131329 0)
(0.399911 -0.00159291 0)
(0.399852 -0.00192885 0)
(0.399774 -0.00233469 0)
(0.399672 -0.00282754 0)
(0.39954 -0.00342905 0)
(0.399372 -0.00416624 0)
(0.399159 -0.00507218 0)
(0.39889 -0.00618669 0)
(0.398551 -0.00755751 0)
(0.398126 -0.00924191 0)
(0.397593 -0.011309 0)
(0.396925 -0.0138426 0)
(0.396089 -0.0169449 0)
(0.39504 -0.0207407 0)
(0.393723 -0.0253826 0)
(0.392062 -0.0310596 0)
(0.389952 -0.038006 0)
(0.387269 -0.0465142 0)
(0.383769 -0.0569834 0)
(0.379285 -0.0697696 0)
(0.373139 -0.0862868 0)
(0.4 -5.36181e-05 0)
(0.400002 -0.000166791 0)
(0.400003 -0.000288313 0)
(0.400003 -0.000416452 0)
(0.399996 -0.000552593 0)
(0.399981 -0.000701079 0)
(0.399956 -0.000868165 0)
(0.399918 -0.00106117 0)
(0.399866 -0.00128834 0)
(0.399795 -0.00155899 0)
(0.399701 -0.00188398 0)
(0.39958 -0.00227647 0)
(0.399426 -0.00275299 0)
(0.399231 -0.00333445 0)
(0.398986 -0.0040469 0)
(0.398679 -0.00492222 0)
(0.398295 -0.00599876 0)
(0.397817 -0.00732242 0)
(0.397221 -0.0089482 0)
(0.39648 -0.0109423 0)
(0.395556 -0.013385 0)
(0.394407 -0.0163734 0)
(0.392976 -0.0200258 0)
(0.39119 -0.0244859 0)
(0.388955 -0.0299297 0)
(0.386138 -0.0365734 0)
(0.382588 -0.0446815 0)
(0.377993 -0.0546107 0)
(0.372204 -0.0666619 0)
(0.364131 -0.0820747 0)
(0.4 -5.39976e-05 0)
(0.400001 -0.000167483 0)
(0.4 -0.000287731 0)
(0.399995 -0.000412807 0)
(0.39998 -0.000544513 0)
(0.399955 -0.000687509 0)
(0.399915 -0.000847988 0)
(0.399859 -0.00103295 0)
(0.399784 -0.0012503 0)
(0.399686 -0.00150903 0)
(0.399558 -0.00181958 0)
(0.399396 -0.00219452 0)
(0.399192 -0.00264961 0)
(0.398936 -0.0032048 0)
(0.398618 -0.0038849 0)
(0.398221 -0.00472025 0)
(0.397728 -0.00574733 0)
(0.397116 -0.00700972 0)
(0.396357 -0.00855959 0)
(0.395415 -0.0104596 0)
(0.394248 -0.0127854 0)
(0.392801 -0.0156284 0)
(0.391007 -0.0190989 0)
(0.388777 -0.0233303 0)
(0.386002 -0.0284832 0)
(0.382525 -0.034753 0)
(0.378174 -0.0423725 0)
(0.372585 -0.0516486 0)
(0.365621 -0.0628227 0)
(0.355891 -0.0769076 0)
(0.4 -5.42267e-05 0)
(0.4 -0.000167563 0)
(0.399998 -0.000285607 0)
(0.399989 -0.000406191 0)
(0.399968 -0.000531824 0)
(0.399932 -0.000667706 0)
(0.399879 -0.000819819 0)
(0.399806 -0.000994675 0)
(0.39971 -0.00119978 0)
(0.399585 -0.00144377 0)
(0.399426 -0.00173651 0)
(0.399225 -0.00208986 0)
(0.398973 -0.00251867 0)
(0.39866 -0.00304169 0)
(0.398271 -0.00368226 0)
(0.39779 -0.00446884 0)
(0.397193 -0.00543564 0)
(0.396455 -0.00662347 0)
(0.395542 -0.00808111 0)
(0.394412 -0.00986707 0)
(0.393015 -0.0120517 0)
(0.391288 -0.0147198 0)
(0.389153 -0.0179728 0)
(0.386509 -0.0219323 0)
(0.383234 -0.0267425 0)
(0.379152 -0.0325758 0)
(0.374073 -0.0396313 0)
(0.367604 -0.0481624 0)
(0.359613 -0.0583508 0)
(0.348529 -0.0709503 0)
(0.4 -5.44991e-05 0)
(0.400001 -0.000167501 0)
(0.399998 -0.000282406 0)
(0.399987 -0.000396997 0)
(0.39996 -0.000514911 0)
(0.399914 -0.000642113 0)
(0.399849 -0.00078419 0)
(0.39976 -0.000947022 0)
(0.399644 -0.00113766 0)
(0.399495 -0.00136424 0)
(0.399306 -0.00163597 0)
(0.399068 -0.00196387 0)
(0.398772 -0.00236169 0)
(0.398406 -0.00284683 0)
(0.397952 -0.00344089 0)
(0.397391 -0.0041702 0)
(0.396698 -0.00506635 0)
(0.395842 -0.00616701 0)
(0.394785 -0.00751712 0)
(0.39348 -0.00917047 0)
(0.39187 -0.0111916 0)
(0.389884 -0.0136577 0)
(0.387434 -0.016661 0)
(0.384411 -0.02031 0)
(0.380679 -0.0247321 0)
(0.376051 -0.0300756 0)
(0.370325 -0.0365061 0)
(0.363095 -0.0442226 0)
(0.354233 -0.0533527 0)
(0.342106 -0.0643797 0)
(0.4 -5.50973e-05 0)
(0.400002 -0.000167999 0)
(0.400001 -0.000278682 0)
(0.399988 -0.000385581 0)
(0.399956 -0.00049425 0)
(0.399902 -0.000611258 0)
(0.399825 -0.000741578 0)
(0.399722 -0.000890482 0)
(0.399588 -0.00106459 0)
(0.399416 -0.00127146 0)
(0.3992 -0.00151951 0)
(0.398929 -0.00181877 0)
(0.398592 -0.00218177 0)
(0.398176 -0.00262432 0)
(0.397663 -0.00316602 0)
(0.397029 -0.00383076 0)
(0.396247 -0.00464716 0)
(0.395283 -0.00564934 0)
(0.394095 -0.00687796 0)
(0.39263 -0.00838164 0)
(0.390825 -0.0102185 0)
(0.388602 -0.012458 0)
(0.385867 -0.0151822 0)
(0.382501 -0.0184866 0)
(0.37836 -0.0224809 0)
(0.373249 -0.02729 0)
(0.366958 -0.0330476 0)
(0.359086 -0.0399015 0)
(0.349509 -0.0479346 0)
(0.336634 -0.0573709 0)
(0.400001 -5.64371e-05 0)
(0.400005 -0.000169931 0)
(0.400007 -0.000274999 0)
(0.399995 -0.000372372 0)
(0.399958 -0.000470571 0)
(0.399896 -0.000576185 0)
(0.39981 -0.000693066 0)
(0.399694 -0.000825878 0)
(0.399543 -0.000980906 0)
(0.399351 -0.0011651 0)
(0.39911 -0.00138602 0)
(0.398809 -0.00165261 0)
(0.398436 -0.00197608 0)
(0.397975 -0.00237055 0)
(0.397408 -0.00285348 0)
(0.396708 -0.00344611 0)
(0.395847 -0.00417387 0)
(0.394786 -0.00506699 0)
(0.39348 -0.00616149 0)
(0.391871 -0.00750035 0)
(0.389892 -0.00913496 0)
(0.387458 -0.0111264 0)
(0.384468 -0.0135466 0)
(0.380798 -0.0164779 0)
(0.376297 -0.0200125 0)
(0.370767 -0.0242524 0)
(0.363993 -0.0293031 0)
(0.355591 -0.0352665 0)
(0.345443 -0.0421948 0)
(0.33208 -0.0500837 0)
(0.400002 -5.94961e-05 0)
(0.400011 -0.000174451 0)
(0.400019 -0.000271771 0)
(0.400008 -0.000357186 0)
(0.399968 -0.000443686 0)
(0.3999 -0.000537391 0)
(0.399804 -0.000640605 0)
(0.399678 -0.000757249 0)
(0.399513 -0.000893043 0)
(0.399303 -0.00105411 0)
(0.39904 -0.00124704 0)
(0.398712 -0.00147959 0)
(0.398307 -0.00176146 0)
(0.397807 -0.00210486 0)
(0.397192 -0.00252491 0)
(0.396436 -0.00303993 0)
(0.395504 -0.00367182 0)
(0.394358 -0.00444668 0)
(0.392948 -0.0053956 0)
(0.391213 -0.00655564 0)
(0.389081 -0.00797112 0)
(0.386462 -0.00969458 0)
(0.38325 -0.0117879 0)
(0.379316 -0.0143203 0)
(0.374506 -0.0173665 0)
(0.368619 -0.0210076 0)
(0.361441 -0.025325 0)
(0.352613 -0.0303826 0)
(0.342022 -0.0362205 0)
(0.328383 -0.0426526 0)
(0.400004 -6.53791e-05 0)
(0.400022 -0.00018387 0)
(0.40004 -0.000270745 0)
(0.400031 -0.000340881 0)
(0.399987 -0.000412098 0)
(0.399913 -0.000489526 0)
(0.39981 -0.000574474 0)
(0.399674 -0.000670566 0)
(0.399497 -0.000782922 0)
(0.399272 -0.000916615 0)
(0.39899 -0.00107727 0)
(0.39864 -0.00127145 0)
(0.398207 -0.00150726 0)
(0.397674 -0.00179487 0)
(0.397019 -0.00214688 0)
(0.396213 -0.00257853 0)
(0.395223 -0.00310806 0)
(0.394004 -0.00375714 0)
(0.392506 -0.0045515 0)
(0.390665 -0.00552193 0)
(0.388403 -0.00670535 0)
(0.385627 -0.00814572 0)
(0.382227 -0.00989563 0)
(0.378072 -0.0120113 0)
(0.373005 -0.0145502 0)
(0.366827 -0.0175736 0)
(0.359326 -0.0211447 0)
(0.350173 -0.0252947 0)
(0.339264 -0.0300785 0)
(0.32553 -0.0351799 0)
(0.400008 -7.59113e-05 0)
(0.400041 -0.000198849 0)
(0.400074 -0.000275594 0)
(0.400069 -0.000335445 0)
(0.400023 -0.000396731 0)
(0.399944 -0.00046176 0)
(0.399836 -0.000531577 0)
(0.399692 -0.000609769 0)
(0.399505 -0.000700661 0)
(0.399268 -0.000808077 0)
(0.39897 -0.000936639 0)
(0.398601 -0.00109175 0)
(0.398146 -0.00127997 0)
(0.397586 -0.00150938 0)
(0.396898 -0.00178994 0)
(0.396053 -0.00213362 0)
(0.395014 -0.00255475 0)
(0.393738 -0.00307041 0)
(0.39217 -0.00370099 0)
(0.390244 -0.00447081 0)
(0.387879 -0.00540905 0)
(0.38498 -0.00655058 0)
(0.381433 -0.00794066 0)
(0.37711 -0.0096231 0)
(0.371855 -0.0116372 0)
(0.365472 -0.014027 0)
(0.35776 -0.0168438 0)
(0.348409 -0.0200862 0)
(0.337338 -0.0238552 0)
(0.323636 -0.0277234 0)
(0.400016 -9.92594e-05 0)
(0.400072 -0.000202329 0)
(0.400122 -0.000246765 0)
(0.40012 -0.000286234 0)
(0.400071 -0.00033089 0)
(0.39999 -0.00037744 0)
(0.399878 -0.000426957 0)
(0.399729 -0.000483263 0)
(0.399535 -0.000549594 0)
(0.399288 -0.000628794 0)
(0.39898 -0.00072375 0)
(0.398597 -0.000838288 0)
(0.398125 -0.000977371 0)
(0.397545 -0.00114699 0)
(0.396833 -0.00135429 0)
(0.395959 -0.00160792 0)
(0.394887 -0.00191822 0)
(0.39357 -0.00229746 0)
(0.391953 -0.00276025 0)
(0.38997 -0.00332419 0)
(0.387541 -0.0040108 0)
(0.384567 -0.00484514 0)
(0.380942 -0.00586806 0)
(0.376535 -0.00711408 0)
(0.371188 -0.00860366 0)
(0.364702 -0.0103653 0)
(0.356887 -0.0124401 0)
(0.347403 -0.014796 0)
(0.336287 -0.0175831 0)
(0.322261 -0.0201453 0)
(0.400024 -0.00016393 0)
(0.400179 -0.000323968 0)
(0.400226 -0.000320696 0)
(0.400191 -0.000335596 0)
(0.400122 -0.000361292 0)
(0.400027 -0.000389613 0)
(0.399898 -0.000420112 0)
(0.399729 -0.000454325 0)
(0.399512 -0.000494531 0)
(0.399239 -0.000540144 0)
(0.398902 -0.000598259 0)
(0.398486 -0.000669202 0)
(0.397974 -0.000755875 0)
(0.397348 -0.000862221 0)
(0.396581 -0.000992837 0)
(0.395644 -0.00115306 0)
(0.394498 -0.00134934 0)
(0.393101 -0.00158956 0)
(0.391396 -0.00188334 0)
(0.38932 -0.00224218 0)
(0.386793 -0.00267981 0)
(0.383716 -0.00321273 0)
(0.379997 -0.0038607 0)
(0.375337 -0.00464376 0)
(0.369648 -0.00558038 0)
(0.362743 -0.00669013 0)
(0.354439 -0.00799287 0)
(0.344312 -0.00945775 0)
(0.332724 -0.0112643 0)
(0.316632 -0.0121005 0)
(0.399645 -0.000113051 0)
(0.399344 -0.000189734 0)
(0.398875 -0.000206219 0)
(0.398319 -0.000217546 0)
(0.397735 -0.000230837 0)
(0.397125 -0.000243355 0)
(0.39648 -0.000255505 0)
(0.39579 -0.000268877 0)
(0.39505 -0.000284489 0)
(0.394251 -0.000303205 0)
(0.393381 -0.000325297 0)
(0.392426 -0.000351439 0)
(0.391366 -0.000382809 0)
(0.390177 -0.000420846 0)
(0.388831 -0.000467287 0)
(0.387292 -0.000524346 0)
(0.385514 -0.000594694 0)
(0.383443 -0.000681388 0)
(0.381014 -0.000788036 0)
(0.378144 -0.000919115 0)
(0.374736 -0.00107998 0)
(0.370671 -0.00127792 0)
(0.365815 -0.0015134 0)
(0.360018 -0.0017909 0)
(0.353092 -0.00212365 0)
(0.344806 -0.00251928 0)
(0.334914 -0.00298693 0)
(0.323142 -0.00348377 0)
(0.309455 -0.00427098 0)
(0.288766 -0.00367707 0)
(0.495005 -0.00874658 1.03458e-20)
(0.502264 -0.0135367 -1.31647e-17)
(0.508907 -0.0189989 1.32136e-17)
(0.514389 -0.0249913 6.63484e-18)
(0.519232 -0.0314249 5.00603e-18)
(0.523755 -0.0382782 1.00864e-17)
(0.528057 -0.0455925 5.06226e-18)
(0.532206 -0.0534354 1.3618e-17)
(0.536281 -0.0618634 6.86599e-18)
(0.540336 -0.0709148 3.44343e-18)
(0.544388 -0.080623 -3.48117e-18)
(0.548433 -0.0910281 6.98428e-18)
(0.552463 -0.102183 3.54627e-18)
(0.556475 -0.114154 3.55828e-18)
(0.560479 -0.127028 7.16309e-18)
(0.564492 -0.140908 3.62904e-18)
(0.568536 -0.155924 1.08843e-17)
(0.572637 -0.172231 0)
(0.576823 -0.190021 0)
(0.581127 -0.209532 3.64676e-18)
(0.585585 -0.231058 -3.17088e-20)
(0.590239 -0.254969 3.69891e-18)
(0.595139 -0.281722 0)
(0.600299 -0.311948 7.24101e-18)
(0.605938 -0.346235 3.5596e-18)
(0.611346 -0.386274 -3.60237e-18)
(0.619597 -0.43034 3.46533e-18)
(0.619584 -0.493001 3.40689e-18)
(0.64494 -0.530127 9.51983e-18)
(0.604165 -0.678917 -2.96161e-18)
(0.501486 -0.0190348 -6.6257e-18)
(0.506289 -0.0238789 7.49047e-18)
(0.510355 -0.0296858 -7.54036e-18)
(0.513803 -0.0359657 0)
(0.517095 -0.0426086 -6.81735e-18)
(0.520443 -0.0496644 -6.85322e-18)
(0.523847 -0.0572115 -1.72613e-18)
(0.527285 -0.0652983 -1.21931e-17)
(0.530745 -0.0739463 -7.01176e-18)
(0.534207 -0.0831753 -7.0936e-18)
(0.537637 -0.0930199 3.56167e-18)
(0.541006 -0.10353 -3.60429e-18)
(0.544302 -0.11477 -7.23472e-18)
(0.547528 -0.126816 -7.29195e-18)
(0.550689 -0.139758 -7.34894e-18)
(0.553794 -0.153702 -7.40497e-18)
(0.556849 -0.168778 -1.49715e-17)
(0.559858 -0.185141 3.7562e-18)
(0.562825 -0.202981 -3.80836e-18)
(0.565752 -0.222531 -1.14675e-17)
(0.568635 -0.244078 3.97956e-20)
(0.57147 -0.267977 -5.00342e-20)
(0.574235 -0.294668 -5.66805e-20)
(0.576892 -0.324732 -1.16249e-17)
(0.579454 -0.358762 -7.71951e-18)
(0.581405 -0.398181 -3.72629e-18)
(0.584574 -0.442003 1.4167e-19)
(0.580509 -0.500928 -1.19074e-19)
(0.597464 -0.542103 -1.04898e-17)
(0.550951 -0.678887 0)
(0.498794 -0.0286996 0)
(0.502232 -0.0335327 0)
(0.505343 -0.0393643 0)
(0.508384 -0.0457184 -8.62057e-19)
(0.51149 -0.0524661 7.82714e-18)
(0.51465 -0.0596332 -1.75281e-18)
(0.517792 -0.0672635 1.77255e-18)
(0.520866 -0.0753831 7.13104e-18)
(0.523853 -0.0840184 -1.79844e-18)
(0.526743 -0.0932112 9.07622e-18)
(0.529526 -0.103016 3.66166e-18)
(0.532199 -0.113493 -3.70829e-18)
(0.534765 -0.124709 3.72917e-18)
(0.537224 -0.136736 -3.77904e-18)
(0.539571 -0.149663 -7.63927e-18)
(0.541797 -0.163594 7.71251e-18)
(0.54389 -0.178655 7.72817e-18)
(0.545833 -0.195 0)
(0.547606 -0.212814 0)
(0.549181 -0.232322 7.91542e-18)
(0.550518 -0.253801 0)
(0.551566 -0.277586 1.2113e-17)
(0.552241 -0.304098 4.07024e-18)
(0.552443 -0.333866 8.05108e-18)
(0.552036 -0.367487 1.20517e-17)
(0.550568 -0.406122 4.08651e-18)
(0.549033 -0.449367 0)
(0.541015 -0.504934 1.57213e-17)
(0.548784 -0.549396 0)
(0.49883 -0.673462 7.31193e-18)
(0.495803 -0.0386663 0)
(0.498676 -0.0437058 0)
(0.501283 -0.049639 0)
(0.503957 -0.0560386 -7.06612e-18)
(0.506658 -0.0628059 0)
(0.509284 -0.0699749 0)
(0.511799 -0.0775962 0)
(0.514205 -0.085706 7.34102e-18)
(0.516508 -0.0943396 0)
(0.518708 -0.103539 0)
(0.520794 -0.113353 0)
(0.522756 -0.123834 -7.6514e-18)
(0.524579 -0.135041 -7.73427e-18)
(0.526248 -0.147046 -3.88941e-18)
(0.527742 -0.159938 -3.8094e-20)
(0.529037 -0.17382 -7.91764e-18)
(0.530107 -0.188818 1.91839e-20)
(0.530919 -0.205078 1.22494e-17)
(0.53143 -0.222779 4.09701e-18)
(0.531585 -0.242134 -4.16522e-18)
(0.531309 -0.263403 -4.17418e-18)
(0.530511 -0.286899 -4.15894e-18)
(0.529048 -0.313011 -4.238e-18)
(0.526768 -0.342214 1.2975e-17)
(0.523405 -0.37508 0)
(0.518575 -0.412527 -1.30208e-17)
(0.512557 -0.454558 -4.36805e-18)
(0.500696 -0.506744 2.78892e-19)
(0.499705 -0.552178 -1.2767e-17)
(0.447509 -0.663472 6.25477e-19)
(0.491745 -0.0482459 0)
(0.494035 -0.05335 7.08518e-18)
(0.496037 -0.0592715 -8.92532e-19)
(0.498184 -0.0656556 1.53425e-17)
(0.500362 -0.0724309 0)
(0.502428 -0.0796245 0)
(0.504362 -0.0872733 7.4611e-18)
(0.506186 -0.0954042 -7.51009e-18)
(0.507898 -0.104046 0)
(0.50948 -0.113236 0)
(0.510909 -0.123021 0)
(0.512168 -0.133455 7.85201e-18)
(0.513234 -0.144601 7.94389e-18)
(0.514086 -0.156532 -4.02557e-18)
(0.514697 -0.169334 1.22232e-17)
(0.515034 -0.183109 0)
(0.515056 -0.197974 8.40549e-18)
(0.514712 -0.214069 -1.27242e-17)
(0.51394 -0.231561 -4.30064e-18)
(0.512658 -0.250648 0)
(0.510761 -0.271569 0)
(0.508117 -0.29461 0)
(0.50454 -0.320123 0)
(0.499827 -0.348526 -4.50497e-18)
(0.493611 -0.380347 -4.62539e-18)
(0.485554 -0.416297 4.57818e-18)
(0.475355 -0.456665 4.71106e-18)
(0.45986 -0.505315 -9.20976e-18)
(0.450673 -0.550388 9.21771e-18)
(0.397198 -0.649288 -8.85719e-18)
(0.486707 -0.05744 -7.16646e-18)
(0.488456 -0.0626213 -6.7707e-18)
(0.489897 -0.0685758 -1.37091e-18)
(0.491544 -0.0749849 -5.53306e-18)
(0.493229 -0.0817819 -1.69133e-21)
(0.494765 -0.0889842 -2.83443e-18)
(0.496134 -0.096622 3.85014e-20)
(0.497366 -0.104723 -7.75651e-18)
(0.498456 -0.113318 -5.89552e-18)
(0.499378 -0.122448 7.9553e-18)
(0.500109 -0.132162 0)
(0.500626 -0.142512 1.01967e-17)
(0.500906 -0.153558 -1.03389e-17)
(0.500918 -0.165371 -8.38937e-18)
(0.500625 -0.17803 1.27381e-17)
(0.499982 -0.191631 -1.2933e-17)
(0.498934 -0.206284 -4.32798e-18)
(0.497415 -0.222119 -4.51585e-18)
(0.495341 -0.239289 -4.47698e-18)
(0.49261 -0.257975 1.37277e-17)
(0.489088 -0.278393 0)
(0.484613 -0.300796 4.67757e-18)
(0.478959 -0.325495 -9.52824e-18)
(0.471881 -0.35285 9.80551e-18)
(0.462934 -0.383325 4.9354e-18)
(0.451816 -0.417462 1.00778e-17)
(0.437759 -0.455711 0)
(0.41889 -0.500591 1.03847e-17)
(0.402265 -0.544099 0)
(0.348552 -0.631017 -1.05152e-17)
(0.480687 -0.0661685 7.30573e-18)
(0.481905 -0.0714078 3.70881e-18)
(0.48279 -0.0773707 -3.75488e-18)
(0.483925 -0.0837681 2.85306e-18)
(0.485098 -0.090542 1.47346e-21)
(0.486085 -0.0977093 1.45926e-21)
(0.486872 -0.1053 -6.86594e-18)
(0.487496 -0.113341 1.96297e-18)
(0.487953 -0.121864 1.20954e-17)
(0.488213 -0.130909 -1.02139e-17)
(0.488244 -0.140518 2.07396e-18)
(0.488019 -0.150744 -1.05025e-17)
(0.487509 -0.161641 8.51658e-18)
(0.486674 -0.173275 8.64292e-18)
(0.485467 -0.185723 -4.35049e-18)
(0.483834 -0.199072 8.91068e-18)
(0.481709 -0.213423 0)
(0.47901 -0.228894 4.58454e-18)
(0.475638 -0.245624 4.70938e-18)
(0.47147 -0.263772 -9.51312e-18)
(0.466352 -0.283528 0)
(0.460092 -0.305112 -4.94675e-18)
(0.452435 -0.328788 3.0236e-20)
(0.443103 -0.354856 -1.01817e-17)
(0.431596 -0.383711 1.05085e-17)
(0.417632 -0.415749 -1.60034e-17)
(0.400099 -0.45148 0)
(0.378185 -0.492386 -1.08945e-17)
(0.355014 -0.533382 1.46272e-19)
(0.301937 -0.608846 1.13953e-17)
(0.473682 -0.0743165 3.75317e-18)
(0.474377 -0.0795926 -3.31217e-18)
(0.474715 -0.0855403 3.35534e-18)
(0.475337 -0.0919015 -7.78851e-18)
(0.475994 -0.098627 -3.95478e-18)
(0.476434 -0.105733 -9.98816e-19)
(0.476641 -0.113248 4.06606e-18)
(0.47666 -0.121196 9.25079e-18)
(0.476486 -0.129608 4.18397e-18)
(0.47608 -0.138521 -2.11492e-18)
(0.475406 -0.147975 2.15025e-18)
(0.474434 -0.158019 -2.20087e-18)