/*--------------------------------*- C++ -*----------------------------------*\
  =========                 |
  \\      /  F ield         | OpenFOAM: The Open Source CFD Toolbox
   \\    /   O peration     | Website:  https://openfoam.org
    \\  /    A nd           | Version:  11
     \\/     M anipulation  |
\*---------------------------------------------------------------------------*/
FoamFile
{
    format      ascii;
    class       volVectorField;
    location    "7.7";
    object      U;
}
// * * * * * * * * * * * * * * * * * * * * * * * * * * * * * * * * * * * * * //

dimensions      [0 1 -1 0 0 0 0];

internalField   nonuniform List<vector> 
12600
(
(0.41228 6.55317e-05 0)
(0.41216 0.000125217 0)
(0.411953 0.000141967 0)
(0.411708 0.000141773 0)
(0.411477 0.00013652 0)
(0.411278 0.000127445 0)
(0.411114 0.000115665 0)
(0.410991 0.000101461 0)
(0.410918 8.16246e-05 0)
(0.410908 4.91736e-05 0)
(0.410973 9.25176e-06 0)
(0.411123 -2.55541e-05 0)
(0.411366 -5.48862e-05 0)
(0.411709 -8.89322e-05 0)
(0.412167 -0.00012973 0)
(0.412757 -0.00018062 0)
(0.413501 -0.000242167 0)
(0.414423 -0.000314144 0)
(0.415547 -0.000398647 0)
(0.416908 -0.00049871 0)
(0.418545 -0.000617496 0)
(0.420507 -0.00075826 0)
(0.422852 -0.000924508 0)
(0.425648 -0.00111935 0)
(0.428974 -0.00134657 0)
(0.43291 -0.00160668 0)
(0.437562 -0.00191648 0)
(0.443008 -0.00220936 0)
(0.449382 -0.00275464 0)
(0.457686 -0.00235719 0)
(0.412479 9.29892e-05 0)
(0.412554 0.000202867 0)
(0.412642 0.000197958 0)
(0.412682 0.000186532 0)
(0.412723 0.000166912 0)
(0.412781 0.000137293 0)
(0.412861 9.74012e-05 0)
(0.412973 4.65079e-05 0)
(0.413126 -1.56553e-05 0)
(0.41333 -8.69341e-05 0)
(0.413593 -0.000168436 0)
(0.41393 -0.000264486 0)
(0.414358 -0.000377449 0)
(0.414896 -0.000506101 0)
(0.415568 -0.000649999 0)
(0.416374 -0.000810687 0)
(0.417313 -0.000991993 0)
(0.41841 -0.00119926 0)
(0.419687 -0.00143844 0)
(0.421169 -0.00171647 0)
(0.422889 -0.0020418 0)
(0.424886 -0.00242444 0)
(0.427211 -0.00287561 0)
(0.429924 -0.00340685 0)
(0.4331 -0.00402961 0)
(0.436824 -0.00475167 0)
(0.441191 -0.00559842 0)
(0.446312 -0.00649083 0)
(0.452287 -0.00777384 0)
(0.459272 -0.00781252 0)
(0.412468 4.90398e-05 0)
(0.412501 0.000100793 0)
(0.41255 0.000108971 0)
(0.412593 0.000100549 0)
(0.412634 7.8385e-05 0)
(0.412687 3.92058e-05 0)
(0.412765 -1.86329e-05 0)
(0.412876 -9.3447e-05 0)
(0.41303 -0.000186838 0)
(0.413238 -0.000301377 0)
(0.413512 -0.000438186 0)
(0.413861 -0.000597565 0)
(0.414297 -0.000780686 0)
(0.414827 -0.000989511 0)
(0.415461 -0.00122301 0)
(0.416216 -0.00148055 0)
(0.417108 -0.00176869 0)
(0.418154 -0.00209712 0)
(0.419374 -0.00247436 0)
(0.420793 -0.00291075 0)
(0.422444 -0.00342006 0)
(0.424366 -0.00401907 0)
(0.426608 -0.00472689 0)
(0.429231 -0.00556393 0)
(0.432304 -0.00655187 0)
(0.435922 -0.00770765 0)
(0.440158 -0.00906555 0)
(0.445215 -0.0105551 0)
(0.450942 -0.0125125 0)
(0.45846 -0.0134228 0)
(0.412464 3.27474e-05 0)
(0.412484 8.48596e-05 0)
(0.412518 0.000106441 0)
(0.412554 0.000100487 0)
(0.412591 7.28192e-05 0)
(0.412639 2.14927e-05 0)
(0.412711 -5.61365e-05 0)
(0.412817 -0.00016091 0)
(0.412965 -0.000292835 0)
(0.413165 -0.000452399 0)
(0.413428 -0.000640025 0)
(0.413762 -0.000856796 0)
(0.414179 -0.0011045 0)
(0.414685 -0.0013848 0)
(0.415293 -0.00169882 0)
(0.416016 -0.0020494 0)
(0.416866 -0.00244361 0)
(0.417862 -0.0028917 0)
(0.419022 -0.00340594 0)
(0.420369 -0.00400169 0)
(0.421935 -0.00469802 0)
(0.423759 -0.00551765 0)
(0.425887 -0.00648678 0)
(0.42838 -0.00763434 0)
(0.431306 -0.00899236 0)
(0.434763 -0.0105878 0)
(0.438821 -0.0124693 0)
(0.443713 -0.0145728 0)
(0.449246 -0.0172539 0)
(0.456758 -0.0190542 0)
(0.412463 2.5565e-05 0)
(0.412473 6.66755e-05 0)
(0.412496 8.22419e-05 0)
(0.412523 6.91612e-05 0)
(0.412557 2.89625e-05 0)
(0.412602 -3.90965e-05 0)
(0.41267 -0.000137587 0)
(0.412769 -0.000269597 0)
(0.412909 -0.000436014 0)
(0.413097 -0.000637341 0)
(0.413345 -0.000874326 0)
(0.41366 -0.00114794 0)
(0.414051 -0.00145944 0)
(0.414528 -0.00181053 0)
(0.415099 -0.00220363 0)
(0.415778 -0.00264314 0)
(0.416575 -0.00313699 0)
(0.417507 -0.00369679 0)
(0.41859 -0.00433764 0)
(0.419847 -0.00507889 0)
(0.421306 -0.00594479 0)
(0.423003 -0.00696464 0)
(0.424983 -0.00817267 0)
(0.427303 -0.00960739 0)
(0.43003 -0.011312 0)
(0.433266 -0.0133268 0)
(0.437078 -0.0157135 0)
(0.441727 -0.0184315 0)
(0.446975 -0.0218231 0)
(0.454372 -0.0245863 0)
(0.412461 2.12988e-05 0)
(0.412468 5.43573e-05 0)
(0.412484 6.62933e-05 0)
(0.412506 5.12528e-05 0)
(0.412535 5.80833e-06 0)
(0.412577 -7.40261e-05 0)
(0.412639 -0.000191235 0)
(0.412731 -0.000348324 0)
(0.412861 -0.0005464 0)
(0.413036 -0.000786009 0)
(0.413265 -0.00106773 0)
(0.413557 -0.00139235 0)
(0.413919 -0.00176112 0)
(0.41436 -0.00217601 0)
(0.414888 -0.00264019 0)
(0.415513 -0.0031592 0)
(0.416246 -0.00374217 0)
(0.4171 -0.00440255 0)
(0.418089 -0.0051584 0)
(0.419235 -0.00603306 0)
(0.420562 -0.00705573 0)
(0.422102 -0.00826182 0)
(0.423898 -0.00969321 0)
(0.426004 -0.011398 0)
(0.428482 -0.0134313 0)
(0.431436 -0.0158484 0)
(0.434927 -0.0187271 0)
(0.439244 -0.0220567 0)
(0.444107 -0.0261654 0)
(0.451273 -0.0299323 0)
(0.412461 1.87883e-05 0)
(0.412465 4.63283e-05 0)
(0.412477 5.42273e-05 0)
(0.412494 3.48791e-05 0)
(0.412519 -1.91256e-05 0)
(0.412555 -0.000112359 0)
(0.412612 -0.000248349 0)
(0.412696 -0.000429817 0)
(0.412814 -0.0006582 0)
(0.412973 -0.000934095 0)
(0.413182 -0.00125796 0)
(0.413447 -0.00163048 0)
(0.413776 -0.00205288 0)
(0.414175 -0.00252729 0)
(0.414652 -0.00305739 0)
(0.415215 -0.00364951 0)
(0.415873 -0.00431376 0)
(0.416637 -0.00506501 0)
(0.417519 -0.00592358 0)
(0.418536 -0.00691616 0)
(0.41971 -0.00807646 0)
(0.421068 -0.0094459 0)
(0.422648 -0.0110741 0)
(0.424499 -0.0130192 0)
(0.426679 -0.015349 0)
(0.429287 -0.0181358 0)
(0.432381 -0.0214755 0)
(0.436268 -0.0253941 0)
(0.440633 -0.0302067 0)
(0.447423 -0.0350117 0)
(0.412461 1.73997e-05 0)
(0.412463 4.05851e-05 0)
(0.412472 4.43743e-05 0)
(0.412486 2.12726e-05 0)
(0.412506 -4.00563e-05 0)
(0.412539 -0.000145186 0)
(0.412589 -0.000297803 0)
(0.412664 -0.000500807 0)
(0.412769 -0.000755772 0)
(0.412911 -0.00106338 0)
(0.413097 -0.00142406 0)
(0.413333 -0.00183839 0)
(0.413624 -0.00230746 0)
(0.413977 -0.0028334 0)
(0.414397 -0.00342011 0)
(0.414891 -0.00407442 0)
(0.415466 -0.00480723 0)
(0.41613 -0.00563475 0)
(0.416892 -0.00657943 0)
(0.417765 -0.00767094 0)
(0.418767 -0.00894709 0)
(0.419919 -0.0104547 0)
(0.421253 -0.0122505 0)
(0.422811 -0.0144023 0)
(0.424644 -0.0169907 0)
(0.426844 -0.020106 0)
(0.429461 -0.0238651 0)
(0.432812 -0.0283364 0)
(0.436552 -0.0338264 0)
(0.44278 -0.039693 0)
(0.41246 1.65052e-05 0)
(0.412462 3.63059e-05 0)
(0.412469 3.65406e-05 0)
(0.412479 1.06871e-05 0)
(0.412496 -5.81342e-05 0)
(0.412525 -0.000174167 0)
(0.412569 -0.000341639 0)
(0.412634 -0.000563816 0)
(0.412725 -0.000842427 0)
(0.412849 -0.0011782 0)
(0.41301 -0.00157143 0)
(0.413213 -0.00202249 0)
(0.413464 -0.00253225 0)
(0.413767 -0.00310276 0)
(0.414126 -0.00373798 0)
(0.414545 -0.00444497 0)
(0.41503 -0.00523517 0)
(0.415584 -0.00612564 0)
(0.416216 -0.00714031 0)
(0.416933 -0.00831107 0)
(0.417747 -0.00967899 0)
(0.418674 -0.0112955 0)
(0.419737 -0.0132237 0)
(0.420969 -0.0155403 0)
(0.422411 -0.0183384 0)
(0.424143 -0.0217266 0)
(0.426202 -0.0258442 0)
(0.428905 -0.0308073 0)
(0.431881 -0.036918 0)
(0.437317 -0.043835 0)
(0.41246 1.61081e-05 0)
(0.412462 3.28357e-05 0)
(0.412467 3.06449e-05 0)
(0.412475 1.97669e-06 0)
(0.412489 -7.36107e-05 0)
(0.412513 -0.000198993 0)
(0.41255 -0.00037924 0)
(0.412605 -0.000617864 0)
(0.412682 -0.000916629 0)
(0.412786 -0.00127619 0)
(0.412921 -0.00169666 0)
(0.413091 -0.00217818 0)
(0.413299 -0.00272138 0)
(0.413549 -0.00332801 0)
(0.413843 -0.00400189 0)
(0.414183 -0.00475002 0)
(0.414572 -0.00558398 0)
(0.415012 -0.0065213 0)
(0.415505 -0.00758685 0)
(0.416056 -0.00881409 0)
(0.416671 -0.0102464 0)
(0.417358 -0.0119388 0)
(0.41813 -0.0139593 0)
(0.41901 -0.0163923 0)
(0.420022 -0.0193419 0)
(0.421233 -0.0229337 0)
(0.422659 -0.0273297 0)
(0.424599 -0.0326962 0)
(0.426666 -0.0393348 0)
(0.431041 -0.0472375 0)
(0.41246 1.57245e-05 0)
(0.412461 3.02286e-05 0)
(0.412465 2.65987e-05 0)
(0.412472 -5.53877e-06 0)
(0.412483 -8.65445e-05 0)
(0.412503 -0.00021971 0)
(0.412533 -0.000410538 0)
(0.412578 -0.000662691 0)
(0.412641 -0.000977917 0)
(0.412725 -0.00135675 0)
(0.412833 -0.00179911 0)
(0.412967 -0.00230483 0)
(0.413131 -0.00287416 0)
(0.413326 -0.00350849 0)
(0.413552 -0.00421124 0)
(0.413811 -0.00498913 0)
(0.414101 -0.00585351 0)
(0.414422 -0.00682189 0)
(0.414773 -0.00791935 0)
(0.415153 -0.00917997 0)
(0.415561 -0.0106483 0)
(0.415998 -0.0123813 0)
(0.416466 -0.0144504 0)
(0.416973 -0.0169452 0)
(0.417529 -0.0199783 0)
(0.418174 -0.02369 0)
(0.418904 -0.0282625 0)
(0.419974 -0.0339106 0)
(0.420991 -0.040938 0)
(0.424008 -0.049684 0)
(0.41246 1.55666e-05 0)
(0.412461 2.78123e-05 0)
(0.412464 2.33355e-05 0)
(0.412469 -1.15466e-05 0)
(0.412479 -9.70476e-05 0)
(0.412495 -0.000236409 0)
(0.412519 -0.000435531 0)
(0.412553 -0.000698185 0)
(0.412601 -0.00102606 0)
(0.412664 -0.00141951 0)
(0.412745 -0.00187819 0)
(0.412844 -0.00240157 0)
(0.412963 -0.00298945 0)
(0.413102 -0.00364271 0)
(0.41326 -0.0043642 0)
(0.413435 -0.00516003 0)
(0.413625 -0.00604093 0)
(0.413826 -0.00702384 0)
(0.414033 -0.00813331 0)
(0.41424 -0.00940306 0)
(0.414439 -0.0108775 0)
(0.414623 -0.0126138 0)
(0.414782 -0.0146845 0)
(0.414909 -0.0171815 0)
(0.414991 -0.0202223 0)
(0.415044 -0.0239569 0)
(0.41503 -0.0285828 0)
(0.415141 -0.034356 0)
(0.414989 -0.0415819 0)
(0.416349 -0.0509323 0)
(0.41246 1.52704e-05 0)
(0.412461 2.5961e-05 0)
(0.412464 2.07304e-05 0)
(0.412468 -1.66242e-05 0)
(0.412476 -0.000105459 0)
(0.412488 -0.000249301 0)
(0.412506 -0.000454361 0)
(0.41253 -0.000724412 0)
(0.412564 -0.00106102 0)
(0.412606 -0.00146432 0)
(0.41266 -0.00193367 0)
(0.412723 -0.00246812 0)
(0.412797 -0.00306694 0)
(0.41288 -0.00373036 0)
(0.412969 -0.0044605 0)
(0.413062 -0.00526259 0)
(0.413152 -0.00614638 0)
(0.413235 -0.00712765 0)
(0.4133 -0.00822968 0)
(0.413336 -0.00948475 0)
(0.413331 -0.0109357 0)
(0.413266 -0.0126378 0)
(0.413119 -0.0146621 0)
(0.412868 -0.0170991 0)
(0.412478 -0.0200665 0)
(0.411928 -0.0237171 0)
(0.411152 -0.0282552 0)
(0.410248 -0.033965 0)
(0.408845 -0.0411477 0)
(0.408289 -0.0507552 0)
(0.41246 1.47707e-05 0)
(0.412461 2.43205e-05 0)
(0.412464 1.8489e-05 0)
(0.412468 -2.09123e-05 0)
(0.412474 -0.000111976 0)
(0.412483 -0.000258629 0)
(0.412495 -0.000467265 0)
(0.41251 -0.000741585 0)
(0.412529 -0.00108299 0)
(0.412552 -0.00149138 0)
(0.412578 -0.00196575 0)
(0.412606 -0.00250471 0)
(0.412636 -0.00310694 0)
(0.412664 -0.00377193 0)
(0.412686 -0.00450089 0)
(0.412698 -0.00529792 0)
(0.412692 -0.00617142 0)
(0.412659 -0.0071355 0)
(0.412587 -0.0082114 0)
(0.412461 -0.00942884 0)
(0.412259 -0.0108275 0)
(0.411956 -0.012459 0)
(0.411518 -0.0143896 0)
(0.410905 -0.0167044 0)
(0.41006 -0.0195154 0)
(0.408926 -0.02297 0)
(0.4074 -0.0272677 0)
(0.405472 -0.0327012 0)
(0.402797 -0.0395567 0)
(0.400156 -0.0489709 0)
(0.41246 1.4135e-05 0)
(0.412462 2.26752e-05 0)
(0.412464 1.63575e-05 0)
(0.412468 -2.47032e-05 0)
(0.412473 -0.000116922 0)
(0.41248 -0.000264709 0)
(0.412486 -0.000474565 0)
(0.412492 -0.000750051 0)
(0.412497 -0.00109236 0)
(0.412501 -0.00150112 0)
(0.412501 -0.00197499 0)
(0.412495 -0.00251206 0)
(0.412482 -0.00311041 0)
(0.412457 -0.0037687 0)
(0.412415 -0.0044871 0)
(0.412349 -0.00526839 0)
(0.412251 -0.00611929 0)
(0.41211 -0.00705176 0)
(0.411909 -0.00808428 0)
(0.41163 -0.00924301 0)
(0.411246 -0.0105631 0)
(0.410723 -0.0120902 0)
(0.410018 -0.0138829 0)
(0.409073 -0.0160169 0)
(0.407811 -0.0185918 0)
(0.406137 -0.0217403 0)
(0.403914 -0.0256436 0)
(0.401015 -0.0305781 0)
(0.397122 -0.0367988 0)
(0.392374 -0.0454945 0)
(0.41246 1.32749e-05 0)
(0.412462 2.09263e-05 0)
(0.412465 1.39954e-05 0)
(0.412469 -2.82063e-05 0)
(0.412474 -0.00012057 0)
(0.412478 -0.000267909 0)
(0.412479 -0.000476688 0)
(0.412477 -0.000750307 0)
(0.412469 -0.00108971 0)
(0.412454 -0.00149426 0)
(0.41243 -0.00196225 0)
(0.412392 -0.00249129 0)
(0.412338 -0.00307881 0)
(0.412262 -0.00372262 0)
(0.412159 -0.00442176 0)
(0.412021 -0.00517753 0)
(0.411837 -0.00599471 0)
(0.411595 -0.00688271 0)
(0.411276 -0.00785664 0)
(0.410859 -0.00893825 0)
(0.410312 -0.0101568 0)
(0.409595 -0.0115501 0)
(0.408656 -0.0131666 0)
(0.407422 -0.015068 0)
(0.405799 -0.0173356 0)
(0.403659 -0.0200781 0)
(0.400833 -0.0234438 0)
(0.397082 -0.0276666 0)
(0.392117 -0.0329501 0)
(0.385432 -0.04038 0)
(0.412461 1.22969e-05 0)
(0.412463 1.8852e-05 0)
(0.412466 1.11974e-05 0)
(0.412471 -3.1775e-05 0)
(0.412476 -0.000123295 0)
(0.412478 -0.000268608 0)
(0.412475 -0.000474101 0)
(0.412465 -0.000742946 0)
(0.412445 -0.00107577 0)
(0.412413 -0.00147171 0)
(0.412365 -0.00192871 0)
(0.412297 -0.00244394 0)
(0.412204 -0.00301415 0)
(0.412082 -0.00363632 0)
(0.411922 -0.00430831 0)
(0.411717 -0.00502987 0)
(0.411455 -0.00580367 0)
(0.411122 -0.00663627 0)
(0.410699 -0.00753899 0)
(0.410161 -0.00852844 0)
(0.409474 -0.00962699 0)
(0.408594 -0.0108632 0)
(0.407461 -0.0122727 0)
(0.405993 -0.0139004 0)
(0.404083 -0.0158037 0)
(0.401577 -0.0180588 0)
(0.398281 -0.0207687 0)
(0.393865 -0.0240998 0)
(0.388065 -0.0281841 0)
(0.37982 -0.0338513 0)
(0.412461 1.10276e-05 0)
(0.412463 1.63809e-05 0)
(0.412468 7.79545e-06 0)
(0.412473 -3.57265e-05 0)
(0.412478 -0.000125398 0)
(0.412479 -0.000267235 0)
(0.412473 -0.000467373 0)
(0.412456 -0.000728631 0)
(0.412426 -0.0010514 0)
(0.412378 -0.00143457 0)
(0.412308 -0.00187581 0)
(0.412212 -0.00237183 0)
(0.412084 -0.00291882 0)
(0.411918 -0.0035129 0)
(0.411707 -0.00415083 0)
(0.411441 -0.00483076 0)
(0.41111 -0.00555318 0)
(0.410698 -0.00632169 0)
(0.410185 -0.00714352 0)
(0.409546 -0.00802975 0)
(0.408745 -0.00899518 0)
(0.407737 -0.0100581 0)
(0.406457 -0.01124 0)
(0.404819 -0.0125662 0)
(0.402708 -0.0140669 0)
(0.399954 -0.0157799 0)
(0.396353 -0.0177532 0)
(0.391514 -0.0200666 0)
(0.385197 -0.0227662 0)
(0.375954 -0.0263015 0)
(0.412461 9.25389e-06 0)
(0.412464 1.3561e-05 0)
(0.412469 3.64102e-06 0)
(0.412477 -4.02942e-05 0)
(0.412482 -0.000127309 0)
(0.412482 -0.000264394 0)
(0.412473 -0.000457157 0)
(0.412451 -0.000708097 0)
(0.412411 -0.00101751 0)
(0.412348 -0.00138407 0)
(0.412259 -0.00180512 0)
(0.412137 -0.00227704 0)
(0.411977 -0.00279549 0)
(0.411772 -0.00335587 0)
(0.411515 -0.00395385 0)
(0.411197 -0.00458609 0)
(0.410805 -0.00525095 0)
(0.410325 -0.00594907 0)
(0.409739 -0.00668354 0)
(0.40902 -0.0074598 0)
(0.408133 -0.00828486 0)
(0.407033 -0.00916632 0)
(0.405656 -0.010111 0)
(0.403917 -0.0111237 0)
(0.401698 -0.0122058 0)
(0.39883 -0.0133538 0)
(0.395106 -0.0145565 0)
(0.39012 -0.0157976 0)
(0.383653 -0.0170311 0)
(0.374102 -0.0182567 0)
(0.412461 7.24334e-06 0)
(0.412465 1.00156e-05 0)
(0.412472 -1.7847e-06 0)
(0.412481 -4.56232e-05 0)
(0.412487 -0.000129461 0)
(0.412488 -0.000260529 0)
(0.412476 -0.000443965 0)
(0.412449 -0.000682119 0)
(0.4124 -0.000975158 0)
(0.412325 -0.00132154 0)
(0.412218 -0.00171839 0)
(0.412074 -0.00216182 0)
(0.411885 -0.00264708 0)
(0.411646 -0.00316896 0)
(0.411348 -0.00372221 0)
(0.410984 -0.00430213 0)
(0.410541 -0.00490511 0)
(0.410007 -0.00552897 0)
(0.409363 -0.00617291 0)
(0.408584 -0.00683686 0)
(0.40764 -0.00752034 0)
(0.406485 -0.00822057 0)
(0.405062 -0.00893011 0)
(0.40329 -0.00963378 0)
(0.401059 -0.0103048 0)
(0.398209 -0.0108993 0)
(0.39455 -0.0113488 0)
(0.389698 -0.0115418 0)
(0.383465 -0.011346 0)
(0.374324 -0.0103101 0)
(0.412461 4.98103e-06 0)
(0.412466 5.40665e-06 0)
(0.412475 -8.66159e-06 0)
(0.412486 -5.20514e-05 0)
(0.412494 -0.000132147 0)
(0.412495 -0.000256017 0)
(0.412482 -0.000428417 0)
(0.41245 -0.000651542 0)
(0.412395 -0.00092543 0)
(0.412309 -0.00124839 0)
(0.412186 -0.00161743 0)
(0.412021 -0.00202848 0)
(0.411808 -0.00247655 0)
(0.411539 -0.00295597 0)
(0.411207 -0.00346077 0)
(0.410804 -0.00398512 0)
(0.41032 -0.00452372 0)
(0.409743 -0.00507188 0)
(0.409056 -0.00562527 0)
(0.408239 -0.0061789 0)
(0.407263 -0.00672546 0)
(0.40609 -0.0072528 0)
(0.404668 -0.00774054 0)
(0.402926 -0.00815561 0)
(0.400772 -0.00844604 0)
(0.398065 -0.00853215 0)
(0.394645 -0.00829545 0)
(0.390188 -0.00754103 0)
(0.38454 -0.00606587 0)
(0.376463 -0.00303358 0)
(0.412461 2.36971e-06 0)
(0.412467 -3.62833e-07 0)
(0.412478 -1.73564e-05 0)
(0.412492 -6.00335e-05 0)
(0.412503 -0.000135732 0)
(0.412504 -0.000251313 0)
(0.41249 -0.000411136 0)
(0.412456 -0.000617195 0)
(0.412394 -0.000869422 0)
(0.412299 -0.00116606 0)
(0.412163 -0.00150411 0)
(0.411981 -0.00187946 0)
(0.411746 -0.00228698 0)
(0.411451 -0.00272075 0)
(0.41109 -0.00317433 0)
(0.410656 -0.00364106 0)
(0.41014 -0.00411429 0)
(0.409531 -0.00458734 0)
(0.408816 -0.00505291 0)
(0.407979 -0.0055019 0)
(0.406995 -0.0059213 0)
(0.405834 -0.00629117 0)
(0.404455 -0.00658049 0)
(0.402801 -0.00674157 0)
(0.400799 -0.00670221 0)
(0.398342 -0.00635432 0)
(0.395307 -0.00554093 0)
(0.391458 -0.00400399 0)
(0.386684 -0.00149278 0)
(0.380163 0.00309721 0)
(0.412462 -8.6852e-07 0)
(0.412468 -7.70411e-06 0)
(0.412483 -2.81562e-05 0)
(0.4125 -6.98342e-05 0)
(0.412513 -0.00014059 0)
(0.412516 -0.000246864 0)
(0.412502 -0.000392682 0)
(0.412465 -0.000579805 0)
(0.412399 -0.000808091 0)
(0.412296 -0.00107585 0)
(0.412149 -0.00138019 0)
(0.411952 -0.00171708 0)
(0.411699 -0.00208147 0)
(0.411383 -0.0024674 0)
(0.410999 -0.0028682 0)
(0.410539 -0.00327673 0)
(0.409999 -0.00368542 0)
(0.409368 -0.00408611 0)
(0.408638 -0.00446931 0)
(0.407796 -0.0048228 0)
(0.406824 -0.00512929 0)
(0.405701 -0.00536313 0)
(0.404398 -0.00548558 0)
(0.402876 -0.00543858 0)
(0.401086 -0.00513602 0)
(0.398959 -0.00445085 0)
(0.396417 -0.0032017 0)
(0.393327 -0.00109349 0)
(0.389622 0.00216134 0)
(0.384961 0.00774968 0)
(0.412462 -4.62519e-06 0)
(0.412471 -1.75133e-05 0)
(0.412488 -4.12002e-05 0)
(0.41251 -8.18467e-05 0)
(0.412526 -0.000147143 0)
(0.412531 -0.000243275 0)
(0.412518 -0.000373816 0)
(0.41248 -0.000540253 0)
(0.41241 -0.00074244 0)
(0.4123 -0.000978837 0)
(0.412144 -0.00124673 0)
(0.411935 -0.00154235 0)
(0.411666 -0.0018609 0)
(0.411333 -0.00219666 0)
(0.41093 -0.00254312 0)
(0.410452 -0.00289302 0)
(0.409893 -0.0032384 0)
(0.40925 -0.00357028 0)
(0.408515 -0.00387783 0)
(0.40768 -0.00414688 0)
(0.406736 -0.00435754 0)
(0.40567 -0.00448074 0)
(0.404466 -0.0044734 0)
(0.403107 -0.00427185 0)
(0.401567 -0.00378315 0)
(0.399819 -0.00287163 0)
(0.397834 -0.00134711 0)
(0.395592 0.00110152 0)
(0.393041 0.00474939 0)
(0.390326 0.0107588 0)
(0.412463 -9.30918e-06 0)
(0.412474 -3.02302e-05 0)
(0.412497 -5.72454e-05 0)
(0.412523 -9.62044e-05 0)
(0.412543 -0.000155461 0)
(0.41255 -0.000240901 0)
(0.412538 -0.000355396 0)
(0.4125 -0.000500161 0)
(0.412427 -0.000675181 0)
(0.412313 -0.000879156 0)
(0.412149 -0.00110963 0)
(0.411931 -0.00136313 0)
(0.41165 -0.00163525 0)
(0.411303 -0.00192069 0)
(0.410885 -0.00221334 0)
(0.410393 -0.00250622 0)
(0.409823 -0.00279145 0)
(0.409173 -0.00305988 0)
(0.40844 -0.00330024 0)
(0.407621 -0.00349767 0)
(0.406714 -0.00363151 0)
(0.405716 -0.0036718 0)
(0.404626 -0.00357452 0)
(0.403443 -0.00327526 0)
(0.40217 -0.00268116 0)
(0.400819 -0.00165848 0)
(0.399411 -2.42228e-05 0)
(0.398012 0.00251788 0)
(0.396609 0.00622441 0)
(0.395776 0.012129 0)
(0.412464 -1.5747e-05 0)
(0.412479 -4.73712e-05 0)
(0.412509 -7.76552e-05 0)
(0.412541 -0.000113597 0)
(0.412565 -0.000164968 0)
(0.412575 -0.000237469 0)
(0.412564 -0.000333365 0)
(0.412526 -0.000453566 0)
(0.412452 -0.00059811 0)
(0.412334 -0.000766009 0)
(0.412165 -0.000955295 0)
(0.411938 -0.0011631 0)
(0.411648 -0.00138569 0)
(0.41129 -0.00161852 0)
(0.410861 -0.0018562 0)
(0.410359 -0.00209247 0)
(0.409781 -0.00232002 0)
(0.409129 -0.00253012 0)
(0.408404 -0.00271183 0)
(0.407606 -0.00285069 0)
(0.406741 -0.00292682 0)
(0.405815 -0.00291193 0)
(0.404839 -0.00276477 0)
(0.403833 -0.00242492 0)
(0.402822 -0.00180589 0)
(0.401854 -0.00078454 0)
(0.400992 0.000806854 0)
(0.400387 0.00321314 0)
(0.400057 0.00669025 0)
(0.400884 0.0120225 0)
(0.412466 -2.53998e-05 0)
(0.412489 -6.94428e-05 0)
(0.41253 -0.000103851 0)
(0.41257 -0.000140159 0)
(0.412598 -0.000187248 0)
(0.412611 -0.000249055 0)
(0.412603 -0.000327883 0)
(0.412566 -0.000425155 0)
(0.412491 -0.000541081 0)
(0.412371 -0.000674725 0)
(0.412198 -0.000824403 0)
(0.411966 -0.000987805 0)
(0.411669 -0.00116192 0)
(0.411303 -0.00134312 0)
(0.410866 -0.00152702 0)
(0.410356 -0.00170846 0)
(0.409775 -0.00188124 0)
(0.409124 -0.00203782 0)
(0.408409 -0.00216862 0)
(0.407635 -0.00226098 0)
(0.406812 -0.00229747 0)
(0.405955 -0.00225332 0)
(0.405087 -0.0020924 0)
(0.404244 -0.00176213 0)
(0.403475 -0.0011883 0)
(0.402856 -0.00026729 0)
(0.402478 0.00113786 0)
(0.402557 0.0032291 0)
(0.403151 0.00622024 0)
(0.40535 0.0106043 0)
(0.41247 -4.41523e-05 0)
(0.412508 -9.34627e-05 0)
(0.412561 -0.000115025 0)
(0.412607 -0.000141421 0)
(0.41264 -0.000179495 0)
(0.412657 -0.000226937 0)
(0.412652 -0.000284376 0)
(0.412616 -0.000353807 0)
(0.412542 -0.000436004 0)
(0.412421 -0.000530489 0)
(0.412246 -0.000636174 0)
(0.412011 -0.000751548 0)
(0.41171 -0.000874684 0)
(0.411342 -0.00100313 0)
(0.410903 -0.00113382 0)
(0.410393 -0.00126289 0)
(0.409815 -0.00138547 0)
(0.409173 -0.0014953 0)
(0.408474 -0.00158411 0)
(0.407728 -0.00164131 0)
(0.406951 -0.00165373 0)
(0.406164 -0.00160382 0)
(0.4054 -0.00146488 0)
(0.404707 -0.00119489 0)
(0.404147 -0.000733405 0)
(0.403817 1.49692e-06 0)
(0.403841 0.00110116 0)
(0.404468 0.00273157 0)
(0.405797 0.00503973 0)
(0.40898 0.00825585 0)
(0.412478 -9.36601e-05 0)
(0.41256 -0.000181336 0)
(0.412664 -0.000204843 0)
(0.412692 -0.000221887 0)
(0.412703 -0.000247319 0)
(0.412698 -0.000279869 0)
(0.41267 -0.000318119 0)
(0.412612 -0.000362801 0)
(0.412517 -0.000414541 0)
(0.412379 -0.000473066 0)
(0.41219 -0.00053741 0)
(0.411945 -0.000607102 0)
(0.411639 -0.000680791 0)
(0.411266 -0.000757251 0)
(0.410823 -0.000834825 0)
(0.41031 -0.000911294 0)
(0.409728 -0.000983744 0)
(0.409082 -0.00104836 0)
(0.408381 -0.00110004 0)
(0.407641 -0.00113199 0)
(0.406882 -0.00113524 0)
(0.406132 -0.00109745 0)
(0.405425 -0.00100037 0)
(0.404811 -0.000816587 0)
(0.404371 -0.000507307 0)
(0.404225 -1.80788e-05 0)
(0.404552 0.000715297 0)
(0.405469 0.00179946 0)
(0.407323 0.00332739 0)
(0.410462 0.00532043 0)
(0.412281 -6.3961e-05 0)
(0.412164 -0.000135871 0)
(0.411958 -0.000152251 0)
(0.411696 -0.000159045 0)
(0.411415 -0.00016859 0)
(0.411114 -0.000182014 0)
(0.410783 -0.000198921 0)
(0.410411 -0.000219019 0)
(0.409992 -0.000241627 0)
(0.40952 -0.000266102 0)
(0.40899 -0.000292113 0)
(0.408397 -0.000319075 0)
(0.407738 -0.000346367 0)
(0.40701 -0.000373326 0)
(0.406213 -0.000399385 0)
(0.405347 -0.00042416 0)
(0.404415 -0.000447353 0)
(0.403423 -0.000468546 0)
(0.402379 -0.000486917 0)
(0.401296 -0.000500578 0)
(0.400196 -0.000505495 0)
(0.399109 -0.000494911 0)
(0.398084 -0.000460045 0)
(0.397189 -0.000390925 0)
(0.396519 -0.000275822 0)
(0.396212 -9.57233e-05 0)
(0.396465 0.000179558 0)
(0.397559 0.000583392 0)
(0.399879 0.00119 0)
(0.404162 0.00172453 0)
(0.460642 -0.00488094 -1.22852e-19)
(0.463906 -0.00732702 -1.23754e-19)
(0.466738 -0.0103452 -1.76214e-18)
(0.468914 -0.0137108 -5.09269e-19)
(0.470737 -0.0173407 5.17107e-19)
(0.472363 -0.0211964 0)
(0.473797 -0.0252773 0)
(0.475077 -0.0296095 5.39916e-19)
(0.476254 -0.034222 -5.49513e-19)
(0.47737 -0.0391402 -1.11465e-18)
(0.47844 -0.0443908 1.13549e-18)
(0.479464 -0.0500069 0)
(0.480435 -0.0560306 -1.17152e-18)
(0.481344 -0.0625161 1.19514e-18)
(0.482187 -0.0695309 0)
(0.482961 -0.0771584 2.46741e-18)
(0.483664 -0.0855006 1.25465e-18)
(0.484291 -0.0946838 1.27016e-18)
(0.484834 -0.104865 1.29707e-18)
(0.485279 -0.116242 1.30899e-18)
(0.485602 -0.12907 -1.33662e-18)
(0.485773 -0.143674 4.08023e-18)
(0.485736 -0.160488 0)
(0.485428 -0.180073 -2.7593e-18)
(0.484661 -0.203229 1.37595e-18)
(0.483335 -0.230951 -2.7977e-18)
(0.480829 -0.264526 -4.10372e-18)
(0.476159 -0.308283 0)
(0.471379 -0.350648 0)
(0.449162 -0.453106 -5.16574e-19)
(0.464198 -0.0111568 -2.00146e-18)
(0.466153 -0.0139396 0)
(0.467711 -0.0172601 0)
(0.468883 -0.0208134 -2.08618e-18)
(0.469924 -0.0245334 2.11854e-18)
(0.470869 -0.028445 2.15205e-18)
(0.471798 -0.0325874 -5.45577e-19)
(0.472677 -0.0369905 5.55463e-19)
(0.473519 -0.041674 1.69746e-18)
(0.474325 -0.0466576 2.87539e-18)
(0.475075 -0.0519693 -1.16728e-18)
(0.475748 -0.057648 2.38696e-18)
(0.47633 -0.063743 1.21259e-18)
(0.47681 -0.070314 1.24276e-18)
(0.477181 -0.0774318 1.2591e-18)
(0.477435 -0.0851812 2.57256e-18)
(0.477557 -0.0936647 0)
(0.477525 -0.103008 -1.329e-18)
(0.47731 -0.113368 -1.36866e-18)
(0.476871 -0.12494 0)
(0.476151 -0.137973 1.40428e-18)
(0.475076 -0.152784 1.45175e-18)
(0.473529 -0.169788 -2.94594e-18)
(0.471368 -0.189511 0)
(0.46829 -0.212693 1.48114e-18)
(0.464083 -0.24019 1.54146e-18)
(0.457754 -0.273388 -3.08416e-18)
(0.448876 -0.314654 1.44813e-18)
(0.437367 -0.35833 -1.51222e-18)
(0.409411 -0.449909 6.45607e-19)
(0.462665 -0.0170332 2.03898e-18)
(0.463821 -0.0197529 0)
(0.46478 -0.0229934 -2.62402e-19)
(0.465666 -0.0265009 4.53635e-18)
(0.466532 -0.0302153 -1.62469e-18)
(0.467381 -0.0341494 -3.30391e-18)
(0.468183 -0.0383249 2.80715e-18)
(0.46891 -0.0427537 -5.69808e-19)
(0.469551 -0.0474521 -1.73685e-18)
(0.470094 -0.0524482 -5.79719e-19)
(0.470528 -0.0577801 6.02594e-19)
(0.470843 -0.0634932 -3.67608e-18)
(0.471033 -0.0696387 2.50366e-18)
(0.471088 -0.0762749 -3.82548e-18)
(0.470995 -0.0834706 0)
(0.470733 -0.0913086 -2.65285e-18)
(0.47027 -0.09989 0)
(0.469569 -0.109339 0)
(0.46858 -0.11981 2.82606e-18)
(0.467237 -0.131493 0)
(0.465453 -0.144627 0)
(0.463111 -0.159515 -3.01202e-18)
(0.46004 -0.176544 3.07418e-18)
(0.45602 -0.196201 0)
(0.45066 -0.219155 0)
(0.443625 -0.246153 -3.2378e-18)
(0.433694 -0.278505 1.50158e-18)
(0.420762 -0.31746 -8.91202e-19)
(0.402449 -0.361475 -8.64287e-19)
(0.36969 -0.442203 0)
(0.460789 -0.0231049 -6.50568e-20)
(0.461636 -0.0259072 -6.60612e-20)
(0.462315 -0.0291934 2.02069e-18)
(0.463009 -0.0327296 -4.37477e-18)
(0.463676 -0.0364616 2.78204e-19)
(0.464258 -0.0403995 5.65661e-19)
(0.464735 -0.0445675 -5.6585e-19)
(0.465104 -0.0489886 0)
(0.465365 -0.0536893 2.99699e-18)
(0.465513 -0.0587028 -5.48986e-18)
(0.465539 -0.0640667 2.49699e-18)
(0.465431 -0.0698221 1.26943e-18)
(0.465175 -0.0760161 -3.90268e-18)
(0.464748 -0.0827046 0)
(0.464122 -0.0899552 0)
(0.463262 -0.0978503 2.78819e-18)
(0.462125 -0.106489 2.85598e-18)
(0.460658 -0.115994 1.4528e-18)
(0.458792 -0.126511 -3.72451e-21)
(0.456438 -0.138221 -1.53135e-18)
(0.453476 -0.151349 0)
(0.44975 -0.166172 0)
(0.445038 -0.183043 -1.7007e-18)
(0.439056 -0.202397 -5.16101e-18)
(0.431336 -0.224815 0)
(0.421439 -0.250923 -1.88434e-18)
(0.40799 -0.28187 3.59332e-18)
(0.391112 -0.318269 -6.77321e-18)
(0.366342 -0.360684 9.93333e-19)
(0.330255 -0.430405 0)
(0.458136 -0.0290198 0)
(0.458656 -0.0318405 2.17167e-18)
(0.458989 -0.0351064 -1.92656e-18)
(0.459379 -0.0386166 1.96042e-18)
(0.459743 -0.0423316 2.85671e-19)
(0.459998 -0.0462649 -2.91179e-19)
(0.460132 -0.0504398 -2.36802e-18)
(0.460157 -0.0548779 0)
(0.460069 -0.0596028 1.56448e-20)
(0.459851 -0.064643 2.51455e-18)
(0.459486 -0.0700326 -3.21245e-18)
(0.458951 -0.0758112 3.30488e-18)
(0.458222 -0.0820261 3.35831e-18)
(0.457271 -0.0887336 -6.89994e-19)
(0.45606 -0.0960011 4.25636e-18)
(0.454548 -0.103908 -2.8664e-18)
(0.452678 -0.11255 -2.97883e-18)
(0.450384 -0.122041 -1.52887e-18)
(0.447578 -0.132517 0)
(0.444146 -0.144145 0)
(0.439941 -0.15713 0)
(0.43477 -0.171719 1.71907e-18)
(0.428371 -0.188223 5.34065e-18)
(0.420402 -0.207013 1.79874e-18)
(0.410341 -0.228578 3.81911e-18)
(0.397659 -0.253418 -2.13862e-18)
(0.380913 -0.282495 4.23195e-18)
(0.360292 -0.31598 -2.26553e-19)
(0.329847 -0.355502 3.56689e-18)
(0.291623 -0.414615 6.10764e-18)
(0.454722 -0.0347519 -2.18891e-18)
(0.454929 -0.0375975 -2.21966e-18)
(0.454931 -0.0408652 -2.27307e-18)
(0.455024 -0.0443767 0)
(0.455094 -0.0480967 0)
(0.455032 -0.0520356 -2.40882e-18)
(0.454828 -0.0562133 0)
(0.454494 -0.0606499 1.88629e-18)
(0.454022 -0.0653689 -4.47623e-18)
(0.45339 -0.0703994 2.62615e-18)
(0.452572 -0.0757761 2.01932e-18)
(0.451546 -0.0815392 -5.48237e-18)
(0.450281 -0.0877349 -2.15091e-22)
(0.448743 -0.0944172 -2.17824e-18)
(0.446887 -0.101649 3.55108e-20)
(0.444661 -0.109505 -3.02308e-18)
(0.441997 -0.118072 -4.45539e-20)
(0.438812 -0.127454 3.25234e-18)
(0.435 -0.137776 -1.69411e-18)
(0.430428 -0.149186 -1.71928e-18)
(0.424923 -0.161864 3.60098e-18)
(0.418262 -0.176022 0)
(0.410148 -0.191922 -3.79481e-18)
(0.400198 -0.209867 0)
(0.387853 -0.230246 -4.2631e-18)
(0.372511 -0.253435 4.32069e-18)
(0.352729 -0.280181 2.02822e-19)
(0.328659 -0.310346 4.80599e-18)
(0.293501 -0.345895 -6.41907e-18)
(0.253869 -0.394968 1.86208e-18)
(0.450489 -0.0402167 2.16782e-18)
(0.450375 -0.0430792 -7.15691e-20)
(0.450031 -0.0463372 2.76497e-18)
(0.449802 -0.0498316 8.96994e-19)
(0.449549 -0.0535313 0)
(0.449138 -0.0574462 2.47243e-18)
(0.448558 -0.0615961 1.90698e-18)
(0.447825 -0.0660015 -3.23089e-18)
(0.446929 -0.070686 1.30947e-18)
(0.445843 -0.075678 -1.33995e-18)
(0.444538 -0.0810101 -2.77293e-18)
(0.442984 -0.0867197 2.84417e-18)
(0.441148 -0.0928495 -7.42924e-19)
(0.438985 -0.099449 2.24681e-18)
(0.436443 -0.106576 -7.45082e-19)
(0.433459 -0.114297 -8.00117e-19)
(0.429954 -0.122692 4.94873e-18)
(0.425832 -0.131852 -5.1152e-18)
(0.420973 -0.141887 3.50859e-18)
(0.415226 -0.152923 9.37533e-19)
(0.408397 -0.16511 -2.82648e-18)
(0.400242 -0.178623 2.01927e-18)
(0.390437 -0.193668 0)
(0.37857 -0.210481 -1.0966e-18)
(0.364064 -0.229344 5.69643e-18)
(0.346266 -0.250516 0)
(0.323795 -0.274512 -9.1011e-18)
(0.296688 -0.300988 1.40751e-18)
(0.257904 -0.331785 0)
(0.217706 -0.371567 -6.51097e-18)
(0.445369 -0.0452794 -1.15819e-18)
(0.444921 -0.0481469 -1.47414e-19)
(0.444217 -0.0513783 -9.07875e-19)
(0.443647 -0.0548351 -1.37924e-18)
(0.44305 -0.0584915 3.14242e-19)
(0.442269 -0.0623576 -3.21113e-19)
(0.44129 -0.0664523 -1.30958e-18)
(0.440133 -0.0707951 -1.3541e-18)
(0.438787 -0.0754078 1.3743e-18)