/*--------------------------------*- C++ -*----------------------------------*\
  =========                 |
  \\      /  F ield         | OpenFOAM: The Open Source CFD Toolbox
   \\    /   O peration     | Website:  https://openfoam.org
    \\  /    A nd           | Version:  11
     \\/     M anipulation  |
\*---------------------------------------------------------------------------*/
FoamFile
{
    format      ascii;
    class       volScalarField;
    location    "1.4";
    object      p;
}
// * * * * * * * * * * * * * * * * * * * * * * * * * * * * * * * * * * * * * //

dimensions      [0 2 -2 0 0 0 0];

internalField   nonuniform List<scalar> 
12600
(
0.77816
0.778024
0.77795
0.777913
0.77787
0.777812
0.777741
0.777657
0.777556
0.777436
0.777291
0.777116
0.776903
0.776644
0.776329
0.775946
0.775476
0.774901
0.774196
0.77333
0.772263
0.770951
0.769343
0.767362
0.764911
0.761874
0.758107
0.753417
0.747595
0.740269
0.77809
0.778017
0.777953
0.777914
0.777871
0.777814
0.777744
0.77766
0.777561
0.777442
0.777299
0.777126
0.776916
0.77666
0.776349
0.77597
0.775507
0.77494
0.774244
0.773391
0.772336
0.771038
0.769451
0.767495
0.765074
0.762073
0.758346
0.753706
0.74792
0.740687
0.778059
0.778021
0.777966
0.77792
0.777876
0.777821
0.777753
0.777672
0.777575
0.777458
0.777318
0.777148
0.776942
0.776692
0.776388
0.776017
0.775564
0.775009
0.774329
0.773494
0.772465
0.771201
0.769651
0.767738
0.765371
0.762436
0.758787
0.754244
0.748542
0.741452
0.77804
0.778015
0.777969
0.777924
0.77788
0.777828
0.777762
0.777684
0.77759
0.777478
0.777341
0.777177
0.776978
0.776736
0.776442
0.776084
0.775646
0.77511
0.774454
0.773648
0.772657
0.771438
0.769941
0.768094
0.765808
0.762971
0.759439
0.755036
0.749483
0.74258
0.778029
0.778012
0.777975
0.777934
0.777891
0.77784
0.777778
0.777703
0.777613
0.777505
0.777375
0.777217
0.777027
0.776796
0.776515
0.776173
0.775755
0.775244
0.774618
0.773849
0.772906
0.771745
0.770318
0.768556
0.766375
0.763667
0.76029
0.756074
0.750733
0.744086
0.778025
0.778012
0.777982
0.777944
0.777902
0.777854
0.777795
0.777724
0.777639
0.777537
0.777414
0.777265
0.777085
0.776868
0.776603
0.77628
0.775887
0.775406
0.774817
0.774095
0.773208
0.772118
0.770777
0.769121
0.76707
0.764521
0.761337
0.757354
0.752283
0.745959
0.778025
0.778015
0.777989
0.777955
0.777916
0.777871
0.777816
0.77775
0.77767
0.777575
0.77746
0.777322
0.777155
0.776952
0.776706
0.776407
0.776042
0.775597
0.775051
0.774383
0.773563
0.772555
0.771314
0.769782
0.767883
0.765522
0.762566
0.758862
0.75412
0.748189
0.778029
0.77802
0.777999
0.777969
0.777933
0.777891
0.77784
0.777779
0.777705
0.777618
0.777512
0.777386
0.777233
0.777048
0.776823
0.776551
0.776218
0.775813
0.775317
0.774709
0.773965
0.773049
0.771922
0.770531
0.768806
0.766659
0.763967
0.760585
0.756232
0.750765
0.778036
0.778029
0.77801
0.777984
0.777951
0.777912
0.777866
0.777811
0.777745
0.777665
0.777571
0.777457
0.77732
0.777154
0.776953
0.77671
0.776413
0.776052
0.775611
0.775071
0.774409
0.773596
0.772596
0.77136
0.769828
0.76792
0.765523
0.762505
0.758598
0.753667
0.778046
0.77804
0.778024
0.778
0.777971
0.777937
0.777895
0.777846
0.777787
0.777717
0.777634
0.777534
0.777414
0.777269
0.777094
0.776883
0.776625
0.776312
0.77593
0.775462
0.77489
0.774189
0.773325
0.772259
0.770938
0.76929
0.767217
0.7646
0.761194
0.756871
0.778058
0.778052
0.778039
0.778018
0.777993
0.777963
0.777927
0.777884
0.777833
0.777773
0.777701
0.777616
0.777515
0.777392
0.777245
0.777067
0.776851
0.776589
0.77627
0.775881
0.775404
0.77482
0.774103
0.773218
0.77212
0.770752
0.769029
0.766847
0.763989
0.760341
0.778072
0.778067
0.778056
0.778038
0.778016
0.77799
0.77796
0.777924
0.777881
0.777831
0.777773
0.777703
0.777621
0.777522
0.777404
0.777261
0.777089
0.776881
0.776628
0.77632
0.775944
0.775484
0.77492
0.774224
0.773363
0.772289
0.770934
0.769215
0.766949
0.764034
0.778087
0.778083
0.778074
0.778059
0.778041
0.778019
0.777994
0.777965
0.777931
0.777892
0.777847
0.777794
0.777731
0.777657
0.777569
0.777463
0.777337
0.777184
0.777
0.776776
0.776504
0.776172
0.775766
0.775266
0.774649
0.773879
0.772908
0.771672
0.77003
0.767897
0.778104
0.778101
0.778093
0.778081
0.778066
0.778049
0.77803
0.778008
0.777983
0.777955
0.777923
0.777886
0.777844
0.777795
0.777738
0.77767
0.77759
0.777495
0.777381
0.777243
0.777077
0.776876
0.776631
0.776332
0.775963
0.775504
0.774924
0.774183
0.773186
0.771867
0.778122
0.778119
0.778113
0.778104
0.778092
0.77808
0.778066
0.778051
0.778036
0.778019
0.778
0.777981
0.777959
0.777936
0.77791
0.777881
0.777848
0.77781
0.777767
0.777716
0.777657
0.777588
0.777506
0.777408
0.777288
0.777141
0.776955
0.776712
0.776366
0.775875
0.77814
0.778138
0.778134
0.778127
0.778119
0.778111
0.778103
0.778095
0.778088
0.778083
0.778078
0.778076
0.778075
0.778077
0.778083
0.778092
0.778106
0.778126
0.778154
0.77819
0.778238
0.7783
0.77838
0.778481
0.778609
0.778771
0.778972
0.77922
0.779517
0.779846
0.77816
0.778158
0.778155
0.77815
0.778146
0.778142
0.77814
0.778139
0.778141
0.778146
0.778156
0.77817
0.77819
0.778218
0.778254
0.778302
0.778363
0.77844
0.778538
0.77866
0.778813
0.779005
0.779243
0.77954
0.779909
0.780371
0.780949
0.781671
0.782585
0.783706
0.77818
0.778179
0.778177
0.778174
0.778172
0.778173
0.778176
0.778182
0.778193
0.778209
0.778232
0.778263
0.778303
0.778356
0.778423
0.778508
0.778614
0.778748
0.778914
0.77912
0.779376
0.779693
0.780085
0.780571
0.781173
0.781922
0.782858
0.784029
0.785522
0.787382
0.7782
0.7782
0.778198
0.778197
0.778198
0.778203
0.778211
0.778224
0.778244
0.77827
0.778306
0.778353
0.778413
0.77849
0.778586
0.778708
0.778859
0.779046
0.779279
0.779566
0.779921
0.780359
0.780898
0.781564
0.782387
0.783407
0.784677
0.786262
0.788283
0.79081
0.778221
0.77822
0.77822
0.77822
0.778224
0.778232
0.778245
0.778265
0.778292
0.778329
0.778377
0.778439
0.778519
0.778618
0.778744
0.778899
0.779093
0.779333
0.779628
0.779993
0.780442
0.780994
0.781673
0.782509
0.783538
0.784809
0.786385
0.788345
0.79083
0.793936
0.778242
0.778241
0.778241
0.778243
0.778248
0.77826
0.778278
0.778304
0.778339
0.778385
0.778445
0.778522
0.778619
0.778741
0.778892
0.779081
0.779315
0.779603
0.779959
0.780396
0.780933
0.781593
0.782402
0.783395
0.784614
0.786113
0.787965
0.790254
0.793137
0.796723
0.778263
0.778262
0.778262
0.778264
0.778271
0.778286
0.778309
0.77834
0.778382
0.778437
0.778508
0.778599
0.778712
0.778855
0.779032
0.779251
0.779522
0.779856
0.780267
0.780771
0.78139
0.782149
0.783078
0.784214
0.785606
0.78731
0.789403
0.791976
0.795186
0.799149
0.778284
0.778283
0.778281
0.778284
0.778293
0.778311
0.778337
0.778373
0.778422
0.778485
0.778566
0.778669
0.778798
0.778959
0.779159
0.779407
0.779712
0.780088
0.780549
0.781115
0.781809
0.782657
0.783694
0.78496
0.786504
0.788389
0.790691
0.793501
0.79697
0.801212
0.778305
0.778303
0.7783
0.778302
0.778312
0.778333
0.778363
0.778404
0.778458
0.778529
0.778619
0.778733
0.778876
0.779054
0.779275
0.779548
0.779884
0.780297
0.780804
0.781425
0.782185
0.783113
0.784245
0.785625
0.787304
0.789343
0.791821
0.794826
0.798493
0.802924
0.778328
0.778324
0.778317
0.778318
0.77833
0.778353
0.778386
0.77843
0.778489
0.778567
0.778665
0.778789
0.778944
0.779137
0.779376
0.779671
0.780034
0.78048
0.781027
0.781696
0.782514
0.783511
0.784727
0.786204
0.787998
0.790169
0.792792
0.795951
0.799763
0.804312
0.778351
0.778344
0.778332
0.778331
0.778345
0.77837
0.778406
0.778453
0.778517
0.7786
0.778705
0.778838
0.779003
0.779209
0.779463
0.779777
0.780163
0.780637
0.781217
0.781927
0.782794
0.78385
0.785135
0.786695
0.788583
0.790862
0.793603
0.796881
0.800797
0.805412
0.778378
0.778364
0.778344
0.778341
0.778357
0.778384
0.778421
0.778471
0.778539
0.778626
0.778737
0.778876
0.77905
0.779267
0.779534
0.779863
0.780268
0.780764
0.781372
0.782115
0.783022
0.784126
0.785467
0.787092
0.789057
0.791421
0.794252
0.79762
0.801613
0.806265
0.778409
0.778383
0.778354
0.778352
0.778369
0.778396
0.778434
0.778487
0.778557
0.778648
0.778763
0.778907
0.779088
0.779312
0.779589
0.77993
0.780349
0.780863
0.781491
0.78226
0.783196
0.784336
0.78572
0.787396
0.789417
0.791847
0.794744
0.798174
0.802227
0.80692
0.778448
0.778388
0.778353
0.778355
0.778375
0.778402
0.778441
0.778495
0.778568
0.778661
0.778779
0.778928
0.779113
0.779342
0.779626
0.779975
0.780404
0.780929
0.781572
0.782358
0.783315
0.784479
0.785892
0.787601
0.789661
0.792136
0.795079
0.798545
0.802635
0.807377
0.778524
0.778398
0.778353
0.778359
0.77838
0.778407
0.778447
0.778501
0.778575
0.778669
0.778789
0.77894
0.779127
0.779359
0.779646
0.78
0.780434
0.780966
0.781617
0.782412
0.783381
0.784559
0.785988
0.787715
0.789797
0.792291
0.795252
0.798741
0.802825
0.807541
0.733908
0.731326
0.729223
0.727427
0.725542
0.723483
0.721318
0.719098
0.716833
0.714513
0.712132
0.709682
0.707147
0.704505
0.701726
0.698772
0.695594
0.692133
0.688311
0.684027
0.679151
0.673509
0.666866
0.658903
0.649187
0.637033
0.621931
0.600102
0.581492
0.52402
0.735158
0.732947
0.731005
0.729253
0.727436
0.725507
0.723538
0.721563
0.719568
0.717536
0.715457
0.713319
0.711109
0.708805
0.706382
0.703806
0.701037
0.698024
0.6947
0.690979
0.686748
0.681858
0.676106
0.669224
0.660829
0.650368
0.637279
0.619119
0.601245
0.55426
0.735705
0.733933
0.732349
0.730779
0.729147
0.727469
0.725779
0.724082
0.722363
0.720609
0.718817
0.716978
0.715081
0.713108
0.711039
0.708847
0.706498
0.703949
0.701142
0.698007
0.694448
0.690339
0.68551
0.679739
0.672692
0.663941
0.652911
0.63798
0.62191
0.584132
0.736891
0.735527
0.73429
0.73292
0.73147
0.730014
0.728567
0.727116
0.72565
0.724164
0.722657
0.721119
0.719541
0.717908
0.716203
0.714405
0.712486
0.71041
0.708132
0.705593
0.702715
0.699395
0.695493
0.690826
0.685114
0.678028
0.668998
0.657002
0.643175
0.613465
0.738535
0.737471
0.736507
0.735333
0.734078
0.732854
0.73166
0.730468
0.729268
0.72806
0.726843
0.725611
0.724356
0.723067
0.721732
0.720335
0.718854
0.717263
0.715524
0.713593
0.711406
0.708883
0.70591
0.702341
0.697945
0.692473
0.685386
0.67611
0.66469
0.642063
0.740604
0.739812
0.739113
0.738154
0.737111
0.736122
0.735178
0.73424
0.733301
0.732368
0.731441
0.730515
0.729586
0.728646
0.727686
0.726696
0.72566
0.724559
0.723365
0.722044
0.72055
0.718819
0.716763
0.714267
0.711146
0.707216
0.701983
0.695201
0.686182
0.669705
0.743089
0.742552
0.742105
0.74136
0.740529
0.73977
0.739071
0.738387
0.737712
0.737055
0.73642
0.735805
0.735204
0.734616
0.734036
0.733456
0.732868
0.732258
0.731609
0.730897
0.730087
0.729135
0.727972
0.726514
0.724613
0.722133
0.718645
0.714115
0.707401
0.69617
0.745986
0.745692
0.745484
0.744952
0.744334
0.743806
0.74335
0.742919
0.742507
0.742127
0.741783
0.741477
0.741205
0.740969
0.740767
0.740596
0.740454
0.740332
0.740221
0.740106
0.739965
0.739766
0.739461
0.738988
0.738234
0.737098
0.735219
0.732686
0.728124
0.721255
0.749282
0.749216
0.749236
0.748915
0.748509
0.748208
0.747992
0.747812
0.74766
0.747553
0.7475
0.7475
0.747555
0.747667
0.747839
0.748072
0.748368
0.748723
0.749136
0.749599
0.7501
0.750619
0.751124
0.751571
0.751875
0.751963
0.751536
0.750739
0.748135
0.744795
0.752954
0.753104
0.753337
0.753222
0.753027
0.752949
0.752969
0.753034
0.753139
0.753302
0.753532
0.753833
0.754208
0.754661
0.755198
0.755824
0.756543
0.757359
0.758273
0.759286
0.760393
0.761583
0.762838
0.764127
0.765388
0.766565
0.767417
0.768097
0.767223
0.766643
0.756969
0.757319
0.757749
0.757834
0.757847
0.757987
0.758236
0.758539
0.758893
0.759317
0.759824
0.760416
0.7611
0.761881
0.762769
0.76377
0.764893
0.766144
0.76753
0.769055
0.770722
0.772528
0.774462
0.776504
0.778609
0.780732
0.782679
0.784581
0.785188
0.786681
0.761279
0.761811
0.762421
0.762698
0.762914
0.763264
0.763731
0.764263
0.764856
0.765531
0.7663
0.767171
0.768148
0.76924
0.770458
0.771812
0.773311
0.774966
0.776785
0.778778
0.780952
0.783307
0.78584
0.788538
0.791367
0.794287
0.797142
0.800021
0.80185
0.804814
0.765819
0.766515
0.767286
0.767745
0.768155
0.768705
0.769378
0.770125
0.770944
0.771854
0.772871
0.774001
0.775251
0.776632
0.778155
0.779832
0.781674
0.783694
0.785902
0.788311
0.790929
0.793762
0.796809
0.80006
0.803487
0.807054
0.810631
0.81426
0.817059
0.820969
0.770513
0.771353
0.772263
0.772892
0.773486
0.774222
0.775085
0.776032
0.777058
0.778186
0.77943
0.780797
0.782296
0.783937
0.785735
0.7877
0.789846
0.792187
0.794734
0.797501
0.800498
0.803731
0.8072
0.810898
0.814798
0.818861
0.822977
0.827142
0.830652
0.835058
0.77527
0.776232
0.77726
0.778043
0.778808
0.779714
0.78075
0.781875
0.78309
0.784413
0.785859
0.787437
0.789155
0.791027
0.793063
0.795278
0.797686
0.800299
0.803131
0.806194
0.809499
0.813052
0.816852
0.820889
0.825137
0.82955
0.834025
0.838512
0.842452
0.846969
0.77999
0.781053
0.782176
0.783097
0.784016
0.785074
0.786261
0.787544
0.788923
0.790415
0.792036
0.793796
0.795702
0.797768
0.800005
0.802428
0.80505
0.807885
0.810945
0.814241
0.817784
0.821577
0.825618
0.829892
0.83437
0.838995
0.843668
0.848282
0.852384
0.856707
0.784569
0.785714
0.786911
0.78795
0.789005
0.790193
0.791509
0.792924
0.794441
0.796076
0.797843
0.799751
0.801811
0.804033
0.806432
0.809019
0.811808
0.814811
0.818041
0.821508
0.825218
0.829175
0.83337
0.837787
0.842388
0.847108
0.851843
0.856446
0.860561
0.864531
0.788909
0.790114
0.791366
0.792504
0.793672
0.794968
0.796388
0.797911
0.799539
0.801286
0.803167
0.805192
0.807369
0.80971
0.812228
0.814934
0.817842
0.820963
0.824307
0.827882
0.831693
0.83574
0.84001
0.844481
0.849109
0.853819
0.858503
0.862983
0.866971
0.870435
0.79292
0.794167
0.795455
0.79667
0.79793
0.799311
0.800811
0.802414
0.804124
0.805955
0.807919
0.810025
0.812284
0.814705
0.817301
0.820084
0.823063
0.82625
0.829653
0.833279
0.837128
0.841196
0.845467
0.84991
0.854477
0.85908
0.863603
0.867839
0.871523
0.874291
0.79653
0.797804
0.799111
0.800384
0.801712
0.803154
0.804709
0.806366
0.808131
0.810015
0.81203
0.814185
0.81649
0.818954
0.821588
0.824404
0.82741
0.830615
0.834027
0.837647
0.841475
0.8455
0.849702
0.854043
0.858464
0.862865
0.867114
0.87097
0.874175
0.876225
0.79969
0.800976
0.80229
0.803599
0.804973
0.806453
0.808039
0.809725
0.811517
0.813426
0.815462
0.817634
0.819951
0.822422
0.825058
0.827866
0.830856
0.834035
0.837406
0.84097
0.844722
0.848645
0.852713
0.85688
0.861075
0.865181
0.869054
0.872418
0.875038
0.876235
0.802377
0.803663
0.804973
0.8063
0.807698
0.809194
0.810789
0.81248
0.814275
0.816182
0.818211
0.82037
0.822667
0.825112
0.827713
0.830477
0.833412
0.836522
0.839809
0.843269
0.846892
0.850658
0.854532
0.858458
0.862355
0.866089
0.869499
0.872258
0.874227
0.874035
0.804594
0.80587
0.807166
0.808495
0.809897
0.811389
0.812973
0.814648
0.816421
0.818302
0.820298
0.822418
0.824668
0.827056
0.82959
0.832277
0.83512
0.838122
0.841283
0.844596
0.848046
0.851604
0.855232
0.858859
0.862393
0.865678
0.868554
0.870594
0.871904
0.869984
0.80637
0.807628
0.808902
0.810219
0.811607
0.813077
0.814631
0.81627
0.818002
0.819835
0.821775
0.823829
0.826005
0.828308
0.830747
0.833323
0.836042
0.838904
0.841902
0.845028
0.84826
0.851567
0.854897
0.858171
0.861283
0.86405
0.86632
0.867541
0.868136
0.864555
0.807752
0.808987
0.810233
0.811523
0.812883
0.814318
0.815829
0.817419
0.819094
0.820862
0.822728
0.824699
0.826781
0.828978
0.831295
0.833736
0.836302
0.838989
0.84179
0.844691
0.847665
0.850673
0.853654
0.856517
0.859143
0.861321
0.862904
0.863175
0.862905
0.857213
0.80881
0.810019
0.811228
0.812478
0.813794
0.815177
0.816629
0.818152
0.819754
0.821439
0.823213
0.825081
0.827047
0.829115
0.831289
0.83357
0.835956
0.838441
0.841015
0.843658
0.846338
0.849008
0.851597
0.853998
0.856078
0.857584
0.858384
0.857536
0.856252
0.84796
0.809616
0.810796
0.811958
0.81316
0.81443
0.815765
0.817157
0.818612
0.820136
0.821735
0.823412
0.82517
0.827011
0.828936
0.830948
0.833047
0.835228
0.837482
0.839794
0.842141
0.844484
0.846766
0.848907
0.85078
0.852238
0.852973
0.852876
0.850727
0.848299
0.837025
0.810317
0.811426
0.812472
0.81358
0.81477
0.816029
0.817348
0.818722
0.820152
0.821646
0.823208
0.82484
0.826541
0.828311
0.830149
0.832053
0.834014
0.83602
0.838055
0.840085
0.842066
0.843931
0.845585
0.846884
0.847658
0.847541
0.846456
0.842837
0.839197
0.824489
0.81119
0.81214
0.812993
0.814049
0.815212
0.816395
0.817637
0.818957
0.82033
0.821747
0.823215
0.82474
0.82631
0.827898
0.829543
0.831242
0.832954
0.834674
0.836384
0.838045
0.839602
0.840976
0.84206
0.842684
0.842661
0.841552
0.83935
0.833969
0.829181
0.810344
0.812063
0.812453
0.812924
0.813871
0.814973
0.816069
0.817189
0.818368
0.819617
0.820927
0.822276
0.823663
0.825083
0.826531
0.827997
0.829475
0.830951
0.832407
0.833811
0.835119
0.836268
0.837165
0.837687
0.837636
0.836802
0.834654
0.831383
0.82375
0.818467
0.794302
0.777253
0.758247
0.736163
0.712108
0.686544
0.659047
0.629538
0.598774
0.568083
0.538502
0.512373
0.489317
0.470573
0.460188
0.457914
0.459098
0.461087
0.462817
0.463386
0.463586
0.464362
0.46537
0.465126
0.463017
0.458922
0.452102
0.441689
0.429006
0.417629
0.411785
0.807667
0.791644
0.772302
0.751332
0.728458
0.703409
0.67554
0.645257
0.613172
0.579914
0.547623
0.516973
0.488296
0.467529
0.459391
0.459524
0.461641
0.463063
0.463552
0.463666
0.464504
0.465462
0.464678
0.461599
0.455831
0.446097
0.432206
0.416918
0.406069
0.402671
0.81294
0.798764
0.78155
0.76177
0.739591
0.714582
0.686704
0.656663
0.624727
0.591838
0.558778
0.527356
0.497485
0.474278
0.463366
0.461083
0.462102
0.463242
0.463597
0.463567
0.464569
0.465745
0.464427
0.459786
0.451049
0.437042
0.420007
0.40531
0.39812
0.400086
0.823805
0.811741
0.796419
0.778992
0.758919
0.735182
0.707894
0.677436
0.644173
0.609144
0.573776
0.539924
0.508423
0.483041
0.469357
0.464424
0.46346
0.463582
0.463501
0.463458
0.464764
0.466308
0.46403
0.456442
0.443272
0.425732
0.409171
0.400453
0.400674
0.408044
0.828395
0.818347
0.80547
0.79029
0.772363
0.750777
0.725212
0.695802
0.662851
0.627147
0.590179
0.553988
0.52021
0.492348
0.475849
0.468632
0.465907
0.464817
0.463704
0.463469
0.465286
0.467301
0.463012
0.450557
0.432597
0.415344
0.406537
0.409301
0.421265
0.434672
0.831951
0.823874
0.812905
0.799496
0.783164
0.763134
0.738909
0.710432
0.677927
0.642029
0.604058
0.566153
0.530434
0.500371
0.481327
0.47244
0.468655
0.466583
0.464786
0.464186
0.466378
0.468158
0.460717
0.441333
0.420495
0.410275
0.415789
0.43381
0.455235
0.466163
0.833864
0.827415
0.81835
0.806794
0.792234
0.773909
0.751174
0.723738
0.691688
0.655583
0.616677
0.577184
0.539618
0.507536
0.486221
0.475648
0.470994
0.468374
0.466234
0.465561
0.467305
0.467481
0.455474
0.429046
0.409515
0.413189
0.436998
0.466636
0.487642
0.485238
0.834802
0.829823
0.822442
0.812552
0.799671
0.783059
0.761958
0.735835
0.704551
0.668511
0.628882
0.587914
0.548481
0.51437
0.49088
0.47861
0.472978
0.469939
0.467655
0.466784
0.467259
0.463849
0.446214
0.416108
0.402855
0.424818
0.466014
0.498398
0.50863
0.487248
0.835009
0.831296
0.825411
0.817045
0.805725
0.790735
0.771242
0.746526
0.716223
0.680534
0.640472
0.598255
0.557042
0.520915
0.495301
0.481372
0.474778
0.471269
0.468913
0.467646
0.466254
0.458307
0.435624
0.407629
0.406036
0.444869
0.495032
0.521212
0.514675
0.475118
0.834714
0.832093
0.82751
0.820538
0.810664
0.797212
0.779282
0.755992
0.726772
0.691608
0.651333
0.608079
0.565212
0.527135
0.499467
0.483919
0.476404
0.472453
0.469915
0.468217
0.464859
0.45361
0.429917
0.409507
0.420618
0.470356
0.516862
0.531433
0.50558
0.453117
0.834068
0.83239
0.828956
0.823206
0.814666
0.802679
0.786272
0.764426
0.736371
0.701868
0.661548
0.61743
0.573026
0.533062
0.503408
0.486284
0.477874
0.473509
0.470743
0.468467
0.463513
0.45097
0.430281
0.420334
0.440706
0.491199
0.527608
0.526443
0.483763
0.425385
0.833182
0.832312
0.829874
0.825212
0.817888
0.807276
0.792338
0.771935
0.745111
0.711393
0.671185
0.626359
0.580525
0.538731
0.50715
0.488491
0.479214
0.474452
0.471443
0.468552
0.462483
0.449752
0.433659
0.432092
0.457868
0.500755
0.523469
0.506508
0.453411
0.395644
0.832133
0.831956
0.830379
0.826694
0.820475
0.811134
0.797595
0.778613
0.75306
0.720227
0.680271
0.634883
0.587722
0.544153
0.510693
0.490542
0.480431
0.475299
0.472045
0.4686
0.461811
0.449681
0.438317
0.441841
0.469296
0.501039
0.508733
0.479221
0.420241
0.371081
0.830975
0.831395
0.830564
0.827702
0.822534
0.814366
0.802148
0.784553
0.760289
0.728417
0.688832
0.643013
0.594626
0.549334
0.514039
0.492439
0.481531
0.476058
0.47258
0.468683
0.461515
0.450556
0.443333
0.450473
0.475305
0.496294
0.491975
0.455243
0.40098
0.365225
0.829747
0.830679
0.830508
0.828418
0.82415
0.817063
0.80609
0.789838
0.766869
0.736017
0.696904
0.650772
0.601251
0.554283
0.517193
0.494184
0.482519
0.476741
0.473075
0.468848
0.461603
0.452094
0.44828
0.457017
0.477463
0.489506
0.477203
0.440305
0.400177
0.377837
0.828475
0.829846
0.83025
0.828851
0.8254
0.819304
0.8095
0.79454
0.772859
0.743071
0.70452
0.658181
0.607611
0.559012
0.520161
0.495782
0.4834
0.477357
0.473554
0.46912
0.462047
0.454034
0.452555
0.46151
0.477113
0.482119
0.465501
0.433304
0.410492
0.399993
0.827181
0.828925
0.829832
0.829051
0.82635
0.821159
0.812446
0.798722
0.778313
0.749622
0.711708
0.665259
0.61372
0.563532
0.522947
0.497237
0.484181
0.477917
0.474035
0.46951
0.462775
0.456143
0.455763
0.464341
0.475124
0.474847
0.457383
0.433594
0.429166
0.427924
0.825886
0.82794
0.829285
0.829059
0.827049
0.822693
0.814988
0.802442
0.783281
0.755709
0.718496
0.672025
0.61959
0.567849
0.525558
0.498553
0.484868
0.478431
0.474534
0.470019
0.463705
0.458197
0.458148
0.46568
0.472098
0.468667
0.453728
0.441677
0.451921
0.460259
0.824595
0.826909
0.828634
0.828907
0.827507
0.82395
0.817181
0.805751
0.787808
0.761366
0.724909
0.678494
0.625232
0.571973
0.527997
0.499736
0.485469
0.47891
0.475061
0.470636
0.464763
0.460046
0.459869
0.465595
0.468673
0.464181
0.454851
0.455675
0.47648
0.49494
0.823312
0.825841
0.827896
0.828624
0.827811
0.824964
0.819068
0.808695
0.791934
0.766627
0.730973
0.684684
0.630656
0.575909
0.53027
0.500788
0.48599
0.479364
0.475628
0.471353
0.465881
0.461665
0.460875
0.464401
0.465292
0.461623
0.461158
0.473665
0.503895
0.520817
0.82204
0.824748
0.827087
0.828227
0.827951
0.825763
0.820685
0.811315
0.795698
0.771523
0.736709
0.69061
0.635873
0.579665
0.53238
0.501714
0.486437
0.4798
0.476242
0.472153
0.467002
0.462885
0.461079
0.462508
0.462363
0.461477
0.471553
0.494647
0.529608
0.530659
0.820793
0.823634
0.826217
0.827732
0.827952
0.826378
0.822066
0.813647
0.799132
0.776081
0.742139
0.696287
0.640893
0.583246
0.53433
0.502518
0.486816
0.480228
0.476907
0.47302
0.468074
0.463514
0.460746
0.460217
0.46024
0.46472
0.483999
0.516014
0.544343
0.523942
0.819585
0.822505
0.825294
0.827149
0.827831
0.826832
0.82324
0.81572
0.802268
0.780328
0.747284
0.701729
0.645724
0.586656
0.536123
0.503202
0.487131
0.480654
0.477623
0.473932
0.469046
0.463679
0.459885
0.457818
0.459159
0.470847
0.498001
0.532172
0.545885
0.504702
0.818422
0.821379
0.824332
0.826493
0.8276
0.827143
0.824231
0.817562
0.805132
0.784289
0.752163
0.706951
0.650378
0.589906
0.537767
0.503777
0.487394
0.481091
0.478416
0.474895
0.469887
0.463582
0.458399
0.455395
0.459601
0.478442
0.511859
0.539946
0.535948
0.479226
0.817308
0.820267
0.823341
0.825774
0.827275
0.827314
0.825059
0.819199
0.807752
0.787985
0.756789
0.711957
0.654849
0.592982
0.539246
0.504222
0.487584
0.481492
0.479147
0.475814
0.470553
0.462961
0.456153
0.453132
0.461468
0.486946
0.522338
0.539526
0.518342
0.453132
0.816251
0.819176
0.822324
0.824996
0.826868
0.827393
0.825735
0.820642
0.810144
0.791444
0.761201
0.716795
0.659189
0.595938
0.540627
0.504631
0.487841
0.482119
0.480131
0.476796
0.471022
0.461913
0.453422
0.451255
0.464323
0.495034
0.528437
0.532996
0.496723
0.428919
0.815281
0.818127
0.821296
0.824155
0.826355
0.827373
0.826304
0.821939
0.812334
0.794645
0.765329
0.721363
0.66328
0.598631
0.54168
0.504652
0.48763
0.482241
0.480982
0.47774
0.471121
0.461013
0.451463
0.450621
0.468627
0.502878
0.531183
0.522507
0.474808
0.406654
0.814447
0.817138
0.82031
0.82333
0.82574
0.827098
0.826652
0.823048
0.814372
0.79778
0.76945
0.725992
0.667547
0.601674
0.543301
0.505401
0.488283
0.483084
0.482048
0.4788
0.471036
0.4595
0.450419
0.452638
0.475074
0.511013
0.531299
0.510329
0.455409
0.386604
0.813746
0.816151
0.819335
0.822652
0.825444
0.827101
0.827021
0.823968
0.815967
0.800207
0.772622
0.729366
0.670296
0.602959
0.543059
0.504491
0.487725
0.483452
0.482835
0.479185
0.470204
0.457086
0.448302
0.45484
0.482729
0.519004
0.531173
0.498766
0.434365
0.368341
0.813181
0.815045
0.817845
0.821171
0.82431
0.826528
0.827223
0.825124
0.818354
0.804034
0.77796
0.735864
0.676512
0.607604
0.545547
0.505245
0.487918
0.48395
0.483337
0.478422
0.46832
0.456355
0.451234
0.461995
0.493515
0.525792
0.522329
0.469933
0.399435
0.343939
0.354649
0.350229
0.346747
0.344194
0.340902
0.331435
0.323679
0.331165
0.359474
0.399405
0.439385
0.475586
0.507361
0.534699
0.558047
0.578112
0.595567
0.610965
0.624843
0.637577
0.649483
0.660793
0.671724
0.682359
0.693006
0.70352
0.714658
0.725255
0.738827
0.74718
0.354812
0.350001
0.344748
0.339393
0.332855
0.320202
0.30398
0.296445
0.316767
0.362074
0.413123
0.457252
0.494019
0.524687
0.550487
0.572426
0.591241
0.60755
0.621961
0.634956
0.646912
0.658123
0.668848
0.679193
0.689411
0.699358
0.709648
0.719041
0.729814
0.737926
0.355424
0.350431
0.343087
0.333323
0.32028
0.303389
0.281344
0.262668
0.268386
0.310811
0.370345
0.425663
0.471886
0.508901
0.538823
0.563638
0.584501
0.602244
0.617651
0.631276
0.643546
0.654837
0.665465
0.675615
0.685512
0.695154
0.704939
0.714486
0.724599
0.734809
0.356327
0.351995
0.343217
0.329666
0.30989
0.283537
0.253642
0.226981
0.221512
0.254964
0.320582
0.391051
0.448811
0.494836
0.530557
0.559264
0.582466
0.601584
0.617844
0.631967
0.644468
0.655792
0.666303
0.676273
0.685945
0.695429
0.704937
0.714473
0.724148
0.733927
0.356717
0.354229
0.345189
0.329662
0.305332
0.271491
0.232006
0.196775
0.18078
0.203572
0.266069
0.346651
0.421525
0.478488
0.52161
0.555782
0.581922
0.602792
0.619922
0.634357
0.646866
0.657987
0.66814
0.677663
0.686823
0.695795
0.704726
0.7137
0.722728
0.731848
0.355016
0.355841
0.348002
0.333004
0.308084
0.271466
0.225498
0.182718
0.156581
0.167654
0.219653
0.299612
0.383726
0.455135
0.510639
0.551241
0.581263
0.604838
0.623131
0.637921
0.650386
0.66116
0.670755
0.679584
0.687959
0.69612
0.704245
0.712479
0.720897
0.729495
0.349183
0.354725
0.349204
0.337034
0.31537
0.282164
0.23732
0.189252
0.156696
0.157819
0.197665
0.267034
0.350792
0.429573
0.494826
0.545125
0.5827
0.609632
0.629274
0.644417
0.656657
0.666794
0.675555
0.683464
0.690857
0.697995
0.705095
0.71233
0.719822
0.727712
0.336774
0.34831
0.345815
0.33789
0.321466
0.295576
0.259483
0.217521
0.183655
0.174121
0.200012
0.256676
0.333531
0.410515
0.480441
0.53864
0.583303
0.615735
0.638956
0.655622
0.667696
0.676773
0.684082
0.690421
0.696221
0.701771
0.707349
0.713204
0.719479
0.726338
0.31582
0.334369
0.335013
0.331911
0.32121
0.303112
0.277054
0.247285
0.221007
0.209376
0.223122
0.264087
0.325962
0.396455
0.466494
0.528719
0.579886
0.619409
0.648289
0.668395
0.682015
0.69139
0.697911
0.702542
0.706064
0.709061
0.711975
0.71518
0.719177
0.724068
0.285745
0.311978
0.315481
0.316754
0.311214
0.300093
0.283209
0.262945
0.246419
0.24157
0.249292
0.276628
0.324437
0.384342
0.448936
0.510768
0.565436
0.611091
0.64709
0.673855
0.692637
0.704944
0.712444
0.716836
0.719421
0.721034
0.722137
0.722963
0.723921
0.725118
0.247559
0.281877
0.287454
0.292565
0.290622
0.284442
0.27414
0.262023
0.252442
0.2504
0.260262
0.282724
0.31844
0.367572
0.423925
0.482114
0.537364
0.586369
0.627538
0.660659
0.686261
0.704984
0.717706
0.725663
0.729965
0.731598
0.731481
0.730639
0.729746
0.729583
0.203728
0.245651
0.252889
0.261797
0.261882
0.258671
0.252083
0.244553
0.239065
0.2392
0.248021
0.267179
0.29769
0.338276
0.386894
0.439786
0.493243
0.543944
0.589453
0.628258
0.659905
0.684786
0.703242
0.717015
0.726072
0.731306
0.73368
0.734158
0.73334
0.732508
0.157092
0.207155
0.214671
0.226147
0.227582
0.226081
0.221251
0.215637
0.211566
0.211744
0.218576
0.233968
0.258888
0.293212
0.335554
0.383542
0.434341
0.485045
0.533323
0.576978
0.614734
0.646059
0.670963
0.690222
0.704576
0.714515
0.720703
0.72398
0.72497
0.724625
0.111613
0.169442
0.175053
0.188231
0.190181
0.189282
0.184783
0.179314
0.174755
0.173319
0.17707
0.187863
0.20699
0.234964
0.271307
0.31444
0.362276
0.412441
0.462222
0.509563
0.55262
0.590129
0.621452
0.646578
0.66608
0.680641
0.690762
0.697199
0.700679
0.702062
0.0721453
0.134874
0.136986
0.151275
0.152367
0.150782
0.145128
0.138104
0.131208
0.126357
0.125456
0.130381
0.142551
0.163411
0.193061
0.230506
0.274375
0.322891
0.373708
0.424367
0.472587
0.516448
0.554582
0.586284
0.6115
0.630795
0.644951
0.654485
0.660282
0.663295
0.0428252
0.106193
0.104017
0.118637
0.11717
0.113468
0.104984
0.0945225
0.0831802
0.0726949
0.0648663
0.0616873
0.065006
0.0762419
0.097088
0.127114
0.165059
0.210386
0.260897
0.314278
0.36792
0.419126
0.465566
0.505573
0.538279
0.563881
0.58303
0.596267
0.604675
0.609234
0.0263211
0.0870254
0.0792284
0.0933717
0.0876776
0.0805599
0.0676722
0.0519101
0.0339134
0.0153051
-0.00216762
-0.0162133
-0.0242598
-0.024434
-0.0153156
0.00407593
0.033389
0.0713472
0.118051
0.172165
0.230345
0.289425
0.346059
0.39723
0.440733
0.475888
0.502833
0.521915
0.534406
0.541248
0.0245928
0.0789732
0.0663959
0.0789551
0.0673217
0.0558794
0.0372492
0.0146964
-0.0116738
-0.040226
-0.0688476
-0.0949339
-0.115714
-0.128809
-0.132431
-0.125321
-0.10751
-0.0794142
-0.0402099
0.00950929
0.0680867
0.132672
0.199091
0.262761
0.319666
0.36756
0.405511
0.433203
0.451907
0.462565
0.0399427
0.0851777
0.0691986
0.075809
0.0590118
0.043007
0.0179899
-0.0119244
-0.0471342
-0.085832
-0.125322
-0.162187
-0.193175
-0.215804
-0.228523
-0.230527
-0.222353
-0.203861
-0.174451
-0.133373
-0.0802938
-0.0165039
0.0541509
0.12601
0.193553
0.252967
0.301957
0.33917
0.365133
0.380771
0.0724915
0.106612
0.0869687
0.0862414
0.0655957
0.0438891
0.0130779
-0.0235264
-0.0666342
-0.113952
-0.161991
-0.206207
-0.242608
-0.268943
-0.284811
-0.290893
-0.286925
-0.275705