/*--------------------------------*- C++ -*----------------------------------*\
  =========                 |
  \\      /  F ield         | OpenFOAM: The Open Source CFD Toolbox
   \\    /   O peration     | Website:  https://openfoam.org
    \\  /    A nd           | Version:  11
     \\/     M anipulation  |
\*---------------------------------------------------------------------------*/
FoamFile
{
    format      ascii;
    class       volScalarField;
    location    "8";
    object      p;
}
// * * * * * * * * * * * * * * * * * * * * * * * * * * * * * * * * * * * * * //

dimensions      [0 2 -2 0 0 0 0];

internalField   nonuniform List<scalar> 
12600
(
0.799239
0.799104
0.799035
0.799006
0.798974
0.79893
0.798877
0.798817
0.798747
0.798663
0.798564
0.798445
0.798301
0.798128
0.797918
0.797662
0.797351
0.796968
0.796499
0.795923
0.795208
0.794328
0.793247
0.791906
0.790232
0.788138
0.785508
0.782186
0.778003
0.772642
0.799168
0.799097
0.799038
0.799006
0.798973
0.79893
0.798879
0.798819
0.79875
0.798668
0.79857
0.798452
0.79831
0.798139
0.797931
0.797679
0.797372
0.796995
0.796534
0.795968
0.79526
0.79439
0.793325
0.792003
0.790352
0.788284
0.785685
0.782404
0.77824
0.772949
0.799135
0.7991
0.799049
0.799011
0.798977
0.798936
0.798886
0.798827
0.798759
0.798678
0.798582
0.798467
0.798328
0.79816
0.797957
0.79771
0.79741
0.797042
0.796591
0.796036
0.795348
0.794503
0.793464
0.792174
0.790562
0.788543
0.786001
0.782794
0.778687
0.773514
0.799114
0.799092
0.79905
0.799012
0.798978
0.798939
0.798892
0.798835
0.798769
0.798691
0.798597
0.798486
0.798351
0.798189
0.797993
0.797755
0.797464
0.797109
0.796674
0.796139
0.79548
0.794667
0.793664
0.792421
0.790867
0.788922
0.786467
0.783369
0.779376
0.774354
0.799101
0.799086
0.799053
0.799018
0.798986
0.798948
0.798902
0.798848
0.798784
0.798709
0.798619
0.798512
0.798384
0.798229
0.798041
0.797813
0.797536
0.797198
0.796783
0.796275
0.795648
0.794875
0.793922
0.79274
0.791264
0.789414
0.787076
0.78412
0.78029
0.775474
0.799093
0.799082
0.799056
0.799024
0.798992
0.798956
0.798913
0.798861
0.798801
0.798729
0.798645
0.798543
0.798422
0.798275
0.798098
0.797884
0.797623
0.797305
0.796915
0.796438
0.795851
0.795128
0.794235
0.793128
0.791746
0.790013
0.787819
0.785043
0.781423
0.776867
0.79909
0.799081
0.799059
0.799031
0.799001
0.798967
0.798926
0.798878
0.798821
0.798754
0.798675
0.79858
0.798467
0.798331
0.798166
0.797967
0.797725
0.797431
0.797071
0.79663
0.796089
0.795422
0.7946
0.793581
0.792309
0.790713
0.788691
0.786127
0.782764
0.778522
0.79909
0.799082
0.799064
0.799039
0.799011
0.798979
0.798941
0.798897
0.798844
0.798782
0.798709
0.798622
0.798518
0.798393
0.798242
0.798061
0.79784
0.797572
0.797245
0.796846
0.796356
0.795754
0.795011
0.794091
0.792944
0.791505
0.789679
0.78736
0.784299
0.780426
0.799092
0.799086
0.79907
0.799048
0.799022
0.798993
0.798958
0.798917
0.798869
0.798813
0.798747
0.798668
0.798574
0.798462
0.798327
0.798164
0.797968
0.797729
0.797439
0.797084
0.796651
0.796119
0.795464
0.794653
0.793643
0.792378
0.790771
0.788726
0.786011
0.782563
0.799096
0.799091
0.799078
0.799058
0.799035
0.799008
0.798977
0.79894
0.798897
0.798847
0.798788
0.798718
0.798635
0.798537
0.798419
0.798277
0.798106
0.797899
0.797647
0.797342
0.796969
0.796512
0.795951
0.795259
0.794398
0.79332
0.791951
0.790209
0.787878
0.784908
0.799102
0.799098
0.799087
0.79907
0.799049
0.799025
0.798997
0.798964
0.798927
0.798883
0.798831
0.798771
0.7987
0.798616
0.798516
0.798396
0.798253
0.798079
0.79787
0.797616
0.797307
0.79693
0.796468
0.795901
0.795197
0.794319
0.793204
0.791785
0.789874
0.787431
0.79911
0.799106
0.799097
0.799082
0.799064
0.799043
0.799018
0.79899
0.798958
0.798921
0.798878
0.798828
0.798769
0.7987
0.798619
0.798522
0.798407
0.798269
0.798103
0.797902
0.79766
0.797366
0.797008
0.79657
0.79603
0.795359
0.79451
0.793432
0.791969
0.790093
0.79912
0.799116
0.799108
0.799095
0.799079
0.799061
0.799041
0.799017
0.79899
0.79896
0.798925
0.798886
0.79884
0.798787
0.798726
0.798653
0.798567
0.798465
0.798344
0.798199
0.798025
0.797816
0.797564
0.797258
0.796885
0.796426
0.79585
0.795121
0.794126
0.792846
0.79913
0.799127
0.79912
0.799109
0.799096
0.799081
0.799064
0.799045
0.799024
0.799
0.798975
0.798946
0.798914
0.798877
0.798835
0.798787
0.798731
0.798666
0.79859
0.798501
0.798396
0.798273
0.798128
0.797955
0.79775
0.797504
0.797201
0.796826
0.796304
0.795636
0.799141
0.799139
0.799133
0.799124
0.799113
0.7991
0.799087
0.799073
0.799058
0.799042
0.799025
0.799007
0.798988
0.798967
0.798946
0.798922
0.798896
0.798869
0.798838
0.798806
0.79877
0.798733
0.798693
0.798653
0.798614
0.798577
0.798543
0.798515
0.798463
0.798404
0.799154
0.799152
0.799147
0.799139
0.79913
0.799121
0.799111
0.799101
0.799092
0.799083
0.799075
0.799068
0.799062
0.799058
0.799057
0.799058
0.799062
0.799072
0.799087
0.79911
0.799143
0.799189
0.799254
0.799343
0.799464
0.79963
0.799855
0.80016
0.800559
0.801086
0.799167
0.799165
0.799161
0.799155
0.799148
0.799141
0.799135
0.79913
0.799126
0.799124
0.799125
0.799129
0.799136
0.799149
0.799167
0.799192
0.799227
0.799272
0.799332
0.799409
0.799509
0.799637
0.799803
0.800016
0.800291
0.800649
0.801117
0.801733
0.802549
0.80362
0.79918
0.799179
0.799175
0.79917
0.799165
0.799161
0.799159
0.799158
0.79916
0.799165
0.799174
0.799188
0.799209
0.799237
0.799275
0.799324
0.799387
0.799469
0.799571
0.799702
0.799866
0.800073
0.800334
0.800664
0.801083
0.80162
0.802311
0.803208
0.804397
0.80595
0.799195
0.799193
0.79919
0.799186
0.799183
0.799181
0.799182
0.799185
0.799193
0.799204
0.799222
0.799247
0.79928
0.799323
0.79938
0.799452
0.799543
0.799658
0.799803
0.799983
0.800209
0.80049
0.800841
0.801281
0.801833
0.802531
0.803422
0.804565
0.806072
0.808028
0.799209
0.799208
0.799205
0.799202
0.7992
0.7992
0.799204
0.799212
0.799224
0.799242
0.799268
0.799302
0.799348
0.799406
0.79948
0.799574
0.799692
0.79984
0.800024
0.800252
0.800535
0.800886
0.801321
0.80186
0.802533
0.803375
0.804437
0.805787
0.807549
0.809818
0.799224
0.799223
0.79922
0.799217
0.799216
0.799219
0.799226
0.799237
0.799254
0.799279
0.799312
0.799355
0.799412
0.799484
0.799576
0.79969
0.799833
0.800012
0.800232
0.800505
0.800841
0.801256
0.801767
0.802397
0.803177
0.804143
0.80535
0.806865
0.808818
0.811301
0.79924
0.799238
0.799235
0.799231
0.799232
0.799236
0.799246
0.799261
0.799282
0.799312
0.799352
0.799405
0.799472
0.799557
0.799664
0.799798
0.799965
0.800171
0.800426
0.800739
0.801125
0.801597
0.802177
0.802888
0.80376
0.804832
0.806156
0.807796
0.809874
0.812477
0.799256
0.799254
0.799249
0.799245
0.799246
0.799253
0.799265
0.799283
0.799308
0.799344
0.79939
0.79945
0.799527
0.799624
0.799746
0.799898
0.800085
0.800317
0.800603
0.800953
0.801383
0.801907
0.802548
0.803329
0.80428
0.805438
0.806853
0.80858
0.810727
0.813361
0.799274
0.79927
0.799263
0.799258
0.799259
0.799268
0.799282
0.799303
0.799332
0.799372
0.799424
0.799492
0.799577
0.799685
0.79982
0.799987
0.800194
0.800449
0.800762
0.801145
0.801614
0.802184
0.802878
0.803718
0.804735
0.805963
0.807445
0.809227
0.811393
0.813985
0.799292
0.799287
0.799276
0.799269
0.799271
0.799281
0.799297
0.79932
0.799352
0.799397
0.799454
0.799528
0.799621
0.799738
0.799885
0.800066
0.800289
0.800564
0.800901
0.801313
0.801815
0.802425
0.803163
0.804054
0.805125
0.806407
0.807936
0.809747
0.811895
0.814394
0.799313
0.799303
0.799287
0.799279
0.799282
0.799294
0.799311
0.799336
0.799371
0.799418
0.79948
0.799559
0.799659
0.799785
0.799941
0.800133
0.800371
0.800663
0.801021
0.801457
0.801987
0.802629
0.803405
0.804336
0.80545
0.806773
0.808334
0.810154
0.812264
0.814642
0.799336
0.799321
0.799296
0.799286
0.79929
0.799303
0.799321
0.799347
0.799385
0.799435
0.799501
0.799584
0.79969
0.799822
0.799986
0.800188
0.800438
0.800744
0.801118
0.801573
0.802126
0.802795
0.8036
0.804564
0.80571
0.807062
0.808643
0.810462
0.812528
0.814783
0.799365
0.799338
0.799304
0.799294
0.799299
0.799312
0.79933
0.799358
0.799397
0.79945
0.799518
0.799605
0.799714
0.799851
0.800021
0.800232
0.80049
0.800807
0.801193
0.801664
0.802235
0.802923
0.803751
0.804738
0.805909
0.807282
0.808875
0.810685
0.812713
0.814876
0.799404
0.799341
0.799301
0.799296
0.799304
0.799316
0.799335
0.799363
0.799404
0.799458
0.799529
0.799618
0.799731
0.799871
0.800045
0.800261
0.800525
0.800849
0.801245
0.801726
0.802308
0.803011
0.803853
0.804857
0.806044
0.807431
0.809034
0.810838
0.81283
0.814934
0.799479
0.799351
0.7993
0.799299
0.799308
0.79932
0.799339
0.799368
0.799409
0.799464
0.799535
0.799627
0.799741
0.799883
0.80006
0.800278
0.800546
0.800875
0.801275
0.801763
0.802353
0.803064
0.803917
0.804932
0.806129
0.807525
0.809127
0.810923
0.812864
0.814824
0.767657
0.765629
0.764009
0.762672
0.761263
0.759694
0.758023
0.756296
0.754518
0.75268
0.750777
0.748797
0.746727
0.744541
0.742212
0.7397
0.736958
0.733927
0.730527
0.726659
0.722192
0.71695
0.7107
0.703113
0.693776
0.681933
0.66724
0.645503
0.627457
0.570105
0.768754
0.767076
0.765607
0.764294
0.762915
0.761429
0.759897
0.75835
0.756777
0.75516
0.753489
0.751753
0.749935
0.748016
0.745968
0.743759
0.741348
0.738682
0.735696
0.732301
0.728384
0.723793
0.718326
0.711704
0.703563
0.693278
0.680458
0.662233
0.644814
0.597679
0.769091
0.767754
0.766566
0.765384
0.764146
0.76286
0.761555
0.760233
0.758882
0.757488
0.756048
0.754552
0.752987
0.751338
0.749581
0.74769
0.745629
0.743355
0.740809
0.737919
0.734588
0.730687
0.726045
0.720429
0.713523
0.704831
0.69394
0.678814
0.663089
0.624936
0.769978
0.768971
0.768064
0.767038
0.765938
0.764826
0.763711
0.762583
0.76143
0.760249
0.759035
0.757781
0.756474
0.755101
0.753644
0.752079
0.750378
0.748504
0.746411
0.744037
0.741302
0.738102
0.734292
0.729681
0.724003
0.716868
0.707857
0.695547
0.681951
0.651661
0.771208
0.770438
0.769741
0.76886
0.767906
0.766972
0.766057
0.765133
0.764192
0.763234
0.762256
0.76125
0.760209
0.75912
0.757971
0.756743
0.755414
0.753956
0.75233
0.750488
0.748366
0.745878
0.74291
0.739306
0.734846
0.729229
0.72205
0.712356
0.701064
0.677644
0.772757
0.772202
0.771711
0.770995
0.770205
0.769456
0.768737
0.768016
0.767285
0.766547
0.765803
0.765048
0.764275
0.763475
0.76264
0.761757
0.760808
0.759773
0.758622
0.757318
0.755813
0.754039
0.751906
0.749292
0.746018
0.741853
0.736428
0.72914
0.720156
0.702689
0.774616
0.774264
0.77397
0.773418
0.772791
0.772222
0.771697
0.771178
0.770657
0.770143
0.769638
0.769137
0.768637
0.768132
0.767617
0.767083
0.76652
0.765912
0.765239
0.764476
0.763584
0.762515
0.7612
0.759545
0.757409
0.754618
0.750847
0.745739
0.738975
0.726587
0.776779
0.77662
0.776514
0.776127
0.775666
0.775277
0.774946
0.774629
0.774321
0.774032
0.773765
0.77352
0.773294
0.773085
0.772891
0.772707
0.772529
0.772347
0.772149
0.771918
0.771628
0.771244
0.770717
0.769976
0.768913
0.767395
0.765152
0.761983
0.757287
0.749136
0.779235
0.779258
0.779331
0.779107
0.778812
0.778603
0.778463
0.778347
0.77825
0.778183
0.778155
0.778164
0.778211
0.778296
0.778421
0.778585
0.778787
0.779023
0.779289
0.779574
0.779863
0.780133
0.78035
0.780464
0.780392
0.780035
0.77917
0.777688
0.774865
0.770153
0.781963
0.782156
0.782396
0.782333
0.782203
0.782172
0.78222
0.782301
0.782412
0.782566
0.782772
0.783031
0.783346
0.78372
0.784156
0.784658
0.785229
0.785869
0.786579
0.787355
0.788191
0.789073
0.789979
0.790875
0.791698
0.792373
0.792718
0.792669
0.79149
0.789467
0.784931
0.785281
0.785675
0.785768
0.785802
0.785943
0.786174
0.786447
0.78676
0.787128
0.787561
0.788063
0.788636
0.789288
0.790023
0.790849
0.79177
0.792791
0.793918
0.795152
0.796493
0.797934
0.799463
0.801056
0.802666
0.804235
0.80561
0.806745
0.806957
0.806935
0.788096
0.788587
0.789119
0.789363
0.789556
0.789863
0.790268
0.790725
0.79123
0.791802
0.792452
0.793184
0.794003
0.794916
0.795933
0.79706
0.798307
0.79968
0.801189
0.802839
0.804633
0.806572
0.808649
0.810846
0.813129
0.815446
0.817672
0.81976
0.821105
0.822483
0.791399
0.792015
0.792668
0.793053
0.793399
0.793863
0.794431
0.795059
0.795745
0.796508
0.797359
0.798304
0.79935
0.800504
0.801778
0.803179
0.80472
0.80641
0.808258
0.810274
0.812464
0.814831
0.817372
0.820074
0.82291
0.825832
0.828735
0.831562
0.833794
0.836115
0.794771
0.795494
0.796248
0.796764
0.797253
0.797861
0.798577
0.799361
0.800213
0.801149
0.802182
0.803319
0.804567
0.805937
0.807438
0.809081
0.810879
0.812842
0.814981
0.817307
0.819828
0.822548
0.825465
0.828569
0.831833
0.835213
0.838615
0.841965
0.844834
0.847771
0.798132
0.798941
0.799778
0.800409
0.801028
0.801766
0.802613
0.803535
0.804531
0.805619
0.806811
0.808114
0.809538
0.811091
0.812786
0.814633
0.816646
0.818835
0.821212
0.823788
0.826571
0.829564
0.832767
0.836166
0.839734
0.843422
0.847139
0.850783
0.854008
0.857183
0.801394
0.802269
0.803168
0.803899
0.804631
0.805481
0.806439
0.807476
0.808594
0.809809
0.811132
0.812573
0.81414
0.815843
0.817693
0.819703
0.821884
0.824248
0.826807
0.82957
0.832544
0.835732
0.83913
0.842721
0.846475
0.850332
0.854198
0.857934
0.861246
0.864212
0.804469
0.80539
0.806331
0.807142
0.807969
0.808909
0.809955
0.811084
0.812298
0.813612
0.815038
0.816584
0.818259
0.820074
0.822039
0.824167
0.826468
0.828955
0.831637
0.834524
0.837619
0.840924
0.84443
0.848118
0.851949
0.855856
0.859739
0.863427
0.866667
0.869283
0.807274
0.808221
0.809185
0.810056
0.810957
0.811964
0.813073
0.814267
0.815549
0.816932
0.818428
0.820045
0.821792
0.82368
0.825718
0.827918
0.830291
0.832847
0.835595
0.838542
0.84169
0.845037
0.84857
0.852265
0.856076
0.859929
0.863715
0.867245
0.870296
0.872469
0.809739
0.810693
0.811662
0.812572
0.813522
0.814572
0.815719
0.816951
0.818272
0.819693
0.821226
0.822879
0.82466
0.826579
0.828647
0.830874
0.833269
0.835842
0.838599
0.841545
0.844681
0.847998
0.851482
0.8551
0.8588
0.862497
0.866073
0.869312
0.871994
0.873518
0.811811
0.812757
0.813714
0.814641
0.815617
0.816685
0.817843
0.819085
0.820414
0.821842
0.823379
0.825032
0.826809
0.828721
0.830776
0.832983
0.835352
0.83789
0.840601
0.843489
0.846548
0.84977
0.85313
0.856592
0.860093
0.863534
0.866781
0.869587
0.871729
0.872556
0.813466
0.814388
0.815317
0.81624
0.817217
0.818277
0.819422
0.820646
0.821954
0.823358
0.824864
0.826482
0.828219
0.830084
0.832084
0.834229
0.836525
0.838978
0.841591
0.844363
0.847286
0.850346
0.853514
0.856742
0.859959
0.86305
0.865866
0.868133
0.869659
0.869482
0.814702
0.815586
0.816476
0.817374
0.818327
0.819356
0.820461
0.821641
0.822901
0.824249
0.825694
0.827243
0.828904
0.830683
0.832589
0.834628
0.836807
0.839127
0.841591
0.844194
0.846925
0.849761
0.852668
0.855591
0.858446
0.861103
0.863402
0.865017
0.865855
0.864151
0.815547
0.816381
0.817219
0.818074
0.818981
0.819956
0.820998
0.822109
0.823292
0.824557
0.82591
0.827359
0.828908
0.830567
0.83234
0.834233
0.83625
0.838393
0.84066
0.843043
0.845525
0.848081
0.850667
0.853218
0.855639
0.85778
0.859474
0.860303
0.860414
0.856823
0.816052
0.816825
0.817601
0.818396
0.819238
0.820137
0.821095
0.822113
0.823196
0.824351
0.825584
0.826902
0.82831
0.829813
0.831418
0.833127
0.834942
0.836864
0.838888
0.841001
0.843183
0.845401
0.847605
0.849716
0.851627
0.853162
0.854158
0.854069
0.853399
0.847881
0.816287
0.816992
0.817695
0.818415
0.819173
0.81998
0.820835
0.82174
0.8227
0.82372
0.824807
0.825966
0.827202
0.828519
0.829921
0.831411
0.832989
0.834651
0.836387
0.838184
0.840014
0.841837
0.843593
0.845192
0.846513
0.84735
0.84755
0.84639
0.844769
0.837025
0.816339
0.816971
0.817591
0.81822
0.818879
0.819578
0.820315
0.821091
0.821909
0.822776
0.823695
0.824671
0.825708
0.826808
0.827976
0.829211
0.83051
0.831868
0.833272
0.834703
0.836128
0.837498
0.838745
0.839762
0.840414
0.840455
0.839745
0.837337
0.834588
0.824164
0.816306
0.81686
0.817383
0.817907
0.818457
0.819035
0.819637
0.820266
0.820926
0.821621
0.822353
0.823127
0.823943
0.824805
0.825712
0.826662
0.827651
0.828669
0.8297
0.830719
0.831686
0.832545
0.833215
0.833571
0.833464
0.832597
0.830849
0.827004
0.822975
0.809404
0.816342
0.81677
0.817139
0.817542
0.817986
0.818445
0.818911
0.819386
0.819874
0.820376
0.820896
0.821441
0.82201
0.822602
0.823216
0.823848
0.824489
0.825127
0.825741
0.8263
0.826758
0.827047
0.827073
0.826693
0.825738
0.823852
0.820946
0.815466
0.810066
0.792818
0.816704
0.816876
0.816982
0.817236
0.817554
0.817875
0.8182
0.818541
0.818878
0.819193
0.819502
0.819814
0.820127
0.82044
0.820749
0.821044
0.821316
0.821545
0.821707
0.821763
0.821657
0.82131
0.820612
0.819396
0.817473
0.814422
0.810213
0.802785
0.796066
0.7744
0.817196
0.816962
0.816829
0.816995
0.817224
0.817419
0.817581
0.81772
0.817836
0.817929
0.818002
0.818052
0.818073
0.818066
0.818028
0.81794
0.817792
0.817563
0.817224
0.816727
0.816009
0.814975
0.813499
0.811385
0.808419
0.804091
0.798566
0.788635
0.781219
0.753847
0.732154
0.708076
0.680436
0.650424
0.618399
0.583888
0.546602
0.507052
0.466086
0.42435
0.383311
0.343156
0.305113
0.272905
0.250507
0.238739
0.23509
0.235533
0.237218
0.238827
0.240101
0.241313
0.242631
0.243758
0.244463
0.244633
0.244446
0.244568
0.244671
0.246799
0.766124
0.745254
0.72057
0.693922
0.664966
0.633172
0.597806
0.559175
0.517426
0.473022
0.426844
0.379915
0.333835
0.292518
0.262746
0.246931
0.241782
0.242294
0.244809
0.247483
0.25009
0.25313
0.256671
0.260082
0.263066
0.265785
0.26812
0.26989
0.270358
0.268947
0.773752
0.754817
0.732371
0.707045
0.678878
0.647236
0.611975
0.573658
0.532281
0.488296
0.442052
0.394878
0.348373
0.305956
0.275109
0.259175
0.254475
0.256551
0.261457
0.267025
0.272815
0.279029
0.285373
0.291178
0.296245
0.301003
0.305331
0.308269
0.309462
0.30735
0.787184
0.770492
0.749953
0.727023
0.701039
0.670776
0.636225
0.597639
0.555171
0.509415
0.46136
0.412506
0.364617
0.321184
0.289245
0.272347
0.267491
0.270672
0.277474
0.285214
0.29314
0.301228
0.309146
0.31643
0.323037
0.329025
0.334075
0.336843
0.337938
0.336101
0.794241
0.779634
0.761606
0.741032
0.717296
0.689241
0.656456
0.618996
0.576973
0.530816
0.481571
0.430921
0.381117
0.335963
0.302316
0.284122
0.279367
0.2839
0.292641
0.30241
0.312178
0.321862
0.3312
0.339899
0.347875
0.354873
0.360429
0.362884
0.364073
0.36019
0.800178
0.787602
0.771517
0.752806
0.730781
0.704364
0.672967
0.636486
0.594977
0.548763
0.498773
0.446765
0.395367
0.348708
0.313712
0.294711
0.29045
0.296486
0.307122
0.318723
0.330065
0.341091
0.351611
0.361454
0.37047
0.378242
0.38395
0.385176
0.384361
0.374348
0.804414
0.79351
0.779358
0.762566
0.742395
0.717752
0.687898
0.652505
0.611513
0.565201
0.514482
0.461213
0.408322
0.360287
0.324209
0.304659
0.301005
0.308592
0.321118
0.334453
0.347195
0.35935
0.370801
0.381553
0.391472
0.399885
0.405133
0.403593
0.396624
0.3782
0.807591
0.798198
0.785773
0.770717
0.752291
0.729412
0.701224
0.667172
0.626983
0.580812
0.529532
0.475081
0.420679
0.371213
0.334078
0.314057
0.311096
0.320346
0.334793
0.349734
0.363635
0.376652
0.388773
0.400364
0.411207
0.419897
0.422999
0.415451
0.399085
0.374406
0.809961
0.801871
0.790982
0.777513
0.760717
0.739512
0.712964
0.680332
0.641132
0.595343
0.543733
0.488259
0.432399
0.381483
0.343327
0.322955
0.320829
0.331865
0.348212
0.36457
0.379368
0.392992
0.40572
0.418271
0.429546
0.437399
0.435063
0.418019
0.392375
0.368652
0.811753
0.804787
0.79523
0.783215
0.767932
0.748323
0.723375
0.692185
0.654064
0.608801
0.557026
0.500677
0.443444
0.391108
0.35201
0.331431
0.330275
0.343182
0.36137
0.378934
0.394393
0.408444
0.421674
0.434742
0.446064
0.449944
0.43844
0.411214
0.381735
0.366565
0.81312
0.807131
0.798758
0.788018
0.774129
0.756037
0.732652
0.702922
0.665958
0.621338
0.569532
0.512428
0.453895
0.400163
0.360189
0.339523
0.339453
0.354308
0.374263
0.392821
0.408725
0.423378
0.436538
0.449666
0.45888
0.455127
0.433149
0.400818
0.377062
0.374351
0.814175
0.809028
0.801692
0.792094
0.779476
0.762805
0.740929
0.712659
0.676914
0.633049
0.581339
0.523588
0.463815
0.408696
0.367892
0.347248
0.348379
0.365254
0.386891
0.406244
0.422406
0.43769
0.450386
0.46234
0.465829
0.452511
0.423444
0.394743
0.383959
0.393821
0.814997
0.810581
0.804154
0.795576
0.784115
0.768764
0.748327
0.721499
0.687011
0.64399
0.59249
0.534195
0.473238
0.416733
0.375139
0.354625
0.357072
0.376034
0.399246
0.419199
0.435643
0.449585
0.462913
0.470881
0.466232
0.444886
0.415073
0.39551
0.395141
0.408095
0.815645
0.811865
0.806234
0.798562
0.78816
0.77403
0.754959
0.72954
0.696328
0.65422
0.60303
0.544285
0.482195
0.424301
0.381952
0.361673
0.365548
0.38666
0.411336
0.431612
0.448229
0.460481
0.472244
0.474208
0.46175
0.43605
0.410902
0.400778
0.404661
0.41278
0.816157
0.812934
0.808007
0.801149
0.791698
0.778696
0.760919
0.736869
0.704941
0.663801
0.613006
0.553895
0.490722
0.431428
0.388354
0.368409
0.373819
0.39714
0.423176
0.443577
0.458316
0.470932
0.477829
0.472965
0.454817
0.428592
0.410098
0.406169
0.409633
0.412852
0.816563
0.813831
0.809528
0.803399
0.794808
0.782846
0.766288
0.743563
0.712916
0.672786
0.622463
0.563064
0.498849
0.438137
0.394364
0.374847
0.381896
0.407479
0.434685
0.455038
0.467597
0.478401
0.479465
0.469045
0.447193
0.423484
0.411295
0.409336
0.411363
0.41104
0.816883
0.814585
0.810837
0.805364
0.797559
0.786552
0.771138
0.749688
0.720311
0.681224
0.631439
0.571821
0.506606
0.444456
0.399998
0.381005
0.3898
0.417697
0.445786
0.464577
0.476979
0.482824
0.478263
0.46375
0.439986
0.420734
0.412723
0.410801
0.410707
0.408431
0.817131
0.815219
0.811968
0.807087
0.800001
0.789875
0.775529
0.755303
0.727178
0.689159
0.639969
0.580197
0.514017
0.450413
0.405268
0.386887
0.397554
0.427818
0.456697
0.473087
0.483892
0.484277
0.475633
0.457567
0.434371
0.419502
0.41339
0.410891
0.408997
0.405661
0.81732
0.815752
0.812947
0.808601
0.802169
0.792864
0.779518
0.76046
0.733567
0.696631
0.648087
0.588219
0.521105
0.45604
0.410186
0.392493
0.405187
0.437791
0.467111
0.48159
0.488084
0.483578
0.471884
0.451254
0.430365
0.418884
0.413358
0.409891
0.406657
0.403034
0.817457
0.816196
0.813795
0.809936
0.804104
0.795556
0.783146
0.765207
0.73952
0.703677
0.655824
0.595914
0.527891
0.461361
0.414762
0.397817
0.412735
0.447521
0.475727
0.489117
0.489939
0.481887
0.46725
0.445588
0.427573
0.418183
0.41281
0.408109
0.404163
0.401066
0.817549
0.816563
0.814528
0.811116
0.805838
0.797984
0.786452
0.769584
0.745074
0.710332
0.663208
0.603306
0.534394
0.466399
0.419006
0.402853
0.42023
0.457076
0.483465
0.494482
0.489932
0.479396
0.462227
0.440886
0.425487
0.417256
0.411763
0.405987
0.401935
0.40021
0.817602
0.816861
0.815159
0.812157
0.807391
0.800181
0.789472
0.773624
0.750263
0.716624
0.670264
0.610418
0.540633
0.471155
0.422889
0.407632
0.42766
0.466412
0.49117
0.497355
0.488996
0.476214
0.457262
0.437078
0.423759
0.416063
0.410206
0.403887
0.400316
0.40062
0.817621
0.817098
0.815698
0.813075
0.808781
0.802171
0.792234
0.77736
0.755119
0.722581
0.677016
0.61727
0.546628
0.475626
0.426433
0.412193
0.434963
0.474979
0.497731
0.498317
0.48748
0.472604
0.452644
0.433957
0.421989
0.414638
0.408228
0.402062
0.399562
0.402214
0.817612
0.817281
0.816156
0.813883
0.810026
0.803973
0.794763
0.780818
0.759667
0.72823
0.683488
0.623884
0.552399
0.479831
0.429645
0.416571
0.44208
0.482168
0.502691
0.498228
0.485416
0.468747
0.448444
0.431273
0.420195
0.412927
0.406308
0.400747
0.39981
0.404938
0.817579
0.817417
0.816541
0.814593
0.811139
0.805604
0.79708
0.784021
0.763929
0.733585
0.689689
0.630264
0.557948
0.483768
0.432516
0.420764
0.448949
0.488843
0.505592
0.497635
0.482948
0.46482
0.444706
0.428847
0.418379
0.410932
0.404579
0.399957
0.401026
0.408643
0.817521
0.817506
0.816858
0.815214
0.812135
0.807075
0.799204
0.786995
0.767945
0.738696
0.695675
0.636472
0.563336
0.487507
0.435204
0.424726
0.455401
0.494839
0.506907
0.496589
0.480168
0.461003
0.441458
0.426712
0.416621
0.409104
0.403141
0.399836
0.403143
0.413044
0.81743
0.817545
0.817111
0.815748
0.81303
0.8084
0.801135
0.789711
0.771653
0.743481
0.701342
0.642384
0.568442
0.490844
0.437212
0.428369
0.460919
0.499014
0.507256
0.49511
0.477267
0.457355
0.438366
0.424079
0.414218
0.407078
0.401668
0.400256
0.406396
0.418321
0.817331
0.817536
0.817306
0.816205
0.813793
0.809665
0.803006
0.792396
0.775328
0.748254
0.707058
0.648434
0.573807
0.494847
0.43995
0.431981
0.465614
0.501406
0.507025
0.493194
0.474281
0.454099
0.435789
0.422401
0.413021
0.406088
0.401786
0.402395
0.41049
0.424017
0.817273
0.817496
0.81745
0.816628
0.814424
0.810457
0.804255
0.794378
0.778145
0.751974
0.71147
0.652876
0.577239
0.496336
0.440584
0.434172
0.469373
0.502962
0.506911
0.491722
0.471782
0.450683
0.433063
0.41987
0.41028
0.403114
0.399395
0.401913
0.412434
0.428665
0.817261
0.817454
0.81754
0.817063
0.815432
0.812061
0.806507
0.797538
0.782591
0.757975
0.719055
0.661336
0.584978
0.501842
0.443853
0.436481
0.471965
0.504126
0.50597
0.488846
0.467242
0.446163
0.429683
0.417479
0.408947
0.404108
0.403333
0.408555
0.420167
0.433012
0.487352
0.435986
0.357805
0.307793
0.313058
0.395086
0.492137
0.546861
0.57163
0.583604
0.588979
0.590681
0.590813
0.590856
0.591489
0.592816
0.595022
0.598209
0.602296
0.607058
0.612515
0.618463
0.624911
0.631496
0.638738
0.645713
0.654171
0.662246
0.673308
0.674315
0.49873
0.449345
0.37431
0.318102
0.32622
0.402494
0.497998
0.558605
0.58621
0.597069
0.600001
0.599074
0.596602
0.59433
0.59294
0.592565
0.593346
0.595308
0.598381
0.602453
0.607374
0.612915
0.619052
0.625435
0.63228
0.638925
0.646022
0.652156
0.659922
0.664486
0.491209
0.44788
0.393482
0.348752
0.358219
0.421422
0.508968
0.573633
0.605699
0.615956
0.615946
0.611514
0.605538
0.600134
0.596004
0.593316
0.592185
0.592504
0.59421
0.597204
0.601303
0.606291
0.612026
0.618261
0.624934
0.631744
0.638827
0.645672
0.653292
0.661081
0.459933
0.423507
0.39079
0.377071
0.393892
0.450374
0.526949
0.593761
0.631963
0.643057
0.639386
0.629883
0.618902
0.608983
0.601049
0.595242
0.591825
0.590294
0.590667
0.592656
0.596043
0.600614
0.606153
0.612451
0.619355
0.626681
0.634383
0.642247
0.650284
0.65828
0.411347
0.383476
0.367578
0.374277
0.408662
0.469176
0.539842
0.604375
0.648343
0.667084
0.665603
0.652946
0.636832
0.621452
0.608316
0.598742
0.592137
0.587647
0.586159
0.586675
0.589145
0.593142
0.59835
0.604536
0.611491
0.619015
0.626951
0.635145
0.643456
0.651703
0.366036
0.347864
0.337958
0.350418
0.390035
0.455151
0.532739
0.598708
0.644483
0.670835
0.678518
0.669791
0.652956
0.634268
0.616978
0.602706
0.591463
0.585156
0.581305
0.579104
0.579951
0.582889
0.587497
0.593374
0.600251
0.607899
0.616103
0.624693
0.633536
0.642416
0.341592
0.326772
0.316151
0.3272
0.361872
0.421756
0.495421
0.565481
0.620785
0.65706
0.673603
0.672643
0.65969
0.640772
0.620916
0.602932
0.588723
0.578375
0.571311
0.568987
0.568249
0.569742
0.573572
0.579085
0.585879
0.593669
0.602223
0.61133
0.620816
0.630387
0.339801
0.325954
0.31072
0.314927
0.339513
0.388642
0.453515
0.520122
0.577445
0.619409
0.644655
0.654933
0.652641
0.640183
0.62156
0.600834
0.581922
0.566668
0.556819
0.550871
0.548933
0.551145
0.554186
0.559677
0.566716
0.574959
0.584072
0.593794
0.603992
0.614339
0.354913
0.345865
0.325213
0.318115
0.329573
0.363051
0.414114
0.471329
0.524296
0.566485
0.595248
0.610837
0.615405
0.612239
0.602713
0.588622
0.571781
0.554473
0.539676
0.528906
0.523876
0.522411
0.525545
0.531884
0.538835
0.548111
0.558607
0.569606
0.581003
0.592465
0.373881
0.372245
0.351869
0.335516
0.333445
0.35049
0.384589
0.42699
0.469141
0.504953
0.531317
0.547729
0.555288
0.555846
0.551429
0.543767
0.534109
0.52326
0.511942
0.501319
0.493216
0.488794
0.489102
0.493034
0.500554
0.510749
0.522645
0.535556
0.548952
0.562279
0.386468
0.391884
0.377842
0.358722
0.346021
0.348697
0.365764
0.391067
0.418427
0.442858
0.461489
0.473441
0.479071
0.479386
0.475781
0.46984
0.463112
0.456662
0.451086
0.446533
0.443064
0.441061
0.441449
0.444758
0.451634
0.461776
0.474581
0.48925
0.504996
0.520946
0.393257
0.400858
0.393616
0.376177
0.359142
0.351927
0.354517
0.363648
0.3755
0.386481
0.394398
0.398238
0.397896
0.393855
0.387031
0.378694
0.370277
0.363255
0.358329
0.356583
0.357651
0.362208
0.368553
0.37536
0.384761
0.396999
0.411582
0.428278
0.446852
0.466123
0.396001
0.403039
0.399506
0.385003
0.367919
0.354961
0.346946
0.342947
0.34093
0.339059
0.335764
0.329976
0.321227
0.309768
0.296363
0.282133
0.268439
0.256695
0.248519
0.244506
0.245521
0.251684
0.262096
0.275489
0.290216
0.306989
0.326231
0.347244
0.369774
0.393375
0.394891
0.402089
0.400027
0.387506
0.371385
0.355418
0.340683
0.327369
0.314862
0.302498
0.28894
0.273463
0.255485
0.234976
0.212707
0.189979
0.168316
0.149336
0.134569
0.125027
0.121373
0.1243
0.133983
0.149753
0.169898
0.192616
0.217156
0.243525
0.271087
0.29978
0.389765
0.397573
0.396265
0.385309
0.370296
0.353245
0.335136
0.316613
0.298264
0.278684
0.256654
0.232064
0.204975
0.175141
0.143099
0.110511
0.0792515
0.0511991
0.0280474
0.0111282
0.00124222
-0.00124092
0.00394743
0.0166105
0.0361466
0.0613977
0.0907453
0.122847
0.156793
0.192151
0.380297
0.388412
0.388051
0.379125
0.365909
0.349579
0.330892
0.310223
0.288571
0.264635
0.237608
0.206964
0.172355
0.134134
0.0930844
0.0512391
0.0108299
-0.0260169
-0.0575113
-0.0823204
-0.0994573
-0.108202
-0.108693
-0.100611
-0.0845895
-0.0614373
-0.0323575
0.0012925
0.0383062
0.0775882
0.366268
0.375543
0.376332
0.370048
0.359683
0.345466
0.327901
0.308161
0.285538
0.259838
0.230581
0.196794
0.157722
0.113565
0.06593
0.0170667
-0.0304464
-0.0741857
-0.11229
-0.143541
-0.167174
-0.182569
-0.188993
-0.186611
-0.175736
-0.15696
-0.131121
-0.0994062
-0.0628387
-0.023089
0.34889
0.359496
0.361993
0.359425
0.352955
0.342023
0.328083
0.311264
0.290508
0.265794
0.236461
0.201717
0.161077
0.114291
0.0631779
0.010146
-0.0419596
-0.0904141
-0.133153
-0.16888
-0.196896
-0.21677
-0.228169
-0.231066
-0.225416
-0.211696
-0.190504
-0.162761
-0.129161
-0.0916987
0.329314
0.340658
0.346093
0.348529
0.347148
0.34152
0.332478
0.319215
0.30186
0.280199
0.25347
0.2208
0.181419
0.13526
0.0838981
0.0298056
-0.0241199
-0.0749937
-0.120545
-0.159285
-0.190408
-0.213465
-0.228174
-0.234659
-0.233098
-0.223618
-0.206718
-0.183094
-0.153213
-0.119034
0.308444
0.320533
0.330058
0.337948
0.34303
0.344067
0.339844
0.331394
0.318712
0.301491
0.279038
0.25048
0.214951
0.172314
0.123774