/*--------------------------------*- C++ -*----------------------------------*\
  =========                 |
  \\      /  F ield         | OpenFOAM: The Open Source CFD Toolbox
   \\    /   O peration     | Website:  https://openfoam.org
    \\  /    A nd           | Version:  11
     \\/     M anipulation  |
\*---------------------------------------------------------------------------*/
FoamFile
{
    format      ascii;
    class       volScalarField;
    location    "8";
    object      p;
}
// * * * * * * * * * * * * * * * * * * * * * * * * * * * * * * * * * * * * * //

dimensions      [0 2 -2 0 0 0 0];

internalField   nonuniform List<scalar> 
12600
(
0.250912
0.25081
0.250722
0.250645
0.250553
0.250435
0.250288
0.250113
0.249906
0.249664
0.24938
0.249049
0.248664
0.248216
0.247696
0.247092
0.24639
0.245574
0.244627
0.243528
0.242253
0.240769
0.239041
0.23703
0.234688
0.231962
0.228795
0.225117
0.220879
0.215937
0.250854
0.250802
0.250728
0.250652
0.250562
0.250447
0.250303
0.25013
0.249927
0.249687
0.249407
0.24908
0.2487
0.248259
0.247746
0.247151
0.24646
0.245654
0.244719
0.243636
0.242377
0.240912
0.239207
0.237221
0.234907
0.232211
0.229073
0.225424
0.221204
0.216321
0.250849
0.250821
0.25076
0.250681
0.250589
0.250476
0.250336
0.250168
0.249969
0.249735
0.249462
0.249143
0.248772
0.248341
0.247841
0.247261
0.246586
0.245802
0.244892
0.243837
0.24261
0.241183
0.239522
0.237584
0.235322
0.232683
0.229603
0.226014
0.221828
0.216987
0.250863
0.25084
0.250787
0.250713
0.250624
0.250515
0.250381
0.25022
0.250028
0.249803
0.24954
0.249233
0.248876
0.248461
0.24798
0.247421
0.246773
0.246021
0.245148
0.244134
0.242956
0.241585
0.239985
0.238119
0.235937
0.233386
0.230397
0.2269
0.222788
0.218006
0.250892
0.250873
0.250828
0.25076
0.250676
0.250572
0.250445
0.250291
0.250109
0.249895
0.249644
0.249353
0.249013
0.24862
0.248163
0.247633
0.247019
0.246307
0.245481
0.244521
0.243406
0.242107
0.240593
0.238822
0.236749
0.234316
0.231453
0.228085
0.224092
0.219415
0.250935
0.250919
0.250878
0.250817
0.250738
0.25064
0.250521
0.250377
0.250206
0.250005
0.249771
0.249497
0.24918
0.248812
0.248385
0.247891
0.247319
0.246655
0.245886
0.244994
0.243956
0.242748
0.241337
0.239687
0.237749
0.235467
0.23277
0.229575
0.22575
0.221229
0.250989
0.250975
0.250939
0.250884
0.250811
0.250721
0.250611
0.250478
0.25032
0.250135
0.249919
0.249668
0.249376
0.249037
0.248646
0.248193
0.247669
0.247063
0.24636
0.245546
0.244599
0.243498
0.242211
0.240704
0.23893
0.236835
0.234344
0.231372
0.227773
0.223473
0.251054
0.251042
0.25101
0.25096
0.250895
0.250813
0.250713
0.250593
0.25045
0.250283
0.250087
0.24986
0.249597
0.249292
0.24894
0.248534
0.248065
0.247522
0.246895
0.246169
0.245327
0.244347
0.243203
0.241861
0.24028
0.238406
0.236165
0.23347
0.230165
0.226166
0.251128
0.251117
0.251089
0.251046
0.250988
0.250915
0.250827
0.25072
0.250594
0.250446
0.250273
0.250073
0.249841
0.249574
0.249265
0.24891
0.248501
0.248029
0.247485
0.246857
0.246129
0.245284
0.244299
0.243145
0.241784
0.240165
0.238219
0.235861
0.232926
0.229325
0.25121
0.251201
0.251177
0.25114
0.25109
0.251027
0.250951
0.250859
0.25075
0.250623
0.250475
0.250303
0.250106
0.249878
0.249616
0.249316
0.248971
0.248575
0.248121
0.247597
0.246994
0.246296
0.245485
0.244537
0.24342
0.24209
0.240483
0.238521
0.236042
0.23295
0.251299
0.251292
0.251272
0.25124
0.251199
0.251147
0.251083
0.251006
0.250916
0.250811
0.250689
0.250548
0.250386
0.250201
0.249989
0.249746
0.24947
0.249154
0.248793
0.248381
0.247909
0.247367
0.246742
0.246016
0.245164
0.244151
0.242926
0.241418
0.239481
0.237017
0.251394
0.251388
0.251372
0.251347
0.251314
0.251273
0.251222
0.251162
0.251091
0.251009
0.250914
0.250805
0.25068
0.250539
0.250378
0.250196
0.249989
0.249756
0.249493
0.249196
0.248861
0.248482
0.248051
0.247557
0.246986
0.246314
0.245504
0.244502
0.243188
0.241471
0.251493
0.251489
0.251477
0.251459
0.251434
0.251404
0.251367
0.251323
0.251272
0.251214
0.251146
0.25107
0.250984
0.250887
0.250779
0.250658
0.250523
0.250375
0.250211
0.250031
0.249835
0.249621
0.249388
0.249134
0.248853
0.248536
0.248165
0.247708
0.247085
0.24622
0.251596
0.251593
0.251585
0.251573
0.251558
0.251539
0.251516
0.251489
0.251458
0.251423
0.251384
0.251341
0.251293
0.251242
0.251186
0.251127
0.251065
0.251001
0.250936
0.250874
0.250816
0.250767
0.250732
0.250717
0.250727
0.25077
0.250848
0.250955
0.251064
0.251126
0.2517
0.251699
0.251696
0.25169
0.251683
0.251675
0.251666
0.251656
0.251646
0.251635
0.251624
0.251614
0.251605
0.251598
0.251595
0.251597
0.251606
0.251626
0.251659
0.251711
0.251789
0.251902
0.252059
0.252277
0.252572
0.252965
0.253484
0.254153
0.255
0.256016
0.251806
0.251806
0.251807
0.251808
0.25181
0.251813
0.251818
0.251824
0.251834
0.251846
0.251864
0.251886
0.251915
0.251953
0.252001
0.252063
0.252142
0.252242
0.25237
0.252533
0.252741
0.253007
0.253347
0.253785
0.254347
0.255071
0.256005
0.257202
0.258751
0.260687
0.251912
0.251914
0.251918
0.251925
0.251936
0.25195
0.251968
0.251991
0.25202
0.252056
0.2521
0.252154
0.252221
0.252301
0.252399
0.252519
0.252664
0.252842
0.253059
0.253327
0.253657
0.254066
0.254575
0.255214
0.25602
0.25704
0.258344
0.26001
0.262179
0.264931
0.252016
0.252019
0.252028
0.252041
0.252059
0.252084
0.252115
0.252154
0.252202
0.25226
0.252331
0.252416
0.252518
0.25264
0.252785
0.252959
0.253168
0.253418
0.25372
0.254084
0.254526
0.255064
0.255726
0.256542
0.257559
0.258832
0.260445
0.262497
0.265162
0.268563
0.252118
0.252123
0.252135
0.252154
0.25218
0.252214
0.252258
0.252312
0.252378
0.252458
0.252554
0.252668
0.252803
0.252964
0.253155
0.25338
0.253648
0.253966
0.254344
0.254796
0.255338
0.255991
0.256783
0.257751
0.258941
0.260417
0.262267
0.264602
0.267612
0.271446
0.252217
0.252223
0.252238
0.252262
0.252296
0.252339
0.252395
0.252463
0.252546
0.252647
0.252766
0.252908
0.253075
0.253272
0.253505
0.253778
0.254099
0.254478
0.254926
0.255455
0.256085
0.256836
0.257738
0.258827
0.260151
0.261774
0.263785
0.266295
0.269487
0.273518
0.252311
0.252319
0.252337
0.252366
0.252406
0.252458
0.252524
0.252606
0.252705
0.252824
0.252966
0.253133
0.25333
0.253561
0.253831
0.254147
0.254518
0.254951
0.25546
0.256058
0.256762
0.257594
0.258583
0.259764
0.261183
0.2629
0.264996
0.267573
0.270791
0.274794
0.252401
0.252409
0.252429
0.252463
0.252509
0.252569
0.252645
0.252739
0.252853
0.25299
0.253151
0.253342
0.253565
0.253826
0.254131
0.254487
0.2549
0.255382
0.255944
0.256599
0.257365
0.258262
0.259318
0.260563
0.26204
0.263801
0.265914
0.268465
0.271572
0.275349
0.252484
0.252493
0.252516
0.252552
0.252603
0.252671
0.252756
0.252861
0.252989
0.253141
0.25332
0.253532
0.253779
0.254068
0.254403
0.254793
0.255244
0.255768
0.256374
0.257077
0.257893
0.25884
0.259942
0.261227
0.262731
0.264494
0.266569
0.269018
0.27191
0.275333
0.252562
0.252571
0.252595
0.252634
0.252689
0.252763
0.252856
0.252971
0.25311
0.253276
0.253472
0.253702
0.253971
0.254283
0.254645
0.255064
0.255548
0.256106
0.25675
0.257492
0.258346
0.259329
0.260462
0.261767
0.26327
0.265004
0.267002
0.269295
0.271913
0.274902
0.252632
0.252641
0.252665
0.252706
0.252765
0.252844
0.252944
0.253067
0.253216
0.253394
0.253604
0.25385
0.254137
0.254469
0.254854
0.255298
0.255809
0.256396
0.25707
0.257842
0.258725
0.259733
0.260883
0.262191
0.263677
0.26536
0.26725
0.269369
0.271686
0.274221
0.252696
0.252704
0.252727
0.252768
0.252829
0.252913
0.253019
0.25315
0.253307
0.253495
0.253717
0.253976
0.254278
0.254628
0.255031
0.255495
0.256028
0.256639
0.257336
0.25813
0.259034
0.260058
0.261215
0.262517
0.263974
0.265597
0.267376
0.269311
0.271335
0.273442
0.252754
0.25276
0.252778
0.252817
0.252881
0.252969
0.253079
0.253215
0.25338
0.253576
0.253807
0.254077
0.254391
0.254754
0.255173
0.255653
0.256203
0.256831
0.257546
0.258357
0.259274
0.260306
0.261463
0.262752
0.264177
0.265736
0.267414
0.269182
0.27095
0.272689
0.252809
0.252808
0.25282
0.252858
0.252924
0.253014
0.253127
0.253267
0.253437
0.253639
0.253877
0.254156
0.254478
0.254852
0.255281
0.255773
0.256335
0.256976
0.257703
0.258525
0.25945
0.260487
0.261641
0.262916
0.264311
0.265816
0.267405
0.269033
0.270603
0.272063
0.252864
0.252839
0.25284
0.252879
0.252949
0.253041
0.253157
0.2533
0.253473
0.25368
0.253923
0.254207
0.254536
0.254916
0.255352
0.255852
0.256422
0.257071
0.257805
0.258634
0.259563
0.260599
0.261747
0.263007
0.264377
0.265849
0.267387
0.268916
0.270357
0.271642
0.252948
0.252871
0.252852
0.252893
0.252965
0.253057
0.253174
0.253318
0.253493
0.253702
0.253948
0.254234
0.254566
0.254949
0.25539
0.255893
0.256467
0.257119
0.257857
0.258688
0.259618
0.260654
0.261798
0.263049
0.2644
0.265836
0.267328
0.268803
0.2702
0.271413
0.212164
0.210496
0.209299
0.208351
0.207369
0.20631
0.20523
0.204154
0.203078
0.201996
0.200903
0.199792
0.198656
0.197481
0.196253
0.194952
0.193555
0.192033
0.19035
0.188458
0.186293
0.183769
0.180765
0.177118
0.172554
0.166801
0.159054
0.148667
0.136356
0.104843
0.212991
0.211728
0.210643
0.209689
0.208722
0.207723
0.206738
0.205782
0.204844
0.203911
0.202975
0.202032
0.201072
0.200085
0.199059
0.197981
0.196831
0.19559
0.194228
0.192709
0.190984
0.188986
0.18662
0.183761
0.180191
0.175708
0.169598
0.161788
0.150808
0.12782
0.213439
0.212479
0.211642
0.210812
0.209972
0.20914
0.208332
0.207548
0.206774
0.206005
0.205236
0.204467
0.203692
0.202905
0.202098
0.201262
0.200384
0.199451
0.198442
0.197332
0.196085
0.194655
0.192973
0.190946
0.18841
0.185224
0.180792
0.175262
0.166352
0.150644
0.214442
0.213761
0.213171
0.212484
0.211766
0.211076
0.210418
0.209782
0.20916
0.208551
0.207958
0.207377
0.206805
0.20624
0.205676
0.205108
0.204531
0.203936
0.203313
0.202645
0.201912
0.201084
0.200116
0.198947
0.197456
0.195552
0.192745
0.189302
0.182719
0.173072
0.215873
0.215401
0.215007
0.214456
0.213865
0.213326
0.212835
0.21237
0.211924
0.211502
0.211106
0.210735
0.210388
0.210066
0.209769
0.209496
0.209246
0.209018
0.208809
0.208614
0.208425
0.208226
0.207995
0.207695
0.207246
0.206593
0.205347
0.203834
0.199613
0.194912
0.217734
0.217459
0.217263
0.216868
0.216425
0.216051
0.215736
0.215451
0.215191
0.214966
0.214779
0.214633
0.214529
0.214471
0.214463
0.214507
0.21461
0.214774
0.215004
0.215306
0.215679
0.216125
0.216637
0.217198
0.217762
0.218302
0.218517
0.218752
0.216756
0.215963
0.220063
0.219982
0.219987
0.219754
0.219468
0.219263
0.219131
0.219037
0.218978
0.218965
0.219005
0.219103
0.219262
0.219489
0.219789
0.220173
0.220647
0.221222
0.22191
0.22272
0.223666
0.224757
0.225999
0.227393
0.228918
0.230564
0.23211
0.233873
0.233862
0.236037
0.222902
0.223016
0.223222
0.223161
0.22304
0.223015
0.223078
0.223188
0.223342
0.223555
0.223837
0.224194
0.22463
0.225156
0.225781
0.226517
0.227376
0.228373
0.229523
0.230844
0.232355
0.234072
0.236014
0.23819
0.240596
0.243233
0.245941
0.248976
0.25065
0.254948
0.226286
0.226595
0.227004
0.22712
0.227174
0.227339
0.227606
0.227929
0.228307
0.228757
0.229291
0.229916
0.230641
0.231476
0.232433
0.233528
0.234775
0.236192
0.237799
0.239616
0.241668
0.243976
0.246563
0.249446
0.252629
0.256114
0.259786
0.263819
0.266844
0.272508
0.230238
0.23074
0.231346
0.231645
0.231883
0.232245
0.232721
0.233264
0.233873
0.234566
0.235357
0.236257
0.237272
0.238417
0.239706
0.241154
0.242779
0.244602
0.246643
0.248927
0.251477
0.254319
0.257476
0.260967
0.264798
0.268968
0.273385
0.278139
0.282175
0.288524
0.234755
0.235441
0.236235
0.236719
0.237145
0.237706
0.238393
0.239158
0.239998
0.240933
0.241981
0.24315
0.24445
0.245896
0.247503
0.249288
0.251269
0.253468
0.255906
0.258607
0.261595
0.264895
0.268527
0.272508
0.276841
0.281513
0.286444
0.291651
0.296345
0.302791
0.239791
0.240648
0.241612
0.242277
0.242893
0.243651
0.244544
0.245523
0.246587
0.247757
0.249049
0.250474
0.252043
0.253769
0.255669
0.25776
0.26006
0.26259
0.265371
0.268426
0.271775
0.27544
0.279438
0.283778
0.288454
0.293441
0.298657
0.304054
0.309037
0.3151
0.245248
0.246256
0.247364
0.248201
0.249002
0.249947
0.251032
0.252212
0.253484
0.25487
0.256385
0.258042
0.259851
0.261825
0.263981
0.266334
0.268904
0.271708
0.274765
0.278096
0.281718
0.285647
0.289892
0.294455
0.29932
0.304444
0.309739
0.315098
0.32005
0.325411
0.250966
0.252096
0.253318
0.25431
0.255282
0.256397
0.257653
0.25901
0.260465
0.262039
0.263747
0.265602
0.267612
0.269791
0.272154
0.274717
0.277496
0.280506
0.283765
0.287288
0.291089
0.295176
0.299553
0.304211
0.309123
0.314232
0.319439
0.324595
0.329321
0.33391
0.25672
0.25794
0.259241
0.260363
0.261486
0.262747
0.264144
0.265646
0.267251
0.268977
0.270839
0.272848
0.275013
0.277347
0.279863
0.282574
0.285496
0.288641
0.292023
0.295653
0.29954
0.303687
0.308089
0.312728
0.317567
0.322537
0.327529
0.332365
0.33673
0.340556
0.262238
0.263515
0.264859
0.266081
0.267326
0.268701
0.270205
0.271814
0.273529
0.275365
0.277336
0.279451
0.28172
0.284153
0.286763
0.289561
0.292559
0.295768
0.299197
0.302855
0.306743
0.310861
0.315195
0.31972
0.324389
0.329122
0.333801
0.338226
0.342106
0.345078
0.267232
0.268536
0.26989
0.271179
0.272511
0.273963
0.275534
0.27721
0.278991
0.280893
0.282925
0.285096
0.287416
0.289894
0.29254
0.295363
0.298374
0.30158
0.304988
0.308601
0.312418
0.316432
0.320622
0.324955
0.329376
0.333793
0.338074
0.342001
0.345288
0.347468
0.27144
0.272743
0.274083
0.275403
0.276784
0.278274
0.279873
0.281574
0.283379
0.2853
0.287347
0.289526
0.291847
0.294317
0.296945
0.299738
0.302704
0.305849
0.309175
0.312683
0.316366
0.320212
0.324195
0.328276
0.33239
0.336437
0.340276
0.343668
0.346347
0.34779
0.27467
0.275951
0.277257
0.278575
0.279964
0.281453
0.283043
0.284729
0.286516
0.288414
0.290431
0.292573
0.294848
0.297262
0.299823
0.302537
0.305409
0.308443
0.311639
0.314993
0.318497
0.322132
0.325869
0.329659
0.333431
0.337074
0.340444
0.343273
0.345354
0.345754
0.276839
0.278081
0.279341
0.280628
0.281987
0.283439
0.284984
0.28662
0.288353
0.29019
0.292139
0.294205
0.296394
0.298713
0.301167
0.303761
0.306498
0.30938
0.312404
0.315565
0.31885
0.322238
0.325693
0.329161
0.332565
0.33578
0.338661
0.340889
0.342402
0.341533
0.277982
0.279171
0.280376
0.281605
0.282901
0.284284
0.285754
0.28731
0.288957
0.2907
0.292546
0.294502
0.296571
0.298759
0.301071
0.303509
0.306076
0.308771
0.311589
0.314522
0.317555
0.320661
0.323801
0.326916
0.329923
0.332686
0.335067
0.336677
0.337673
0.335633
0.278222
0.279346
0.280488
0.281638
0.282843
0.28413
0.285501
0.286951
0.288483
0.290104
0.29182
0.293635
0.295554
0.297581
0.299718
0.301969
0.304333
0.306808
0.309388
0.312062
0.31481
0.317605
0.320402
0.323135
0.325717
0.327997
0.329846
0.330775
0.331186
0.327706
0.277763
0.278807
0.279875
0.280928
0.282021
0.283191
0.284442
0.285766
0.287163
0.288639
0.290201
0.291853
0.293598
0.295438
0.297376
0.299413
0.301548
0.303776
0.306089
0.308473
0.310908
0.313358
0.315777
0.31809
0.320203
0.321942
0.323184
0.323301
0.322951
0.317815
0.276841
0.277788
0.278768
0.27971
0.280677
0.281717
0.282832
0.284013
0.285257
0.286572
0.287962
0.289432
0.290982
0.292616
0.294334
0.296136
0.298018
0.299975
0.301996
0.304064
0.306154
0.308227
0.310229
0.312077
0.313666
0.314792
0.315343
0.314525
0.313282
0.306317
0.275678
0.276513
0.27739
0.278213
0.279047
0.279948
0.280919
0.281946
0.283028
0.28417
0.285377
0.286652
0.287995
0.289408
0.29089
0.292439
0.294051
0.295717
0.297423
0.29915
0.300868
0.302531
0.304078
0.305414
0.306422
0.306864
0.306639
0.304774
0.30253
0.293421
0.274472
0.275178
0.275934
0.27663
0.277328
0.278083
0.278899
0.279763
0.280672
0.281631
0.282645
0.283716
0.284843
0.286026
0.287263
0.288551
0.289881
0.291243
0.292621
0.29399
0.295314
0.296542
0.297603
0.298386
0.298763
0.298454
0.297367
0.294328
0.290959
0.27926
0.273373
0.273936
0.274559
0.275135
0.275709
0.276327
0.276992
0.277695
0.278434
0.279211
0.280031
0.280894
0.281799
0.282746
0.283731
0.284749
0.285789
0.286838
0.287876
0.288872
0.289784
0.290554
0.291098
0.291291
0.290985
0.289854
0.287813
0.283447
0.278826
0.264015
0.272506
0.272875
0.273313
0.27375
0.274194
0.27466
0.275152
0.275668
0.276223
0.276817
0.277445
0.278103
0.278792
0.27951
0.28025
0.281005
0.281763
0.282506
0.28321
0.283838
0.284342
0.284652
0.284673
0.284258
0.283242
0.28124
0.278176
0.272342
0.266418
0.247903
0.272105
0.272258
0.272503
0.272843
0.27323
0.273632
0.273987
0.274305
0.27466
0.27506
0.275483
0.275924
0.276385
0.276863
0.27735
0.277835
0.278304
0.278733
0.279094
0.279344
0.279426
0.279257
0.278729
0.277671
0.275895
0.272954
0.26878
0.261255
0.254127
0.231115
0.271623
0.271342
0.271315
0.271535
0.271784
0.271947
0.272073
0.272258
0.272491
0.27274
0.272994
0.273255
0.273524
0.273796
0.274061
0.274308
0.274519
0.274671
0.274728
0.274643
0.274351
0.273753
0.272726
0.271074
0.268577
0.264725
0.259518
0.249982
0.242402
0.21374
0.196595
0.179092
0.160597
0.14227
0.12486
0.108671
0.0942242
0.0819367
0.0726522
0.0668457
0.0651284
0.0684678
0.0771421
0.0916749
0.112633
0.138814
0.164433
0.183185
0.191413
0.190908
0.188556
0.188873
0.189494
0.188357
0.18679
0.185601
0.185406
0.181544
0.171151
0.156923
0.23156
0.216774
0.200516
0.184771
0.169666
0.155354
0.142275
0.130712
0.121031
0.113681
0.109271
0.1094
0.114155
0.122862
0.136464
0.154442
0.173416
0.187768
0.193776
0.190754
0.190343
0.19267
0.191456
0.190042
0.188203
0.184698
0.179932
0.172696
0.159785
0.144157
0.23887
0.225303
0.210529
0.195414
0.18056
0.166626
0.153594
0.141696
0.131324
0.123339
0.118581
0.1177
0.120949
0.128091
0.139372
0.153858
0.169514
0.180429
0.185321
0.186182
0.188501
0.191814
0.191835
0.191221
0.185651
0.176114
0.167498
0.162448
0.157641
0.15038
0.251455
0.239747
0.226347
0.212866
0.199728
0.186842
0.174073
0.161989
0.151309
0.142748
0.136956
0.134471
0.135625
0.140388
0.148532
0.159095
0.170085
0.178426
0.183299
0.185167
0.186
0.187144
0.187061
0.185317
0.178513
0.167678
0.159451
0.158251
0.167381
0.177879
0.257764
0.247409
0.235418
0.22335
0.211319
0.199099
0.186868
0.175199
0.164713
0.155981
0.149585
0.146083
0.145869
0.14897
0.155023
0.163094
0.171471
0.17828
0.182483
0.184338
0.184886
0.184511
0.182461
0.178306
0.171129
0.162986
0.159127
0.167261
0.187994
0.209745
0.262794
0.25381
0.243138
0.232211
0.221114
0.209619
0.197928
0.186559
0.176087
0.167069
0.160084
0.155685
0.154262
0.155867
0.160138
0.166226
0.172751
0.178196
0.181664
0.183131
0.183328
0.182767
0.180822
0.177105
0.171869
0.168484
0.172039
0.186189
0.207792
0.229605
0.266186
0.258323
0.248823
0.238975
0.228844
0.218184
0.207143
0.196196
0.185894
0.17678
0.169412
0.164327
0.161911
0.162246
0.165014
0.169452
0.174391
0.178577
0.181245
0.182297
0.182201
0.181376
0.179607
0.177256
0.175218
0.17621
0.183222
0.197418
0.214009
0.228926
0.268572
0.261702
0.253258
0.244377
0.2351
0.225184
0.214744
0.20422
0.194135
0.185007
0.177369
0.171739
0.168508
0.167786
0.169306
0.172389
0.176026
0.17916
0.181117
0.181777
0.181455
0.180484
0.178973
0.177467
0.177102
0.179685
0.186337
0.196686
0.206022
0.211966
0.270212
0.264197
0.256681
0.248667
0.240173
0.230956
0.221106
0.211019
0.201182
0.192088
0.184252
0.178179
0.174264
0.172643
0.173099
0.175035
0.177574
0.179804
0.181127
0.18141
0.180879
0.17984
0.178578
0.177668
0.178041
0.180559
0.185097
0.190462
0.192891
0.191146
0.271325
0.26605
0.259347
0.252106
0.244325
0.23576
0.226474
0.216823
0.207257
0.198243
0.190276
0.183851
0.179364
0.176977
0.17652
0.177472
0.179062
0.180497
0.181241
0.181153
0.180404
0.179286
0.178137
0.177459
0.177816
0.179361
0.181493
0.182626
0.179988
0.172461
0.272058
0.267406
0.261428
0.254879
0.247743
0.23978
0.231027
0.221799
0.212514
0.20361
0.195563
0.188857
0.18389
0.180845
0.179597
0.179695
0.180461
0.181192
0.181405
0.180956
0.179976
0.178732
0.177532
0.176734
0.17657
0.176801
0.176553
0.174235
0.167918
0.156561
0.272527
0.268427
0.263065
0.257128
0.250577
0.243167
0.234912
0.226091
0.217088
0.208315
0.200227
0.193295
0.18792
0.184305
0.182366
0.181716
0.181753
0.181853
0.181576
0.180773
0.179545
0.178112
0.176719
0.175563
0.174625
0.173444
0.171011
0.166025
0.157184
0.144097
0.272806
0.26918
0.264357
0.258963
0.252942
0.24604
0.238247
0.229815
0.221091
0.212461
0.20436
0.197247
0.191523
0.187411
0.184864
0.18355
0.182939
0.182467
0.18173
0.180579
0.179079
0.177398
0.175699
0.174036
0.172213
0.169652
0.165408
0.158526
0.148225
0.13492
0.272951
0.269736
0.265384
0.260472
0.254929
0.248491
0.241129
0.233062
0.22461
0.216131
0.208037
0.200778
0.194755
0.190205
0.187117
0.185212
0.184015
0.183021
0.181853
0.180356
0.178562
0.176583
0.174499
0.172249
0.169527
0.165733
0.160084
0.151955
0.140985
0.127975
0.273005
0.270147
0.266208
0.261723
0.256612
0.250599
0.243635
0.235911
0.227719
0.219392
0.211322
0.203944
0.197659
0.192722
0.189151
0.186711
0.184984
0.183508
0.181931
0.180092
0.177987
0.175674
0.173157
0.170294
0.166726
0.161899
0.155224
0.14637
0.13533
0.123108
0.272998
0.270455
0.266876
0.262771
0.258049
0.252424
0.245827
0.238424
0.23048
0.222304
0.214266
0.20679
0.200276
0.194991
0.190984
0.18806
0.185848
0.183925
0.181959
0.179781
0.177355
0.174684
0.171715
0.16825
0.163928
0.158279
0.150917
0.141758
0.131091
0.119963
0.272955
0.270688
0.267426
0.263659
0.259287
0.254018
0.247759
0.240654
0.232944
0.224914
0.216913
0.209355
0.202638
0.19704
0.192636
0.18927
0.186611
0.184271
0.181935
0.179424
0.176669
0.173631
0.17021
0.166183
0.161216
0.15495
0.147189
0.138052
0.128046
0.118137
0.272891
0.270869
0.267887
0.26442
0.260366
0.25542
0.249473
0.242645
0.235155
0.227263
0.219303
0.211673
0.204772
0.198889
0.194121
0.190349
0.187276
0.184547
0.181858
0.179021
0.175938
0.172533
0.168676
0.164141
0.158647
0.151948
0.144028
0.135152
0.125979
0.117322
0.272818
0.271016
0.26828
0.265082
0.261316
0.256666
0.251005
0.244434
0.237148
0.229387
0.221466
0.213773
0.206703
0.200557
0.195455
0.191306
0.18785
0.184755
0.18173
0.178576
0.17517
0.171406
0.167139
0.16216
0.156251
0.149283
0.141391
0.132941
0.124692
0.117261
0.272746
0.271141
0.268625
0.265669
0.262164
0.257784
0.252386
0.246052
0.238956
0.231316
0.223431
0.215678
0.208451
0.202061
0.196649
0.19215
0.188336
0.184898
0.181553
0.178094
0.174374
0.170267
0.165624
0.160266
0.154048
0.146952
0.139235
0.131322
0.124031
0.117758
0.272678
0.271255
0.268937
0.266198
0.262929
0.258796
0.253642
0.247527
0.240604
0.233075
0.225221
0.21741
0.210034
0.203416
0.197712
0.192887
0.188739
0.184977
0.181328
0.177576
0.173554
0.169121
0.164139
0.158466
0.152032
0.144916
0.137478
0.130156
0.123818
0.118587
0.272613
0.271361
0.269225
0.266685
0.263631
0.259723
0.254793
0.248881
0.242118
0.234687
0.226857
0.218986
0.211467
0.204633
0.198657
0.193527
0.189066
0.185002
0.181068
0.177039
0.172729
0.167994
0.162714
0.15679
0.150226
0.14319
0.136112
0.129408
0.123997
0.119634
0.272552
0.271462
0.2695
0.267144
0.264284
0.26058
0.255858
0.250134
0.243516
0.236172
0.228358
0.220422
0.212761
0.205717
0.199482
0.194064
0.189309
0.184958
0.180753
0.17646
0.171874
0.166854
0.161308
0.155182
0.14855
0.141654
0.134972
0.128869
0.124347
0.120625
0.272497
0.271557
0.269764
0.267582
0.264899
0.261384
0.256853
0.251302
0.244815
0.237546
0.22974
0.221738
0.213942
0.206702
0.200221
0.194533
0.189508
0.184895
0.180445
0.17591
0.171071
0.165797
0.160029
0.153758
0.147126
0.14044
0.134191
0.128676
0.12503
0.121556
0.272452
0.271654
0.270025
0.268006
0.265487
0.262143
0.257793
0.252403
0.246031
0.23882
0.230999
0.222909
0.214963
0.207525
0.200812
0.194865
0.189572
0.184703
0.180017
0.175245
0.170155
0.164637
0.15867
0.152288
0.145689
0.139236
0.133401
0.12841
0.125293
0.12222
0.272409
0.271755
0.270288
0.268425
0.266051
0.262865
0.258687
0.253453
0.2472
0.240056
0.23224
0.224072
0.215981
0.208341
0.2014
0.195239
0.18972
0.184628
0.179739
0.174765
0.169453
0.16372
0.157577
0.151121
0.144608
0.138438
0.133015
0.128543
0.12547
0.122286
0.272364
0.271858
0.270554
0.268851
0.266608
0.26355
0.259517
0.254396
0.2482
0.241055
0.233193
0.224938
0.216688
0.208824
0.201641
0.195258
0.189512
0.184208
0.179131
0.173964
0.168445
0.162528
0.156242
0.149739
0.143329
0.137465
0.132503
0.128494
0.125567
0.121429
0.272316
0.271944
0.270808
0.269292
0.267196
0.26433
0.260489
0.255527
0.249436
0.242324
0.234431
0.226101
0.217715
0.209677
0.202302
0.195712
0.189737
0.184218
0.17896
0.173591
0.167835
0.161695
0.15526
0.148709
0.142412
0.136856
0.132263
0.128648
0.125092
0.119082
0.272278
0.272009
0.271041
0.269572
0.26757
0.264817
0.261045
0.256129
0.25004
0.242875
0.234869
0.226385
0.217835
0.20963
0.202099
0.195369
0.189267
0.183618
0.178281
0.172815
0.166914
0.160642
0.154129
0.1476
0.141479
0.136255
0.132007
0.128638
0.124001
0.114445
0.272329
0.272134
0.271455
0.270253
0.268443
0.265886
0.262374
0.257701
0.25177
0.244648
0.23656
0.227886
0.219074
0.210559
0.202706
0.195671
0.189339
0.183449
0.177869
0.172113
0.165908
0.159363
0.152589
0.145994
0.140193
0.135444
0.131793
0.128
0.120495
0.107423
-0.0203002
-0.0128481
-0.00301036
0.0121346
0.0325661
0.0514951
0.0692002
0.0849354
0.0982233
0.109326
0.118536
0.12613
0.132328
0.137321
0.141287
0.144374
0.14671
0.148402
0.149539
0.150199
0.150452
0.150359
0.149991
0.14939
0.148665
0.147805
0.14709
0.146222
0.145894
0.143468
-0.018604
-0.0114782
-0.00596208
0.00484106
0.0237287
0.0443031
0.0625061
0.0792048
0.0936305
0.105725
0.115781
0.124127
0.130988
0.136567
0.141058
0.144622
0.147395
0.149487
0.150989
0.151976
0.152515
0.152657
0.15246
0.151952
0.151208
0.150201
0.149088
0.147682
0.146511
0.144826
-0.017261
-0.0105914
-0.00639613
-0.00204994
0.0122188
0.0332182
0.0530549
0.0711144
0.0869602
0.100356
0.111578
0.120975
0.128775
0.135182
0.140399
0.144605
0.147952
0.150565
0.152542
0.153962
0.154891
0.15538
0.155478
0.155217
0.154643
0.153766
0.152664
0.151292
0.149885
0.148387
-0.0180961
-0.0123121
-0.0085451
-0.00838613
0.00147852
0.0212843
0.0432929
0.0632025
0.0810216
0.0958777
0.108306
0.118756
0.127492
0.134722
0.140646
0.145448
0.149296
0.15234
0.154699
0.156464
0.157709
0.158492
0.158861
0.158856
0.158514
0.157862
0.156939
0.155751
0.154344
0.152797
-0.0233776
-0.0192567
-0.0172873
-0.0159818
-0.009419
0.00748227
0.0304805
0.0535874
0.0736145
0.0905737
0.104644
0.116319
0.126046
0.134139
0.140844
0.14633
0.150759
0.154298
0.157082
0.159222
0.160808
0.161907
0.162575
0.16285
0.16277
0.162359
0.161643
0.160645
0.159372
0.157947
-0.0338233
-0.0344499
-0.0333657
-0.0285539
-0.0216925
-0.00823394
0.0137084
0.0394026
0.0628489
0.0828199
0.0991881
0.112792
0.123882
0.132983
0.140564
0.146843
0.151985
0.156159
0.159498
0.162124
0.16414
0.16563
0.166657
0.167271
0.167509
0.1674
0.166966
0.166235
0.165208
0.164013
-0.0472023
-0.053099
-0.0526297
-0.0462347
-0.0369386
-0.024059
-0.00460206
0.0207064
0.0478155
0.0713499
0.0910598
0.107564
0.120806
0.131376
0.140046
0.147189
0.153078
0.157937
0.161903
0.165095
0.167625
0.169582
0.171039
0.172055
0.172675
0.172935
0.172859
0.172472
0.171776
0.170892
-0.0586721
-0.0686634
-0.0696242
-0.0652739
-0.0548454
-0.0404704
-0.0224194
0.000838497
0.0280407
0.0555676
0.0798952
0.0998998
0.116166
0.128937
0.139291
0.147588
0.154315
0.159862
0.164429
0.168179
0.171232
0.17368
0.175602
0.177064
0.178115
0.178797
0.179136
0.179161
0.178874
0.178392
-0.0626597
-0.0755325
-0.0799891
-0.0799957
-0.0713163
-0.0567748
-0.0392601
-0.0179069
0.00786342
0.0362526
0.0642324
0.0892173
0.109059
0.124949
0.137837
0.147855
0.155776
0.162188
0.167388
0.171656
0.175161
0.178034
0.180374
0.182252
0.183725
0.184836
0.185616
0.186096
0.186274
0.186273
-0.0571581
-0.0732181
-0.0820861
-0.0866094
-0.0819836
-0.0701625
-0.0540985
-0.034332
-0.0104165
0.0170777
0.0461794
0.0739765
0.0984962
0.119034
0.135206
0.147671
0.157372
0.165052
0.171092
0.17593
0.179833
0.183017
0.185638
0.187799
0.189574
0.191017
0.192169
0.193063
0.193696
0.194184
-0.0427102
-0.0623809
-0.0760721
-0.0845472
-0.0850516
-0.077572
-0.0646733
-0.0472584
-0.0255642
0.000137153
0.0286848
0.0578877
0.0855082
0.109771
0.129933
0.146114
0.158764
0.168416
0.1758
0.181461
0.185852
0.189315
0.192086
0.194335
0.196185
0.197724
0.199014
0.200111
0.201038
0.201901
-0.0202825
-0.0428658
-0.0607719
-0.0739799
-0.0797775
-0.0776665
-0.0689264
-0.054816
-0.0359392
-0.0126595
0.0142231
0.0430669
0.0718454
0.0987178
0.122393
0.142273
0.158328
0.170889
0.180485
0.187715
0.193128
0.197177
0.200218
0.202527
0.20431
0.205714
0.206843
0.207773
0.208563
0.209286
0.00705053
-0.0164961
-0.0374784
-0.054666
-0.0654619
-0.0688907
-0.0653709
-0.0557155
-0.0405146
-0.0203076
0.00405639
0.0311969
0.0594112
0.0870191
0.112618
0.135261
0.154489
0.170244
0.182768
0.19247
0.199819
0.205273
0.209243
0.212086
0.21411
0.215554
0.216585
0.217324
0.217856
0.218271
0.0344414
0.012905
-0.0086471
-0.0286987
-0.0434589
-0.0517549
-0.0534235
-0.0488049
-0.0383334
-0.022527
-0.0021242
0.0217719
0.0477089
0.0741262
0.099652
0.123263
0.144331
0.162557
0.177867
0.190385
0.200377
0.208157
0.214044
0.218362
0.221465
0.223673
0.225221
0.226301
0.227034
0.227633
0.0584302
0.040409
0.019839
-0.000501982
-0.0175208
-0.0295787
-0.0359396
-0.0364661
-0.0312794
-0.020772
-0.00557371
0.0134007
0.0350372
0.0581721
0.0816346
0.104388
0.125627
0.144817
0.161698
0.176193
0.188368
0.198414
0.206566
0.213068
0.218201
0.222136
0.225092
0.227284
0.228873
0.230084
0.076365
0.0622391
0.0444615
0.0254091
0.00770287
-0.00683477
-0.01735
-0.0232876
-0.0242165
-0.0203343
-0.0118476
0.0008048
0.0166459
0.0346628
0.0540316
0.0738926
0.0935316
0.112373
0.129984
0.146074
0.160472
0.173106
0.183964
0.193083
0.200656
0.206925
0.212098
0.216329
0.219802
0.222552
0.0865114
0.0766659
0.062141
0.0450221
0.027356
0.0108373
-0.00352609
-0.0144077
-0.0209814
-0.0237556
-0.0228685
-0.0183485
-0.010903
-0.000269057
0.013094
0.0281083
0.0443234
0.0611318
0.078065
0.0947608
0.110977
0.126409
0.140828
0.153516
0.164718
0.174501
0.183009
0.190502
0.196793
0.201669
0.0907686
0.0846762
0.0728364
0.0575714
0.0402127
0.0223196
0.00489341
-0.0113814
-0.0251898
-0.0358027
-0.0430224
-0.046349
-0.0461807
-0.0430991
-0.0374492
-0.0295043
-0.0195583
-0.00794069
0.00505883
0.0196047
0.0355634
0.0520137
0.06809
0.0844466
0.100425
0.115574
0.129712
0.142799
0.154165
0.163793
0.0913283
0.0886108
0.0787377
0.0649261
0.0477273
0.0286401
0.00866807
-0.0112831
-0.0304698
-0.0484004