/*--------------------------------*- C++ -*----------------------------------*\
  =========                 |
  \\      /  F ield         | OpenFOAM: The Open Source CFD Toolbox
   \\    /   O peration     | Website:  https://openfoam.org
    \\  /    A nd           | Version:  11
     \\/     M anipulation  |
\*---------------------------------------------------------------------------*/
FoamFile
{
    format      ascii;
    class       volScalarField;
    location    "8";
    object      p;
}
// * * * * * * * * * * * * * * * * * * * * * * * * * * * * * * * * * * * * * //

dimensions      [0 2 -2 0 0 0 0];

internalField   nonuniform List<scalar> 
12600
(
0.0978304
0.0976938
0.0976315
0.0976156
0.097603
0.0975856
0.0975671
0.0975494
0.0975323
0.0975154
0.0974981
0.0974803
0.0974619
0.0974427
0.0974225
0.0974009
0.0973776
0.097352
0.0973234
0.0972916
0.0972554
0.0972127
0.0971617
0.0971004
0.0970247
0.0969287
0.0968042
0.0966355
0.0964016
0.0960088
0.0977528
0.0976845
0.0976336
0.0976142
0.0976006
0.097584
0.097566
0.0975485
0.0975316
0.0975147
0.0974976
0.0974799
0.0974615
0.0974425
0.0974224
0.097401
0.0973779
0.0973526
0.0973244
0.0972931
0.0972575
0.0972158
0.0971665
0.0971066
0.0970325
0.0969385
0.0968205
0.0966623
0.0964876
0.0963265
0.0977178
0.0976856
0.0976414
0.0976159
0.0976006
0.0975848
0.0975672
0.0975497
0.0975327
0.097516
0.0974988
0.0974812
0.097463
0.097444
0.0974242
0.0974031
0.0973804
0.0973561
0.0973283
0.0972976
0.0972626
0.0972222
0.0971745
0.0971168
0.0970461
0.0969576
0.0968466
0.0967053
0.0965436
0.0963501
0.0976923
0.0976724
0.097638
0.0976126
0.0975969
0.097582
0.0975653
0.0975482
0.0975316
0.0975151
0.0974982
0.0974809
0.0974629
0.0974442
0.0974248
0.0974038
0.0973816
0.0973571
0.097331
0.0973012
0.0972676
0.0972291
0.0971838
0.0971295
0.0970634
0.0969814
0.096879
0.0967511
0.0965913
0.0963891
0.0976734
0.0976606
0.0976354
0.0976125
0.0975965
0.0975819
0.0975658
0.0975491
0.0975327
0.0975163
0.0974997
0.0974825
0.0974649
0.0974465
0.0974277
0.0974066
0.0973848
0.0973612
0.0973358
0.0973074
0.0972754
0.097239
0.0971967
0.0971464
0.0970857
0.0970114
0.0969188
0.0968035
0.096652
0.0964615
0.0976592
0.0976503
0.0976312
0.097611
0.0975947
0.0975802
0.0975647
0.0975485
0.0975323
0.0975161
0.0974997
0.0974828
0.0974653
0.0974471
0.0974278
0.0974084
0.0973873
0.0973647
0.0973403
0.0973133
0.0972833
0.0972494
0.0972105
0.0971649
0.0971106
0.0970448
0.0969634
0.0968623
0.096726
0.0965549
0.0976481
0.0976415
0.0976266
0.097609
0.0975933
0.0975791
0.0975643
0.0975487
0.0975329
0.0975169
0.0975008
0.0974842
0.0974671
0.0974494
0.0974307
0.0974116
0.0973912
0.0973695
0.0973462
0.0973209
0.097293
0.0972619
0.0972268
0.0971864
0.0971391
0.0970828
0.0970138
0.096929
0.0968128
0.0966684
0.0976393
0.0976342
0.0976222
0.0976069
0.0975921
0.0975781
0.0975638
0.0975487
0.0975331
0.0975174
0.0975015
0.0974852
0.0974684
0.097451
0.0974329
0.0974143
0.0973948
0.0973741
0.0973521
0.0973285
0.0973029
0.0972749
0.0972438
0.097209
0.0971693
0.0971232
0.0970679
0.0970014
0.0969093
0.0967975
0.0976324
0.0976282
0.0976182
0.0976048
0.0975909
0.0975773
0.0975634
0.0975487
0.0975335
0.0975181
0.0975025
0.0974865
0.0974701
0.0974532
0.0974357
0.0974177
0.097399
0.0973794
0.0973588
0.097337
0.0973138
0.097289
0.0972623
0.0972332
0.0972014
0.0971661
0.0971255
0.0970789
0.097014
0.0969397
0.0976269
0.0976234
0.0976148
0.0976029
0.0975898
0.0975766
0.0975631
0.0975488
0.097534
0.0975189
0.0975036
0.0974879
0.0974718
0.0974554
0.0974385
0.0974211
0.0974032
0.0973847
0.0973655
0.0973456
0.0973248
0.0973033
0.0972809
0.0972578
0.097234
0.0972098
0.0971843
0.0971587
0.0971234
0.09709
0.0976227
0.0976196
0.0976121
0.0976012
0.0975889
0.0975762
0.0975629
0.097549
0.0975346
0.0975198
0.0975047
0.0974893
0.0974737
0.0974577
0.0974414
0.0974247
0.0974077
0.0973903
0.0973726
0.0973545
0.0973362
0.0973179
0.0972998
0.0972826
0.0972668
0.0972536
0.0972434
0.0972391
0.0972347
0.0972443
0.0976196
0.0976168
0.09761
0.0975999
0.0975883
0.0975759
0.097563
0.0975494
0.0975352
0.0975207
0.0975059
0.0974909
0.0974756
0.0974601
0.0974444
0.0974284
0.0974123
0.097396
0.0973796
0.0973634
0.0973475
0.0973323
0.0973184
0.0973068
0.0972987
0.097296
0.0973008
0.0973175
0.097344
0.0973971
0.0976174
0.0976148
0.0976085
0.0975991
0.0975879
0.0975759
0.0975632
0.0975498
0.0975359
0.0975217
0.0975072
0.0974925
0.0974776
0.0974626
0.0974474
0.0974321
0.0974169
0.0974017
0.0973867
0.0973722
0.0973585
0.0973463
0.0973363
0.09733
0.097329
0.0973363
0.097355
0.0973915
0.0974478
0.0975431
0.0976161
0.0976137
0.0976076
0.0975986
0.0975878
0.097576
0.0975635
0.0975504
0.0975368
0.0975228
0.0975085
0.0974942
0.0974796
0.0974651
0.0974504
0.0974358
0.0974214
0.0974072
0.0973936
0.0973807
0.0973691
0.0973596
0.0973532
0.0973516
0.097357
0.097373
0.0974042
0.0974586
0.0975421
0.0976763
0.0976157
0.0976133
0.0976074
0.0975986
0.0975881
0.0975764
0.0975641
0.0975511
0.0975377
0.0975239
0.0975099
0.0974958
0.0974817
0.0974675
0.0974535
0.0974395
0.0974259
0.0974127
0.0974002
0.0973888
0.0973792
0.0973721
0.0973688
0.0973712
0.097382
0.0974055
0.0974471
0.0975165
0.0976233
0.097791
0.0976161
0.0976137
0.0976079
0.0975991
0.0975886
0.097577
0.0975648
0.097552
0.0975387
0.0975251
0.0975113
0.0974975
0.0974837
0.09747
0.0974564
0.0974431
0.0974302
0.0974179
0.0974065
0.0973965
0.0973885
0.0973834
0.0973827
0.0973884
0.0974035
0.0974327
0.0974824
0.0975632
0.0976881
0.0978819
0.0976173
0.0976149
0.0976089
0.0976
0.0975894
0.0975778
0.0975656
0.0975529
0.0975397
0.0975263
0.0975128
0.0974992
0.0974858
0.0974724
0.0974593
0.0974466
0.0974344
0.0974229
0.0974125
0.0974036
0.097397
0.0973936
0.0973949
0.097403
0.0974212
0.0974542
0.0975092
0.0975971
0.0977338
0.0979443
0.0976193
0.0976168
0.0976106
0.0976014
0.0975905
0.0975789
0.0975667
0.0975539
0.0975408
0.0975275
0.0975142
0.0975009
0.0974877
0.0974748
0.0974621
0.0974499
0.0974383
0.0974276
0.097418
0.0974101
0.0974046
0.0974025
0.0974051
0.0974148
0.0974347
0.0974696
0.0975267
0.0976172
0.0977585
0.097975
0.0976222
0.0976196
0.0976129
0.0976032
0.0975919
0.0975801
0.0975678
0.0975551
0.097542
0.0975288
0.0975156
0.0975026
0.0974897
0.097477
0.0974648
0.0974531
0.097442
0.0974319
0.0974231
0.097416
0.0974113
0.09741
0.0974135
0.0974238
0.097444
0.0974787
0.097535
0.0976233
0.0977616
0.0979723
0.0976261
0.0976231
0.0976158
0.0976053
0.0975935
0.0975815
0.0975691
0.0975563
0.0975432
0.09753
0.097517
0.0975042
0.0974915
0.0974792
0.0974673
0.097456
0.0974455
0.0974359
0.0974277
0.0974212
0.0974171
0.0974162
0.0974199
0.09743
0.0974493
0.0974819
0.0975343
0.0976158
0.0977435
0.0979366
0.097631
0.0976276
0.0976193
0.0976078
0.0975953
0.097583
0.0975705
0.0975575
0.0975444
0.0975313
0.0975184
0.0975057
0.0974933
0.0974812
0.0974697
0.0974588
0.0974487
0.0974396
0.0974318
0.0974257
0.0974219
0.0974212
0.0974246
0.0974337
0.0974509
0.0974796
0.0975254
0.0975958
0.0977058
0.0978702
0.0976371
0.0976331
0.0976234
0.0976105
0.0975973
0.0975847
0.0975719
0.0975588
0.0975455
0.0975325
0.0975197
0.0975072
0.097495
0.0974832
0.0974719
0.0974614
0.0974516
0.0974429
0.0974355
0.0974297
0.097426
0.0974251
0.0974277
0.0974352
0.0974494
0.0974728
0.0975096
0.0975654
0.0976518
0.0977782
0.0976447
0.0976397
0.0976281
0.0976133
0.0975993
0.0975864
0.0975735
0.09756
0.0975466
0.0975336
0.0975209
0.0975085
0.0974964
0.0974849
0.0974739
0.0974636
0.0974541
0.0974457
0.0974386
0.0974329
0.0974292
0.0974278
0.0974293
0.0974347
0.097445
0.0974619
0.0974881
0.0975267
0.0975852
0.0976666
0.097654
0.0976476
0.0976331
0.0976161
0.0976013
0.0975882
0.097575
0.0975613
0.0975477
0.0975347
0.0975221
0.0975099
0.097498
0.0974867
0.0974759
0.0974659
0.0974567
0.0974485
0.0974416
0.097436
0.097432
0.09743
0.0974303
0.0974332
0.0974391
0.0974489
0.0974634
0.0974831
0.0975114
0.0975444
0.0976656
0.0976569
0.0976382
0.0976187
0.0976034
0.0975901
0.0975763
0.0975622
0.0975485
0.0975354
0.0975229
0.0975107
0.097499
0.0974878
0.0974772
0.0974674
0.0974584
0.0974504
0.0974436
0.097438
0.0974338
0.0974311
0.0974299
0.0974302
0.0974316
0.0974339
0.0974363
0.097437
0.0974349
0.0974196
0.0976803
0.0976677
0.0976428
0.0976207
0.0976057
0.0975924
0.0975782
0.0975636
0.0975499
0.0975369
0.0975244
0.0975123
0.0975006
0.0974896
0.0974792
0.0974695
0.0974608
0.0974529
0.0974461
0.0974405
0.0974359
0.0974325
0.0974299
0.0974275
0.0974245
0.0974194
0.0974101
0.0973924
0.0973622
0.0973027
0.0976996
0.0976799
0.097646
0.0976214
0.0976066
0.0975931
0.0975783
0.0975635
0.0975497
0.0975368
0.0975243
0.0975123
0.0975008
0.09749
0.0974797
0.0974703
0.0974617
0.097454
0.0974473
0.0974416
0.0974368
0.0974327
0.0974289
0.0974241
0.0974171
0.0974052
0.097385
0.0973505
0.0972973
0.0972003
0.0977254
0.0976935
0.0976498
0.097625
0.0976107
0.0975962
0.0975805
0.0975654
0.0975515
0.0975385
0.097526
0.097514
0.0975025
0.0974917
0.0974815
0.0974722
0.0974637
0.097456
0.0974494
0.0974437
0.0974385
0.0974337
0.0974289
0.0974222
0.0974117
0.0973939
0.097364
0.0973141
0.097244
0.0971253
0.0977606
0.0976926
0.0976423
0.0976237
0.0976111
0.0975958
0.0975796
0.0975646
0.0975509
0.097538
0.0975256
0.0975137
0.0975024
0.0974917
0.0974817
0.0974725
0.0974641
0.0974566
0.0974501
0.0974443
0.0974393
0.0974344
0.0974287
0.0974206
0.0974076
0.0973853
0.0973472
0.0972828
0.0971909
0.0970831
0.0978384
0.0977019
0.0976403
0.0976252
0.0976136
0.0975975
0.0975808
0.0975657
0.0975519
0.097539
0.0975265
0.0975146
0.0975033
0.0974926
0.0974827
0.0974734
0.0974651
0.0974578
0.0974512
0.0974454
0.0974407
0.097436
0.0974296
0.0974208
0.0974065
0.097382
0.0973385
0.0972629
0.0971177
0.0968557
0.09627
0.0956399
0.095372
0.0954373
0.0954926
0.095453
0.095369
0.0952925
0.0952319
0.0951852
0.0951541
0.0951421
0.0951516
0.0951847
0.0952439
0.0953324
0.0954542
0.0956135
0.0958151
0.0960633
0.096362
0.096709
0.0971127
0.0974797
0.098022
0.0976035
0.0989341
0.0921138
0.097477
0.0499299
0.0967
0.0961258
0.0957709
0.0957487
0.0957335
0.0956623
0.0955772
0.0955119
0.0954751
0.0954568
0.0954551
0.0954737
0.0955159
0.0955841
0.0956818
0.0958135
0.0959844
0.0962004
0.0964683
0.0967957
0.0971902
0.0976584
0.098206
0.0988019
0.0995181
0.0997588
0.101003
0.0966024
0.100881
0.0620262
0.0962552
0.0959663
0.095794
0.0958061
0.0958152
0.0957663
0.0957169
0.0956914
0.0956873
0.0956978
0.0957246
0.0957735
0.0958485
0.0959529
0.0960909
0.0962681
0.0964909
0.096767
0.0971055
0.0975173
0.0980147
0.098611
0.0993193
0.100139
0.1011
0.101905
0.103324
0.101021
0.104706
0.0742183
0.0961982
0.0960947
0.0960274
0.0960103
0.0959943
0.0959599
0.0959342
0.0959321
0.0959505
0.0959861
0.0960418
0.0961228
0.0962328
0.0963758
0.096557
0.0967829
0.0970615
0.0974024
0.0978173
0.0983204
0.0989291
0.0996637
0.100547
0.1016
0.102849
0.104178
0.105952
0.105501
0.109029
0.086311
0.0962451
0.0962006
0.0961738
0.096158
0.0961492
0.0961446
0.0961525
0.0961793
0.096225
0.0962896
0.0963769
0.0964915
0.0966381
0.0968215
0.097048
0.0973255
0.0976634
0.0980733
0.0985697
0.0991704
0.099898
0.10078
0.101851
0.103149
0.104717
0.10655
0.108816
0.110002
0.113797
0.0982177
0.0963442
0.0963381
0.0963479
0.0963504
0.0963567
0.0963748
0.0964078
0.0964586
0.0965292
0.0966218
0.0967402
0.0968891
0.0970735
0.0972991
0.0975733
0.0979051
0.0983056
0.0987885
0.0993711
0.100075
0.100929
0.101968
0.103236
0.104792
0.106699
0.109029
0.111879
0.11453
0.118899
0.109807
0.0964789
0.0965002
0.0965357
0.0965552
0.0965777
0.0966172
0.0966755
0.0967525
0.0968505
0.096973
0.097124
0.0973085
0.0975322
0.0978017
0.0981256
0.0985141
0.0989801
0.0995396
0.100213
0.101026
0.102011
0.103213
0.104688
0.106511
0.108772
0.111597
0.115086
0.119049
0.124229
0.120912
0.0966375
0.0966814
0.0967392
0.0967775
0.096819
0.0968807
0.0969636
0.0970664
0.0971915
0.0973434
0.097527
0.0977476
0.0980113
0.098326
0.0987011
0.0991482
0.099682
0.100321
0.101088
0.102013
0.103136
0.104507
0.106195
0.108291
0.110912
0.114229
0.11838
0.123521
0.129687
0.131351
0.0968154
0.0968789
0.0969562
0.0970131
0.097074
0.0971572
0.0972636
0.0973917
0.097544
0.0977258
0.0979424
0.0981995
0.098504
0.0988646
0.0992918
0.0997988
0.100402
0.101122
0.101985
0.103025
0.104287
0.10583
0.107734
0.110105
0.113086
0.116887
0.121697
0.127892
0.135149
0.140961
0.0970063
0.0970874
0.0971822
0.0972573
0.0973375
0.0974417
0.0975711
0.097724
0.0979033
0.0981146
0.0983637
0.0986571
0.0990023
0.0994087
0.0998882
0.100455
0.101128
0.101929
0.102889
0.104044
0.105446
0.107161
0.109279
0.111922
0.115256
0.119522
0.124969
0.132095
0.140479
0.149595
0.0972054
0.0973018
0.0974119
0.0975043
0.0976032
0.0977276
0.0978788
0.0980555
0.0982608
0.0985007
0.0987815
0.0991103
0.0994952
0.0999466
0.100477
0.101104
0.101845
0.102726
0.103781
0.10505
0.106589
0.108472
0.110798
0.113703
0.117374
0.122079
0.128117
0.13605
0.145515
0.157047
0.0974055
0.097515
0.0976383
0.0977466
0.0978633
0.0980066
0.0981783
0.0983773
0.0986071
0.098874
0.0991849
0.0995473
0.0999701
0.100465
0.101044
0.101727
0.102534
0.103493
0.104638
0.106016
0.107686
0.109729
0.112252
0.115404
0.119387
0.124491
0.13106
0.139673
0.150081
0.163048
0.0975997
0.0977199
0.0978536
0.0979763
0.0981093
0.0982697
0.0984597
0.0986789
0.098931
0.0992226
0.0995611
0.0999543
0.100412
0.100946
0.101572
0.102307
0.103175
0.104205
0.105435
0.106913
0.108705
0.110894
0.113597
0.116972
0.121235
0.126691
0.133715
0.142875
0.154026
0.167591
0.0977796
0.0979079
0.0980494
0.0981842
0.0983314
0.0985066
0.0987123
0.0989488
0.0992203
0.0995334
0.0998958
0.100316
0.100804
0.101374
0.102039
0.102821
0.103743
0.104837
0.106142
0.10771
0.109608
0.111927
0.114788
0.118356
0.122858
0.128605
0.135997
0.145566
0.157252
0.171086
0.097937
0.0980706
0.098217
0.0983611
0.0985199
0.0987068
0.0989249
0.0991752
0.0994621
0.0997925
0.100174
0.100617
0.10113
0.101728
0.102427
0.103247
0.104215
0.105362
0.106729
0.108372
0.11036
0.112786
0.115776
0.119501
0.124192
0.130164
0.137826
0.147658
0.159683
0.17329
0.0980636
0.0981996
0.0983477
0.098498
0.098665
0.09886
0.0990865
0.0993462
0.0996438
0.0999863
0.100382
0.10084
0.101372
0.101991
0.102714
0.103564
0.104565
0.105752
0.107168
0.108867
0.110923
0.11343
0.116516
0.120354
0.125178
0.131299
0.139125
0.149069
0.161199
0.173881
0.0981522
0.0982874
0.0984341
0.098587
0.0987581
0.098957
0.0991871
0.0994511
0.0997538
0.100102
0.100505
0.100972
0.101513
0.102145
0.102883
0.103749
0.104772
0.105984
0.10743
0.109165
0.111264
0.113821
0.116966
0.12087
0.125765
0.131953
0.139829
0.149719
0.161651
0.173027
0.0981971
0.0983284
0.0984704
0.0986217
0.0987924
0.0989903
0.0992188
0.0994814
0.0997831
0.100131
0.100533
0.101
0.101543
0.102176
0.102917
0.103788
0.104817
0.106037
0.107493
0.109242
0.111355
0.11393
0.117092
0.121011
0.125912
0.13208
0.139885
0.149537
0.160967
0.170791
0.098195
0.0983189
0.0984531
0.0985985
0.0987637
0.0989553
0.0991767
0.0994316
0.0997254
0.100065
0.100459
0.100917
0.10145
0.102074
0.102806
0.103667
0.104686
0.105897
0.107343
0.109079
0.111179
0.113736
0.116873
0.120753
0.125592
0.131648
0.139258
0.148486
0.159243
0.167057
0.0981456
0.098259
0.098382
0.098517
0.0986715
0.0988512
0.0990594
0.0993002
0.0995789
0.0999025
0.100279
0.100719
0.101233
0.101836
0.102545
0.103383
0.104375
0.105557
0.10697
0.10867
0.110726
0.113229
0.116297
0.120085
0.124794
0.13065
0.13795
0.146579
0.156594
0.161679
0.0980515
0.098151
0.0982597
0.0983797
0.0985182
0.0986803
0.0988694
0.0990895
0.099346
0.0996456
0.0999964
0.100408
0.100892
0.101462
0.102136
0.102935
0.103885
0.105019
0.106379
0.108016
0.109999
0.112413
0.115371
0.119015
0.123529
0.129101
0.135986
0.143851
0.153074
0.154874
0.0979197
0.0980023
0.0980932
0.0981938
0.098311
0.0984501
0.0986142
0.0988071
0.0990341
0.0993018
0.0996181
0.0999924
0.100436
0.100962
0.101588
0.102334
0.103225
0.104293
0.105578
0.10713
0.109012
0.111305
0.114113
0.117564
0.121822
0.127026
0.133408
0.140349
0.148741
0.146874
0.0977589
0.0978214
0.0978911
0.0979681
0.0980593
0.0981702
0.0983039
0.0984637
0.0986547
0.0988833
0.0991572
0.0994853
0.0998784
0.10035
0.100915
0.101595
0.102412
0.103398
0.104589
0.106032
0.107787
0.109927
0.112548
0.115761
0.119708
0.124473
0.130279
0.136149
0.143671
0.137449
0.0975825
0.0976219
0.0976667
0.0977157
0.0977763
0.0978541
0.0979519
0.0980725
0.098221
0.0984037
0.0986277
0.0989015
0.0992355
0.0996421
0.100136
0.100737
0.101467
0.102355
0.103435
0.10475
0.106354
0.108316
0.110717
0.113652
0.117242
0.121507
0.12668
0.131331
0.137979
0.1266
0.0974034
0.0974168
0.0974323
0.0974496
0.0974772
0.0975196
0.0975778
0.0976546
0.0977549
0.0978851
0.098052
0.0982637
0.09853
0.0988627
0.099276
0.0997874
0.100418
0.101194
0.102148
0.103318
0.104753
0.106512
0.108668
0.111293
0.11449
0.118204
0.122703
0.125971
0.131804
0.114543
0.0972423
0.0972261
0.097203
0.0971808
0.0971708
0.0971738
0.097189
0.0972189
0.0972681
0.0973421
0.0974473
0.0975914
0.0977839
0.0980356
0.0983597
0.0987726
0.0992939
0.0999473
0.100762
0.101773
0.103023
0.104562
0.106451
0.108742
0.111516
0.114634
0.118437
0.120177
0.125258
0.101464
0.0971192
0.0970704
0.0970021
0.0969422
0.0968973
0.0968573
0.0968212
0.0967959
0.0967871
0.0967986
0.0968358
0.0969062
0.0970187
0.0971831
0.0974116
0.0977191
0.0981237
0.0986467
0.099314
0.100156
0.10121
0.102517
0.104124
0.106063
0.108396
0.110881
0.113989
0.114001
0.11846
0.0876087
0.0970796
0.0969381
0.0967785
0.0966806
0.0966176
0.0965504
0.0964723
0.0963964
0.0963301
0.0962767
0.0962423
0.0962349
0.0962626
0.0963339
0.0964599
0.0966544
0.0969338
0.0973174
0.0978279
0.0984918
0.0993396
0.100403
0.101718
0.10329
0.105174
0.10699
0.109442
0.107502
0.111583
0.0731754
0.0973565
0.0970344
0.0966983
0.0965131
0.096399
0.0962821
0.0961573
0.0960311
0.0959031
0.0957823
0.0956726
0.0955849
0.0955268
0.0955048
0.0955285
0.095611
0.0957669
0.0960129
0.0963686
0.0968557
0.0974985
0.0983195
0.0993427
0.100546
0.101982
0.103099
0.104962
0.100833
0.104771
0.0583698
0.0972094
0.0966797
0.0963859
0.0962915
0.0962259
0.0960964
0.0959232
0.0957333
0.095541
0.0953526
0.0951608
0.0949859
0.0948339
0.0947063
0.0946115
0.0945637
0.094577
0.0946667
0.0948492
0.0951423
0.0955646
0.096129
0.0968508
0.097672
0.0986746
0.099028
0.100473
0.0938293
0.0979455
0.043414
0.029999
0.0158858
-5.17436e-05
-0.0167642
-0.033532
-0.0501072
-0.0662492
-0.0816226
-0.095796
-0.108229
-0.118335
-0.125542
-0.129303
-0.129656
-0.127333
-0.123583
-0.11983
-0.11667
-0.114145
-0.112592
-0.111916
-0.1113
-0.110282
-0.109049
-0.107549
-0.105391
-0.102908
-0.100836
-0.0988985
-0.0974936
0.0908276
0.0803608
0.0688435
0.0573584
0.0453442
0.0324893
0.0190511
0.00528448
-0.00858792
-0.0222495
-0.0354235
-0.0479853
-0.0588707
-0.0674779
-0.0746402
-0.0803978
-0.0853789
-0.0902248
-0.0948732
-0.0992098
-0.103031
-0.105914
-0.107389
-0.106577
-0.102211
-0.0947507
-0.0873387
-0.0830255
-0.0823479
-0.0829167
0.0879311
0.0808013
0.0726558
0.0634708
0.0530542
0.0415189
0.0289629
0.0157428
0.00260366
-0.0100565
-0.0222245
-0.0335608
-0.043524
-0.0518238
-0.0585964
-0.0639858
-0.0684793
-0.0721772
-0.0752084
-0.0779763
-0.0798797
-0.0801039
-0.0785772
-0.0756054
-0.071912
-0.0691364
-0.0691843
-0.0721723
-0.0772264
-0.081859
0.0967662
0.0916702
0.0852133
0.0778796
0.0695978
0.0601517
0.0495523
0.0380422
0.0259008
0.0133613
0.000797332
-0.0112269
-0.0221485
-0.0315475
-0.0392676
-0.0453929
-0.0501895
-0.0537821
-0.0562337
-0.0576125
-0.0576874
-0.0563588
-0.0540536
-0.0515012
-0.0494309
-0.0481332
-0.0476733
-0.0475669
-0.0469981
-0.046132
0.0959363
0.0922131
0.0876484
0.0822465
0.0758141
0.0682273
0.0594482
0.0495134
0.0385782
0.0269461
0.0150322
0.00333646
-0.00759219
-0.0172441
-0.025293
-0.0316576
-0.0364255
-0.0396988
-0.0415383
-0.0420257
-0.0412255
-0.0393544
-0.0368211
-0.0340405
-0.0311899
-0.0281679
-0.0247245
-0.0206387
-0.0156414
-0.0103883
0.0962856
0.0935053
0.0899444
0.085521
0.0801413
0.0736781
0.0660416
0.0572171
0.0472974
0.0365159
0.0252407
0.0139551
0.00322564
-0.00638553
-0.0144546
-0.0207798
-0.0253507
-0.0282503
-0.0295394
-0.0293578
-0.0278809
-0.0253584
-0.0220779
-0.0182461
-0.0138995
-0.00895862
-0.00333425
0.00292559
0.00977939
0.0164899
0.0956782
0.0934747
0.0906366
0.0870822
0.0826624
0.0772355
0.0706861
0.0629517
0.0540595
0.0441668
0.0335869
0.0227871
0.0123482
0.00287569
-0.00512746
-0.0113606
-0.0157306
-0.0182711
-0.0191012
-0.0183386
-0.0162083
-0.01296
-0.00882475
-0.00395685
0.00157749
0.00772961
0.0143755
0.0212365
0.0280568
0.0338892
0.0951764
0.0933952
0.0910807
0.0881178
0.0843678
0.0796987
0.0739803
0.06712
0.0590976
0.0500098
0.0401146
0.0298443
0.0197727
0.0105317
0.00268478
-0.0033878
-0.00752286
-0.00972639
-0.0100922
-0.00877687
-0.00602014
-0.00207635
0.0028291
0.00851753
0.0148337
0.02158
0.0284591
0.035105
0.0412173
0.0459859
0.094689
0.0931802
0.0912131
0.0886838
0.0854668
0.0814021
0.0763531
0.0702145
0.0629324
0.0545579
0.0453008
0.0355553
0.025881
0.0169256
0.00929792
0.00344107
-0.0004266
-0.00227853
-0.00219387
-0.000359362
0.00296891
0.00752032
0.0130425
0.0192958
0.0260281
0.0329287
0.0396366
0.0458418
0.0512814
0.0554404
0.0943107
0.0929931
0.0912739
0.0890668
0.0862435
0.0826485
0.0781394
0.072597
0.0659449
0.0581991
0.0495257
0.0402811
0.0310059
0.0223551
0.0149722
0.00935112
0.00575513
0.00424514
0.0047468
0.00705086
0.0108778
0.0159278
0.0219032
0.0284982
0.0353886
0.0422132
0.048649
0.0544828
0.0594992
0.0634671
0.0940384
0.0928515
0.0913031
0.0893308
0.0868098
0.0835855
0.0795125
0.0744637
0.068347
0.0611499
0.0530019
0.0442242
0.0353353
0.0269916
0.0198623
0.0144837
0.0111569
0.00997584
0.0108631
0.0135879
0.0178407
0.0232837
0.0295702
0.0363417
0.0432376
0.0499026
0.056095
0.0616669
0.0664579
0.0704216
0.0938698
0.0927748
0.0913474
0.0895509
0.0872635
0.0843298
0.0806064
0.0759639
0.0702992
0.0635769
0.055896
0.0475457
0.0390221
0.030978
0.0241021
0.0189654
0.0159021
0.0150324
0.016272
0.0193669
0.0239738
0.0297141
0.0361973
0.0430322
0.0498533
0.0563464
0.0623394
0.0677008
0.072305
0.0761808
0.0937927
0.0927638
0.0914226
0.089758
0.0876516
0.0849486
0.0815068
0.0771995
0.0719163
0.0656038
0.0583355
0.0503724
0.0421879
0.0344292
0.0277988
0.0228966
0.0200864
0.0195067
0.0210643
0.0244808
0.0293771
0.035335
0.0419294
0.0487547
0.0554619
0.0617884
0.0675913
0.0727218
0.0770712
0.0806549
0.0937941
0.0928143
0.0915367
0.089973
0.0880073
0.085487
0.0822733
0.0782434
0.0732817
0.0673215
0.0604154
0.0527992
0.0449253
0.0374332
0.031036
0.0263568
0.0237837
0.0234726
0.0253169
0.0290108
0.0341401
0.0402515
0.046895
0.0536654
0.0602382
0.0663898
0.0719677
0.0768091
0.0808187
0.0838745
0.0938607
0.0929194
0.0916903
0.0902058
0.0883522
0.0859772
0.0829487
0.0791479
0.0744566
0.0687983
0.0622081
0.0549
0.0473069
0.04006
0.0338808
0.0294118
0.0270568
0.0269934
0.0290952
0.0330271
0.0383416
0.0445554
0.0512034
0.0578891
0.064311
0.0702614
0.0755584
0.0800563
0.0836144
0.0859272
0.09398
0.0930708
0.0918808
0.0904602
0.0886979
0.0864413
0.0835634
0.0799518
0.0754874
0.0700866
0.0637703
0.0567333
0.0493909
0.042366
0.0363864
0.0321094
0.0299611
0.0301235
0.032455
0.0365906
0.0420506
0.0483268
0.0549473
0.0615258
0.0677739
0.0734791
0.0784647
0.082587
0.0856029
0.0871958
0.094141
0.0932604
0.092104
0.0907367
0.0890502
0.0868933
0.0841391
0.0806841
0.0764095
0.0712273
0.0651464
0.0583455
0.0512239
0.0443968
0.038597
0.0344961
0.0325393
0.0329074
0.0354439
0.0397538
0.0453269
0.0516352
0.0582039
0.064657
0.0707077
0.0761488
0.080765
0.0844144
0.0866073
0.0874332
0.094333
0.0934805
0.0923549
0.0910342
0.0894114
0.087342
0.0846909
0.0813657
0.0772499
0.0722523
0.0663722
0.0597742
0.0528439
0.0461898
0.0405494
0.0366075
0.0348256
0.0353819
0.038103
0.042563
0.0482238
0.0545409
0.0610384
0.0673494
0.0731853
0.078326
0.0825082
0.0855602
0.086798
0.0865415
0.0945479
0.093724
0.0926283
0.0913507
0.0897839
0.0877762
0.085226
0.0820119
0.0780297
0.0731872
0.0674762
0.06105
0.0542822
0.0477757
0.0422736
0.0384733
0.0368501
0.037579
0.0404679
0.045059
0.0507882
0.057097
0.0635088
0.0696618
0.0752681
0.0800667
0.083742
0.0860655
0.0861917
0.0846582
0.0947798
0.093985
0.0929189
0.091683
0.0901704
0.0882289
0.0857532
0.0826344
0.0787653
0.0740523
0.0684821
0.0621983
0.0555646
0.04918
0.0437943
0.0401179
0.0386388
0.039527
0.04257
0.047278
0.0530625
0.0593505
0.0656663
0.0716516
0.0770094
0.0814158
0.0845075
0.0859707
0.0849624
0.0819777
0.0950229
0.0942581
0.0932225
0.092027
0.0905663
0.0886867
0.0862796
0.0832429
0.0794694
0.074864
0.0694093
0.0632404
0.0567127
0.0504239
0.0451321
0.0415616
0.0402128
0.0412499
0.0444361
0.0492514
0.0550847
0.0613456
0.067558
0.073374
0.0784578
0.0824116
0.0848382
0.08532
0.0831672
0.0789236
0.0952715
0.0945382
0.0935334
0.0923784
0.0909688
0.0891495
0.0868085
0.0838444
0.0801526
0.0756363
0.070274
0.064194
0.0577451
0.0515257
0.0463048
0.0428218
0.0415898
0.0427672
0.0460911
0.0510093
0.0568885
0.0631182
0.0692257
0.074873
0.0796536
0.0830889
0.0847798
0.0842282
0.0809803
0.0757808
0.0955228
0.0948203
0.093847
0.0927332
0.0913748
0.0896152
0.0873404
0.0844433
0.080823
0.0763804
0.0710904
0.0650746
0.0586772
0.0525002
0.0473274
0.043914
0.0427863
0.0440984
0.047559
0.0525804
0.0585069
0.0646925
0.0707163
0.0761933
0.0806138
0.0834779
0.0843869
0.0827978
0.078615
0.0727773
0.0957745
0.095104
0.094162
0.093089
0.0917821
0.090082
0.0878754
0.0850431
0.0814864
0.0771053
0.0718706
0.0658967
0.0595237
0.0533599
0.0482088
0.0448446
0.0438099
0.0452544
0.0488538
0.0539834
0.0599651
0.0661205
0.0720828
0.0773667
0.0813771
0.0836234
0.0837244
0.0811272
0.0761946
0.0700595
0.0960215
0.0953866
0.0944767
0.0934434
0.0921875
0.0905484
0.0884007
0.085644
0.0821477
0.0778176
0.0726228
0.0666707
0.0602981
0.0541216
0.0489708
0.0456348
0.044681
0.0462574
0.0499983
0.0552459
0.0612897
0.0674034
0.0733244
0.0783958
0.0819486
0.0835502
0.0828306
0.0792701
0.0737987
0.0676581
0.0962503
0.0956649
0.0947909
0.0937965
0.0925893
0.0910125
0.0889358
0.0862463
0.0828138
0.0785292
0.0733598
0.0674062
0.0610053
0.0547817
0.0496142
0.0462988
0.045415
0.0471258
0.0510171
0.0563887
0.0625287
0.0687537
0.0745346
0.0793246
0.0823766
0.0833148
0.0817657
0.0772978
0.0713987
0.0654515
0.0964602
0.0959306
0.0950978
0.0941488
0.0929892
0.0914728
0.0894686
0.0868381
0.0834651
0.0792239
0.0740741
0.0681035
0.0616486
0.055342
0.0500376
0.0467506
0.0459577
0.0478232
0.0518931
0.0574101
0.0635733
0.0697809
0.0755862
0.0800831
0.0826215
0.0829069
0.0805562
0.0752293
0.0688242
0.0634137
0.0966477
0.0961599
0.0953851
0.0944936
0.0933879
0.0919401
0.090038
0.0875356
0.0842176
0.0800163
0.0748788
0.0688798
0.0623598
0.0560188
0.050714
0.0472038
0.046448
0.0484562
0.0527207
0.0584788
0.0648855
0.0711556
0.0767798
0.080883
0.0828158
0.0823344
0.0790562
0.0728902
0.0663673
0.0620717
0.0968491
0.0963679
0.0956429
0.0947749
0.0936873
0.0922654
0.0903688
0.0878855
0.0846701
0.0805254
0.0753483
0.0692642
0.0626194
0.0561669
0.0507675
0.0473917
0.0467226
0.0488803
0.0532851
0.0590562
0.0653291
0.071808
0.0775463
0.0813213
0.0828295
0.0823586
0.0778312
0.0703882
0.0636644
0.0603453
0.0971106
0.0966484
0.0960494
0.0952798
0.0942872
0.0929885
0.091248
0.0889003
0.0857948
0.0817457
0.0766236
0.0704488
0.0636089
0.0568794
0.0511801
0.0475766
0.046972
0.0493994
0.0542588
0.0605111
0.0672389
0.0737217
0.0789212
0.0821496
0.082675
0.0802851
0.0744357
0.0669697
0.0617929
0.0600491
0.0200834
0.0414351
0.0554737
0.0590321
0.0631964
0.0629998
0.0636348
0.0657038
0.0682125
0.0707792
0.0731478
0.0752541
0.0770452
0.0785748
0.0798343
0.0808821
0.0817471
0.0824629
0.0830544
0.083553
0.0839856
0.0843533
0.0847117
0.0850083
0.0854186
0.0857357
0.0863101
0.086716
0.0877948
0.0867826
0.0181663
0.0399522
0.055932
0.0608335
0.0632249
0.062692
0.0624729
0.0642326
0.0666936
0.0693195
0.0718047
0.0740395
0.0759702
0.0776259
0.0790138
0.0801757
0.0811464
0.0819561
0.0826337
0.0832029
0.0836958
0.0841144
0.0845106
0.0848378
0.0851987
0.0854775
0.0858644
0.0860227
0.0864831
0.086108
0.0169701
0.0372967
0.0559379
0.0638609
0.0630071
0.0624549
0.0612107
0.062412
0.0647528
0.0674385
0.0700756
0.0724799
0.0745989
0.0764378
0.0780019
0.0793241
0.0804401
0.0813786
0.0821675
0.0828313
0.0833988
0.0838809
0.0843115
0.0846818
0.08503
0.085314
0.0856348
0.0858687
0.0861967
0.0864039
0.015775
0.0349983
0.0557432
0.0669071
0.063978
0.0617961
0.0599748
0.0605315
0.0627869
0.0656617
0.0685517
0.0711845
0.0735213
0.0755617
0.0773026
0.0787748
0.0800177
0.0810621
0.0819369
0.082669
0.0832865
0.0838081
0.0842604
0.0846554
0.0850208
0.0853506
0.0856966
0.0860236
0.0863967
0.0867299
0.0137248
0.0324569
0.0549806
0.0691391
0.0664304
0.0603584
0.0586098
0.0585207
0.0605322
0.0636508
0.0668829
0.0697893
0.0723644
0.0746276
0.0765616
0.0781942
0.0795717
0.0807284
0.0816948
0.0825001
0.0831731
0.0837368
0.0842158
0.0846287
0.0849999
0.0853383
0.0856686
0.0859887
0.0863201
0.0866522
0.0105763
0.0287824
0.05269
0.0707277
0.0693153
0.0595946
0.0564714
0.0560069
0.0575775
0.0609896
0.0647208
0.0679905
0.0708501
0.0733842
0.0755605
0.0773972
0.078948
0.0802526
0.0813427
0.0822496
0.0830028
0.0836277
0.0841486
0.0845864
0.0849629
0.0852944
0.0855995
0.0858916
0.0861801
0.0865102
0.00640379
0.0240845
0.0489455
0.0707735
0.0721202
0.0600085
0.0530416
0.052817
0.0538191
0.0574448
0.0619151
0.0657257
0.0689525
0.0718219
0.0743017
0.0763941
0.0781612
0.0796507
0.0808969
0.0819333
0.0827911
0.0834975
0.0840775
0.0845542
0.0849499
0.0852848
0.0855782
0.0858507
0.0861057
0.0864063
0.0010357
0.0181375
0.0434599
0.0681622
0.0740068
0.0612103
0.0496105
0.04814
0.0492044
0.0528283
0.0583086
0.0629253
0.066642
0.0699196
0.0727669
0.0751673
0.0771924
0.0789022
0.0803355
0.0815291
0.0825169
0.0833276
0.0839876
0.0845211
0.0849514
0.0853004
0.0855885
0.0858395
0.0860559
0.0863104
-0.00562587
0.0107505
0.0359452
0.0631193
0.073357
0.0625481
0.0467765
0.0417544
0.0432917
0.0468485
0.0535612
0.0593771
0.0637933
0.0675758
0.0708645
0.0736338
0.0759651
0.077936
0.079593
0.0809771
0.0821258
0.0830701
0.0838373
0.084452
0.0849376
0.0853165
0.0856097
0.0858435
0.0860214
0.0862263
-0.0137856
0.00147699
0.0264829
0.0551687
0.0695888
0.0624283
0.0444864
0.0346589
0.0354101
0.0393297
0.0470176
0.0546448
0.0601689
0.0646379
0.0684755
0.0716907
0.0743853
0.0766631
0.0785841
0.0801958