/*--------------------------------*- C++ -*----------------------------------*\
  =========                 |
  \\      /  F ield         | OpenFOAM: The Open Source CFD Toolbox
   \\    /   O peration     | Website:  https://openfoam.org
    \\  /    A nd           | Version:  11
     \\/     M anipulation  |
\*---------------------------------------------------------------------------*/
FoamFile
{
    format      ascii;
    class       surfaceScalarField;
    location    "8";
    object      phi;
}
// * * * * * * * * * * * * * * * * * * * * * * * * * * * * * * * * * * * * * //

dimensions      [0 3 -1 0 0 0 0];

internalField   nonuniform List<scalar> 
24840
(
1.92421e-05
6.01172e-09
1.92342e-05
7.92819e-09
1.92275e-05
6.73957e-09
1.92216e-05
5.87701e-09
1.92166e-05
5.00357e-09
1.92124e-05
4.22264e-09
1.92089e-05
3.40477e-09
1.92065e-05
2.41368e-09
1.92053e-05
1.18905e-09
1.92057e-05
-3.40385e-10
1.9208e-05
-2.28049e-09
1.92127e-05
-4.76371e-09
1.92207e-05
-7.92626e-09
1.92326e-05
-1.19099e-08
1.92494e-05
-1.68208e-08
1.92722e-05
-2.2859e-08
1.93024e-05
-3.01915e-08
1.93413e-05
-3.8883e-08
1.93905e-05
-4.91477e-08
1.94518e-05
-6.13058e-08
1.95274e-05
-7.55802e-08
1.96197e-05
-9.23062e-08
1.97317e-05
-1.1203e-07
1.98669e-05
-1.35177e-07
2.0029e-05
-1.6212e-07
2.0222e-05
-1.92991e-07
2.04507e-05
-2.28679e-07
2.07165e-05
-2.65882e-07
2.10362e-05
-3.19647e-07
-3.20011e-07
2.13562e-05
1.92529e-05
1.25621e-09
1.92588e-05
1.99286e-09
1.92656e-05
-8.6003e-11
1.92739e-05
-2.33894e-09
1.92826e-05
-3.72872e-09
1.92917e-05
-4.92642e-09
1.93016e-05
-6.40213e-09
1.93122e-05
-8.21939e-09
1.93238e-05
-1.04686e-08
1.93368e-05
-1.32845e-08
1.93513e-05
-1.68302e-08
1.93679e-05
-2.13328e-08
1.9387e-05
-2.70269e-08
1.94092e-05
-3.41502e-08
1.94354e-05
-4.29633e-08
1.94662e-05
-5.36868e-08
1.95027e-05
-6.66904e-08
1.95464e-05
-8.25184e-08
1.95988e-05
-1.01559e-07
1.96616e-05
-1.24178e-07
1.97374e-05
-1.51327e-07
1.98292e-05
-1.84142e-07
1.99403e-05
-2.23133e-07
2.00737e-05
-2.6853e-07
2.02323e-05
-3.20789e-07
2.04198e-05
-3.80483e-07
2.064e-05
-4.48835e-07
2.08973e-05
-5.23165e-07
2.11954e-05
-6.17735e-07
-6.52054e-07
2.15274e-05
1.92505e-05
-1.08923e-09
1.92556e-05
-3.12228e-09
1.92617e-05
-6.1544e-09
1.92687e-05
-9.3428e-09
1.92768e-05
-1.18358e-08
1.92858e-05
-1.39122e-08
1.92955e-05
-1.61206e-08
1.9306e-05
-1.87031e-08
1.93173e-05
-2.18576e-08
1.93299e-05
-2.57856e-08
1.93438e-05
-3.07471e-08
1.93595e-05
-3.70755e-08
1.93776e-05
-4.51325e-08
1.93988e-05
-5.52942e-08
1.94238e-05
-6.79648e-08
1.94536e-05
-8.35752e-08
1.94896e-05
-1.02655e-07
1.9533e-05
-1.25881e-07
1.95853e-05
-1.53875e-07
1.96484e-05
-1.87253e-07
1.97241e-05
-2.27062e-07
1.98146e-05
-2.74603e-07
1.99223e-05
-3.30884e-07
2.00505e-05
-3.96709e-07
2.02028e-05
-4.73064e-07
2.03832e-05
-5.60933e-07
2.05965e-05
-6.62084e-07
2.08468e-05
-7.7352e-07
2.11403e-05
-9.11225e-07
-9.9497e-07
2.14832e-05
1.92499e-05
-2.84385e-09
1.92543e-05
-7.50056e-09
1.926e-05
-1.18791e-08
1.92666e-05
-1.59745e-08
1.92742e-05
-1.94308e-08
1.92827e-05
-2.24112e-08
1.9292e-05
-2.53904e-08
1.9302e-05
-2.87442e-08
1.93129e-05
-3.27624e-08
1.93249e-05
-3.77461e-08
1.93382e-05
-4.4048e-08
1.93532e-05
-5.20933e-08
1.93704e-05
-6.23677e-08
1.93905e-05
-7.53958e-08
1.94143e-05
-9.17392e-08
1.94427e-05
-1.12002e-07
1.9477e-05
-1.36858e-07
1.95181e-05
-1.67079e-07
1.95678e-05
-2.03487e-07
1.96275e-05
-2.47021e-07
1.96994e-05
-2.98926e-07
1.97854e-05
-3.60626e-07
1.9888e-05
-4.33478e-07
2.00102e-05
-5.18876e-07
2.01556e-05
-6.18475e-07
2.03285e-05
-7.33889e-07
2.05339e-05
-8.67489e-07
2.07775e-05
-1.01705e-06
2.10645e-05
-1.19826e-06
-1.33781e-06
2.14074e-05
1.92495e-05
-4.23528e-09
1.92532e-05
-1.11829e-08
1.92584e-05
-1.70713e-08
1.92646e-05
-2.21931e-08
1.92718e-05
-2.65664e-08
1.92797e-05
-3.03996e-08
1.92885e-05
-3.41403e-08
1.9298e-05
-3.82351e-08
1.93083e-05
-4.3065e-08
1.93196e-05
-4.90209e-08
1.93321e-05
-5.65632e-08
1.93462e-05
-6.62207e-08
1.93624e-05
-7.85854e-08
1.93813e-05
-9.43005e-08
1.94036e-05
-1.14059e-07
1.94303e-05
-1.38608e-07
1.94622e-05
-1.68763e-07
1.95005e-05
-2.0544e-07
1.95467e-05
-2.49661e-07
1.96023e-05
-3.02593e-07
1.9669e-05
-3.6565e-07
1.97488e-05
-4.40487e-07
1.98443e-05
-5.28904e-07
1.99583e-05
-6.32882e-07
2.00945e-05
-7.54712e-07
2.02574e-05
-8.96746e-07
2.0452e-05
-1.06211e-06
2.06849e-05
-1.25e-06
2.09619e-05
-1.47517e-06
-1.67375e-06
2.12978e-05
1.92493e-05
-5.41194e-09
1.92525e-05
-1.43951e-08
1.92572e-05
-2.17894e-08
1.9263e-05
-2.79774e-08
1.92697e-05
-3.32195e-08
1.92771e-05
-3.78325e-08
1.92852e-05
-4.22769e-08
1.92941e-05
-4.70535e-08
1.93036e-05
-5.2636e-08
1.93141e-05
-5.95003e-08
1.93257e-05
-6.81811e-08
1.93388e-05
-7.92935e-08
1.93538e-05
-9.35334e-08
1.93711e-05
-1.11664e-07
1.93916e-05
-1.34503e-07
1.94159e-05
-1.62924e-07
1.9445e-05
-1.97872e-07
1.94799e-05
-2.40391e-07
1.95219e-05
-2.91661e-07
1.95724e-05
-3.53043e-07
1.96329e-05
-4.26164e-07
1.97054e-05
-5.12953e-07
1.97921e-05
-6.15621e-07
1.98959e-05
-7.36705e-07
2.00204e-05
-8.79189e-07
2.017e-05
-1.04633e-06
2.03501e-05
-1.24221e-06
2.0568e-05
-1.4679e-06
2.08302e-05
-1.73735e-06
-1.9984e-06
2.11548e-05
1.92492e-05
-6.4445e-09
1.9252e-05
-1.72279e-08
1.92562e-05
-2.60271e-08
1.92615e-05
-3.32533e-08
1.92676e-05
-3.9311e-08
1.92744e-05
-4.46288e-08
1.92818e-05
-4.97134e-08
1.92899e-05
-5.51153e-08
1.92986e-05
-6.13782e-08
1.93082e-05
-6.90496e-08
1.93187e-05
-7.87332e-08
1.93306e-05
-9.11258e-08
1.93441e-05
-1.07018e-07
1.93597e-05
-1.27277e-07
1.9378e-05
-1.52825e-07
1.93997e-05
-1.84642e-07
1.94256e-05
-2.23778e-07
1.94566e-05
-2.71394e-07
1.94938e-05
-3.28808e-07
1.95383e-05
-3.97552e-07
1.95916e-05
-4.79457e-07
1.96553e-05
-5.76719e-07
1.97317e-05
-6.91945e-07
1.98232e-05
-8.28234e-07
1.99333e-05
-9.89306e-07
2.00664e-05
-1.17942e-06
2.0228e-05
-1.40384e-06
2.04261e-05
-1.66594e-06
2.06678e-05
-1.97912e-06
-2.3056e-06
2.0975e-05
1.9249e-05
-7.35508e-09
1.92515e-05
-1.9722e-08
1.92553e-05
-2.97914e-08
1.926e-05
-3.79876e-08
1.92655e-05
-4.48011e-08
1.92716e-05
-5.0751e-08
1.92783e-05
-5.64002e-08
1.92856e-05
-6.23498e-08
1.92934e-05
-6.92063e-08
1.93019e-05
-7.75769e-08
1.93113e-05
-8.81188e-08
1.93218e-05
-1.01594e-07
1.93336e-05
-1.18879e-07
1.93473e-05
-1.40932e-07
1.93632e-05
-1.68765e-07
1.9382e-05
-2.03443e-07
1.94044e-05
-2.46099e-07
1.94309e-05
-2.97987e-07
1.94627e-05
-3.60533e-07
1.95005e-05
-4.3541e-07
1.95457e-05
-5.24626e-07
1.95996e-05
-6.30623e-07
1.9664e-05
-7.56375e-07
1.97413e-05
-9.05515e-07
1.98345e-05
-1.08251e-06
1.99478e-05
-1.29268e-06
2.00866e-05
-1.54265e-06
2.02591e-05
-1.83849e-06
2.04735e-05
-2.19344e-06
-2.58679e-06
2.07546e-05
1.92489e-05
-8.15039e-09
1.92511e-05
-2.18961e-08
1.92544e-05
-3.30864e-08
1.92586e-05
-4.21559e-08
1.92634e-05
-4.96487e-08
1.92688e-05
-5.61509e-08
1.92747e-05
-6.22812e-08
1.9281e-05
-6.86927e-08
1.92879e-05
-7.60462e-08
1.92953e-05
-8.49932e-08
1.93034e-05
-9.62307e-08
1.93124e-05
-1.10576e-07
1.93225e-05
-1.28978e-07
1.9334e-05
-1.52471e-07
1.93474e-05
-1.82137e-07
1.93631e-05
-2.19098e-07
1.93815e-05
-2.64549e-07
1.94033e-05
-3.19806e-07
1.94292e-05
-3.86374e-07
1.94598e-05
-4.66025e-07
1.94961e-05
-5.60905e-07
1.95391e-05
-6.73657e-07
1.95903e-05
-8.07565e-07
1.96515e-05
-9.66736e-07
1.97253e-05
-1.15634e-06
1.98154e-05
-1.38279e-06
1.99269e-05
-1.65412e-06
2.00678e-05
-1.97941e-06
2.02465e-05
-2.37209e-06
-2.83094e-06
2.04906e-05
1.92488e-05
-8.83183e-09
1.92507e-05
-2.37562e-08
1.92535e-05
-3.59103e-08
1.92571e-05
-4.57387e-08
1.92613e-05
-5.38205e-08
1.92659e-05
-6.07903e-08
1.92709e-05
-6.73151e-08
1.92763e-05
-7.40974e-08
1.92821e-05
-8.1843e-08
1.92884e-05
-9.12353e-08
1.92951e-05
-1.02999e-07
1.93026e-05
-1.17993e-07
1.93108e-05
-1.37223e-07
1.93201e-05
-1.61784e-07
1.93308e-05
-1.92803e-07
1.93431e-05
-2.31439e-07
1.93575e-05
-2.78918e-07
1.93743e-05
-3.36589e-07
1.93939e-05
-4.05995e-07
1.94168e-05
-4.88961e-07
1.94436e-05
-5.87716e-07
1.9475e-05
-7.05032e-07
1.95119e-05
-8.44421e-07
1.95555e-05
-1.01036e-06
1.96078e-05
-1.20863e-06
1.96716e-05
-1.44662e-06
1.97513e-05
-1.73378e-06
1.98541e-05
-2.08222e-06
1.99879e-05
-2.50592e-06
-3.02464e-06
2.01816e-05
1.92487e-05
-9.39871e-09
1.92502e-05
-2.53021e-08
1.92526e-05
-3.82587e-08
1.92556e-05
-4.87215e-08
1.9259e-05
-5.72928e-08
1.92629e-05
-6.46406e-08
1.92671e-05
-7.1471e-08
1.92715e-05
-7.85292e-08
1.92762e-05
-8.65571e-08
1.92812e-05
-9.62587e-08
1.92866e-05
-1.08374e-07
1.92924e-05
-1.2379e-07
1.92987e-05
-1.43556e-07
1.93057e-05
-1.68803e-07
1.93136e-05
-2.00685e-07
1.93226e-05
-2.40371e-07
1.93327e-05
-2.8909e-07
1.93443e-05
-3.48187e-07
1.93575e-05
-4.19202e-07
1.93725e-05
-5.03959e-07
1.93895e-05
-6.04694e-07
1.94087e-05
-7.24227e-07
1.94305e-05
-8.66178e-07
1.94554e-05
-1.03525e-06
1.94844e-05
-1.23765e-06
1.95193e-05
-1.48153e-06
1.95631e-05
-1.77756e-06
1.96215e-05
-2.14063e-06
1.9701e-05
-2.58544e-06
-3.15275e-06
1.98291e-05
1.92486e-05
-9.84991e-09
1.92498e-05
-2.65321e-08
1.92517e-05
-4.01268e-08
1.92541e-05
-5.10938e-08
1.92568e-05
-6.00499e-08
1.92599e-05
-6.76838e-08
1.92631e-05
-7.47298e-08
1.92666e-05
-8.19674e-08
1.92702e-05
-9.01659e-08
1.92739e-05
-1.00039e-07
1.92779e-05
-1.12332e-07
1.92821e-05
-1.27946e-07
1.92865e-05
-1.47955e-07
1.92912e-05
-1.73511e-07
1.92962e-05
-2.05766e-07
1.93017e-05
-2.45876e-07
1.93077e-05
-2.95043e-07
1.93141e-05
-3.54576e-07
1.93208e-05
-4.25959e-07
1.93278e-05
-5.10954e-07
1.93349e-05
-6.11731e-07
1.93417e-05
-7.31043e-07
1.9348e-05
-8.72477e-07
1.93535e-05
-1.04077e-06
1.93581e-05
-1.24228e-06
1.93622e-05
-1.48561e-06
1.93669e-05
-1.78223e-06
1.93755e-05
-2.14919e-06
1.93918e-05
-2.60182e-06
-3.19969e-06
1.94388e-05
1.92485e-05
-1.01846e-08
1.92494e-05
-2.74443e-08
1.92508e-05
-4.15116e-08
1.92525e-05
-5.28506e-08
1.92546e-05
-6.20842e-08
1.92568e-05
-6.99109e-08
1.92591e-05
-7.70832e-08
1.92616e-05
-8.44058e-08
1.92641e-05
-9.26651e-08
1.92666e-05
-1.02575e-07
1.92692e-05
-1.14874e-07
1.92717e-05
-1.30468e-07
1.92742e-05
-1.50439e-07
1.92766e-05
-1.75933e-07
1.92789e-05
-2.08085e-07
1.9281e-05
-2.4801e-07
1.92828e-05
-2.96855e-07
1.92841e-05
-3.55852e-07
1.92845e-05
-4.26388e-07
1.92837e-05
-5.10096e-07
1.9281e-05
-6.08991e-07
1.92756e-05
-7.25643e-07
1.92665e-05
-8.63438e-07
1.92527e-05
-1.02691e-06
1.92326e-05
-1.22226e-06
1.92051e-05
-1.45805e-06
1.91688e-05
-1.74594e-06
1.91237e-05
-2.10413e-06
1.907e-05
-2.54811e-06
-3.15159e-06
1.90219e-05
1.92484e-05
-1.04024e-08
1.92489e-05
-2.80394e-08
1.92498e-05
-4.24144e-08
1.9251e-05
-5.39917e-08
1.92523e-05
-6.33949e-08
1.92537e-05
-7.13224e-08
1.92552e-05
-7.85348e-08
1.92566e-05
-8.58517e-08
1.9258e-05
-9.40657e-08
1.92593e-05
-1.03882e-07
1.92605e-05
-1.16026e-07
1.92614e-05
-1.31394e-07
1.9262e-05
-1.51058e-07
1.92622e-05
-1.76143e-07
1.92619e-05
-2.07739e-07
1.92608e-05
-2.46902e-07
1.92586e-05
-2.94695e-07
1.9255e-05
-3.52238e-07
1.92494e-05
-4.20774e-07
1.9241e-05
-5.01746e-07
1.9229e-05
-5.96925e-07
1.92119e-05
-7.08578e-07
1.91882e-05
-8.39709e-07
1.91557e-05
-9.94396e-07
1.91117e-05
-1.1783e-06
1.9053e-05
-1.39939e-06
1.89758e-05
-1.66874e-06
1.8876e-05
-2.00429e-06
1.87487e-05
-2.42083e-06
-2.99898e-06
1.85961e-05
1.92482e-05
-1.05038e-08
1.92485e-05
-2.83212e-08
1.92489e-05
-4.28403e-08
1.92495e-05
-5.45238e-08
1.92501e-05
-6.39897e-08
1.92507e-05
-7.19286e-08
1.92512e-05
-7.90994e-08
1.92517e-05
-8.63245e-08
1.9252e-05
-9.43928e-08
1.92522e-05
-1.03994e-07
1.9252e-05
-1.15833e-07
1.92514e-05
-1.30787e-07
1.92502e-05
-1.49899e-07
1.92483e-05
-1.74252e-07
1.92454e-05
-2.04878e-07
1.92413e-05
-2.42748e-07
1.92354e-05
-2.8882e-07
1.92272e-05
-3.44071e-07
1.9216e-05
-4.09556e-07
1.92008e-05
-4.86473e-07
1.91801e-05
-5.7627e-07
1.91523e-05
-6.80788e-07
1.91151e-05
-8.0248e-07
1.90654e-05
-9.4471e-07
1.89993e-05
-1.11221e-06
1.89117e-05
-1.31177e-06
1.87959e-05
-1.55296e-06
1.86435e-05
-1.85187e-06
1.8444e-05
-2.22133e-06
-2.7398e-06
1.81848e-05
1.92481e-05
-1.0491e-08
1.92481e-05
-2.82937e-08
1.92481e-05
-4.27998e-08
1.9248e-05
-5.4461e-08
1.92479e-05
-6.38859e-08
1.92477e-05
-7.1751e-08
1.92474e-05
-7.88022e-08
1.92469e-05
-8.58537e-08
1.92462e-05
-9.36833e-08
1.92452e-05
-1.02961e-07
1.92437e-05
-1.14363e-07
1.92417e-05
-1.28733e-07
1.92388e-05
-1.47075e-07
1.9235e-05
-1.70411e-07
1.92298e-05
-1.99696e-07
1.92229e-05
-2.35804e-07
1.92136e-05
-2.79565e-07
1.92013e-05
-3.3179e-07
1.91851e-05
-3.93313e-07
1.91637e-05
-4.65037e-07
1.91354e-05
-5.48019e-07
1.90982e-05
-6.43577e-07
1.90492e-05
-7.53462e-07
1.89846e-05
-8.8009e-07
1.88993e-05
-1.02691e-06
1.87864e-05
-1.19896e-06
1.86369e-05
-1.40343e-06
1.8438e-05
-1.65292e-06
1.81736e-05
-1.95693e-06
-2.38193e-06
1.78157e-05
1.9248e-05
-1.03675e-08
1.92477e-05
-2.79688e-08
1.92472e-05
-4.23071e-08
1.92466e-05
-5.38216e-08
1.92458e-05
-6.31057e-08
1.92448e-05
-7.08168e-08
1.92437e-05
-7.76789e-08
1.92423e-05
-8.44841e-08
1.92407e-05
-9.19901e-08
1.92385e-05
-1.00844e-07
1.92359e-05
-1.11694e-07
1.92325e-05
-1.2534e-07
1.92281e-05
-1.42723e-07
1.92225e-05
-1.64797e-07
1.92152e-05
-1.92424e-07
1.92058e-05
-2.26371e-07
1.91936e-05
-2.67327e-07
1.91777e-05
-3.15919e-07
1.91571e-05
-3.72735e-07
1.91304e-05
-4.38352e-07
1.90958e-05
-5.13387e-07
1.90508e-05
-5.98563e-07
1.89921e-05
-6.94814e-07
1.89155e-05
-8.03435e-07
1.88149e-05
-9.26302e-07
1.86822e-05
-1.06625e-06
1.85061e-05
-1.22738e-06
1.82705e-05
-1.41734e-06
1.79547e-05
-1.64108e-06
-1.94421e-06
1.7517e-05
1.92479e-05
-1.01374e-08
1.92473e-05
-2.73587e-08
1.92464e-05
-4.1384e-08
1.92452e-05
-5.26346e-08
1.92438e-05
-6.16807e-08
1.92421e-05
-6.91586e-08
1.92402e-05
-7.57694e-08
1.9238e-05
-8.22695e-08
1.92354e-05
-8.93804e-08
1.92322e-05
-9.77235e-08
1.92285e-05
-1.0792e-07
1.92239e-05
-1.20722e-07
1.92181e-05
-1.36997e-07
1.92109e-05
-1.57609e-07
1.92018e-05
-1.83322e-07
1.91903e-05
-2.14789e-07
1.91755e-05
-2.5255e-07
1.91566e-05
-2.97042e-07
1.91325e-05
-3.48595e-07
1.91016e-05
-4.07445e-07
1.90619e-05
-4.73747e-07
1.90109e-05
-5.47591e-07
1.89452e-05
-6.29036e-07
1.88599e-05
-7.18153e-07
1.87487e-05
-8.15084e-07
1.86026e-05
-9.20176e-07
1.84092e-05
-1.03398e-06
1.81501e-05
-1.15827e-06
1.78016e-05
-1.2926e-06
-1.45553e-06
1.7313e-05
1.92478e-05
-9.80681e-09
1.92469e-05
-2.6481e-08
1.92456e-05
-4.00578e-08
1.92439e-05
-5.09329e-08
1.92419e-05
-5.96501e-08
1.92395e-05
-6.68227e-08
1.92369e-05
-7.31233e-08
1.92339e-05
-7.92638e-08
1.92304e-05
-8.59204e-08
1.92264e-05
-9.36847e-08
1.92216e-05
-1.03149e-07
1.92159e-05
-1.15014e-07
1.9209e-05
-1.30062e-07
1.92004e-05
-1.49057e-07
1.91898e-05
-1.72663e-07
1.91764e-05
-2.01413e-07
1.91595e-05
-2.35703e-07
1.91383e-05
-2.75775e-07
1.91114e-05
-3.2171e-07
1.90773e-05
-3.73406e-07
1.90342e-05
-4.30559e-07
1.89792e-05
-4.92635e-07
1.8909e-05
-5.58815e-07
1.88188e-05
-6.27942e-07
1.87021e-05
-6.98396e-07
1.85499e-05
-7.67971e-07
1.83495e-05
-8.3358e-07
1.80821e-05
-8.90858e-07
1.77232e-05
-9.3374e-07
-9.51857e-07
1.72195e-05
1.92477e-05
-9.38372e-09
1.92466e-05
-2.53582e-08
1.92449e-05
-3.83626e-08
1.92427e-05
-4.87573e-08
1.92401e-05
-5.70595e-08
1.92372e-05
-6.38598e-08
1.92338e-05
-6.97954e-08
1.92301e-05
-7.55276e-08
1.92259e-05
-8.16846e-08
1.9221e-05
-8.88229e-08
1.92154e-05
-9.74994e-08
1.92087e-05
-1.08354e-07
1.92007e-05
-1.22085e-07
1.9191e-05
-1.39355e-07
1.91791e-05
-1.60722e-07
1.91643e-05
-1.86605e-07
1.91458e-05
-2.17255e-07
1.91228e-05
-2.52739e-07
1.9094e-05
-2.92901e-07
1.90579e-05
-3.37327e-07
1.90126e-05
-3.85291e-07
1.89557e-05
-4.35678e-07
1.88837e-05
-4.86861e-07
1.87923e-05
-5.36535e-07
1.86754e-05
-5.81454e-07
1.85244e-05
-6.17033e-07
1.83276e-05
-6.36772e-07
1.80675e-05
-6.30715e-07
1.77213e-05
-5.87558e-07
-4.70537e-07
1.724e-05
1.92476e-05
-8.8783e-09
1.92463e-05
-2.40185e-08
1.92443e-05
-3.63393e-08
1.92417e-05
-4.61564e-08
1.92386e-05
-5.39611e-08
1.9235e-05
-6.03242e-08
1.92311e-05
-6.58449e-08
1.92267e-05
-7.11298e-08
1.92218e-05
-7.67539e-08
1.92162e-05
-8.32334e-08
1.92097e-05
-9.10833e-08
1.92023e-05
-1.0088e-07
1.91934e-05
-1.13235e-07
1.91828e-05
-1.28714e-07
1.91698e-05
-1.47771e-07
1.91539e-05
-1.70713e-07
1.91343e-05
-1.97665e-07
1.91101e-05
-2.28531e-07
1.90802e-05
-2.62953e-07
1.90431e-05
-3.00249e-07
1.89972e-05
-3.39333e-07
1.89401e-05
-3.78597e-07
1.88689e-05
-4.15727e-07
1.87799e-05
-4.47453e-07
1.86676e-05
-4.69146e-07
1.85248e-05
-4.74265e-07
1.83415e-05
-4.53449e-07
1.8103e-05
-3.923e-07
1.77907e-05
-2.75207e-07
-4.51751e-08
1.73653e-05
1.92476e-05
-8.30347e-09
1.9246e-05
-2.24982e-08
1.92437e-05
-3.40386e-08
1.92408e-05
-4.31852e-08
1.92372e-05
-5.04103e-08
1.92332e-05
-5.62751e-08
1.92287e-05
-6.13386e-08
1.92237e-05
-6.61443e-08
1.92181e-05
-7.12096e-08
1.92119e-05
-7.7008e-08
1.92048e-05
-8.40095e-08
1.91967e-05
-9.27242e-08
1.91871e-05
-1.03677e-07
1.91757e-05
-1.17337e-07
1.9162e-05
-1.34064e-07
1.91454e-05
-1.54064e-07
1.91251e-05
-1.77349e-07
1.91002e-05
-2.03694e-07
1.90699e-05
-2.32575e-07
1.90327e-05
-2.63104e-07
1.89873e-05
-2.93921e-07
1.89317e-05
-3.23044e-07
1.88637e-05
-3.47645e-07
1.878e-05
-3.63746e-07
1.86765e-05
-3.65723e-07
1.85478e-05
-3.45571e-07
1.83864e-05
-2.92029e-07
1.81815e-05
-1.87416e-07
1.79197e-05
-1.33392e-08
2.98021e-07
1.75765e-05
1.92475e-05
-7.67636e-09
1.92459e-05
-2.08453e-08
1.92433e-05
-3.15227e-08
1.92401e-05
-3.99063e-08
1.92361e-05
-4.6469e-08
1.92316e-05
-5.17762e-08
1.92266e-05
-5.63429e-08
1.92211e-05
-6.06426e-08
1.9215e-05
-6.51316e-08
1.92083e-05
-7.0239e-08
1.92006e-05
-7.63857e-08
1.91919e-05
-8.40132e-08
1.91818e-05
-9.35618e-08
1.91699e-05
-1.05413e-07
1.91557e-05
-1.19835e-07
1.91386e-05
-1.36948e-07
1.91179e-05
-1.56677e-07
1.90929e-05
-1.78696e-07
1.90627e-05
-2.0237e-07
1.90262e-05
-2.26674e-07
1.89824e-05
-2.50075e-07
1.89297e-05
-2.70361e-07
1.88665e-05
-2.84399e-07
1.87905e-05
-2.87816e-07
1.86992e-05
-2.74364e-07
1.8589e-05
-2.35343e-07
1.84555e-05
-1.5857e-07
1.82923e-05
-2.42666e-08
1.80926e-05
1.86408e-07
5.43004e-07
1.78476e-05
1.92475e-05
-7.02131e-09
1.92458e-05
-1.91268e-08
1.92431e-05
-2.88683e-08
1.92396e-05
-3.63861e-08
1.92353e-05
-4.22012e-08
1.92304e-05
-4.68954e-08
1.9225e-05
-5.09265e-08
1.92191e-05
-5.46927e-08
1.92125e-05
-5.85915e-08
1.92053e-05
-6.30065e-08
1.91972e-05
-6.83053e-08
1.91881e-05
-7.48584e-08
1.91775e-05
-8.3025e-08
1.91652e-05
-9.31031e-08
1.91507e-05
-1.05283e-07
1.91333e-05
-1.19611e-07
1.91126e-05
-1.35949e-07
1.90878e-05
-1.53912e-07
1.90582e-05
-1.72807e-07
1.90231e-05
-1.9155e-07
1.89816e-05
-2.08544e-07
1.89327e-05
-2.21507e-07
1.88756e-05
-2.27229e-07
1.8809e-05
-2.21237e-07
1.87318e-05
-1.97199e-07
1.86429e-05
-1.46384e-07
1.85405e-05
-5.61787e-08
1.84237e-05
9.25428e-08
1.82912e-05
3.18896e-07
6.85371e-07
1.81488e-05
1.92475e-05
-6.37979e-09
1.92458e-05
-1.74412e-08
1.92431e-05
-2.61618e-08
1.92394e-05
-3.26897e-08
1.92349e-05
-3.76758e-08
1.92297e-05
-4.17111e-08
1.92239e-05
-4.51657e-08
1.92176e-05
-4.83682e-08
1.92107e-05
-5.16686e-08
1.92031e-05
-5.54006e-08
1.91946e-05
-5.98669e-08
1.91851e-05
-6.53658e-08
1.91743e-05
-7.21848e-08
1.91618e-05
-8.05466e-08
1.9147e-05
-9.05696e-08
1.91297e-05
-1.02247e-07
1.91091e-05
-1.154e-07
1.90848e-05
-1.29621e-07
1.90562e-05
-1.44216e-07
1.90228e-05
-1.58121e-07
1.89841e-05
-1.69787e-07
1.89396e-05
-1.77016e-07
1.88891e-05
-1.76754e-07
1.88326e-05
-1.64753e-07
1.87705e-05
-1.35064e-07
1.87034e-05
-7.93588e-08
1.8633e-05
1.42201e-08
1.8563e-05
1.62606e-07
1.84969e-05
3.84993e-07
7.29536e-07
1.84527e-05
1.92476e-05
-5.83088e-09
1.92461e-05
-1.5962e-08
1.92434e-05
-2.34963e-08
1.92396e-05
-2.886e-08
1.92349e-05
-3.29347e-08
1.92294e-05
-3.62678e-08
1.92234e-05
-3.91118e-08
1.92167e-05
-4.17332e-08
1.92095e-05
-4.44299e-08
1.92016e-05
-4.74842e-08
1.91929e-05
-5.11376e-08
1.91831e-05
-5.56195e-08
1.91721e-05
-6.11461e-08
1.91594e-05
-6.78664e-08
1.91446e-05
-7.58315e-08
1.91274e-05
-8.49959e-08
1.91072e-05
-9.51734e-08
1.90835e-05
-1.05978e-07
1.90561e-05
-1.16766e-07
1.90245e-05
-1.26564e-07
1.89887e-05
-1.33972e-07
1.89487e-05
-1.37011e-07
1.89049e-05
-1.32962e-07
1.88583e-05
-1.18138e-07
1.88107e-05
-8.74611e-08
1.87649e-05
-3.35654e-08
1.87251e-05
5.39874e-08
1.86984e-05
1.89294e-07
1.8693e-05
3.90434e-07
6.86699e-07
1.87358e-05
1.92478e-05
-5.50973e-09
1.92468e-05
-1.49488e-08
1.92443e-05
-2.10297e-08
1.92405e-05
-2.50138e-08
1.92356e-05
-2.80878e-08
1.923e-05
-3.06455e-08
1.92237e-05
-3.28115e-08
1.92168e-05
-3.48301e-08
1.92093e-05
-3.69311e-08
1.92012e-05
-3.93335e-08
1.91922e-05
-4.22023e-08
1.91823e-05
-4.57003e-08
1.91711e-05
-4.99847e-08
1.91584e-05
-5.51368e-08
1.91437e-05
-6.11592e-08
1.91267e-05
-6.79708e-08
1.91069e-05
-7.53863e-08
1.9084e-05
-8.30791e-08
1.90578e-05
-9.05097e-08
1.90281e-05
-9.68614e-08
1.89951e-05
-1.00979e-07
1.89593e-05
-1.01241e-07
1.89218e-05
-9.54243e-08
1.88842e-05
-8.05437e-08
1.88494e-05
-5.26781e-08
1.88222e-05
-6.40035e-09
1.88093e-05
6.69268e-08
1.88199e-05
1.78737e-07
1.88658e-05
3.44501e-07
5.72282e-07
1.89802e-05
1.92484e-05
-5.81158e-09
1.92479e-05
-1.44592e-08
1.92457e-05
-1.87374e-08
1.92418e-05
-2.12013e-08
1.9237e-05
-2.32367e-08
1.92313e-05
-2.49148e-08
1.92248e-05
-2.63446e-08
1.92177e-05
-2.7742e-08
1.921e-05
-2.92535e-08
1.92017e-05
-3.10156e-08
1.91926e-05
-3.31372e-08
1.91826e-05
-3.57008e-08
1.91714e-05
-3.87869e-08
1.91587e-05
-4.23982e-08
1.91441e-05
-4.65418e-08
1.91273e-05
-5.11521e-08
1.91079e-05
-5.60393e-08
1.90858e-05
-6.09149e-08
1.90606e-05
-6.53745e-08
1.90326e-05
-6.88395e-08
1.90021e-05
-7.04739e-08
1.89699e-05
-6.90747e-08
1.89376e-05
-6.30698e-08
1.89074e-05
-5.0373e-08
1.88835e-05
-2.87716e-08
1.88722e-05
4.86716e-09
1.88814e-05
5.77822e-08
1.89207e-05
1.39383e-07
1.90058e-05
2.59395e-07
4.04878e-07
1.91732e-05
1.92513e-05
-8.99192e-09
1.92512e-05
-1.43271e-08
1.92485e-05
-1.60135e-08
1.92445e-05
-1.72439e-08
1.92396e-05
-1.83309e-08
1.92339e-05
-1.9203e-08
1.92275e-05
-1.99519e-08
1.92204e-05
-2.06774e-08
1.92126e-05
-2.14568e-08
1.9204e-05
-2.23621e-08
1.91943e-05
-2.34624e-08
1.91834e-05
-2.48027e-08
1.9171e-05
-2.64278e-08
1.9157e-05
-2.83252e-08
1.91409e-05
-3.05118e-08
1.91227e-05
-3.29496e-08
1.91022e-05
-3.55082e-08
1.90793e-05
-3.8014e-08
1.90542e-05
-4.02428e-08
1.90272e-05
-4.18802e-08
1.89992e-05
-4.24857e-08
1.89715e-05
-4.1369e-08
1.8946e-05
-3.75463e-08
1.89254e-05
-2.98252e-08
1.89132e-05
-1.6523e-08
1.89117e-05
6.344e-09
1.89299e-05
3.96394e-08
1.89852e-05
8.40229e-08
1.90951e-05
1.49535e-07
2.12353e-07
1.92876e-05
1.92391e-05
1.92248e-05
1.92088e-05
1.91916e-05
1.91732e-05
1.9154e-05
1.91341e-05
1.91134e-05
1.90919e-05
1.90696e-05
1.90461e-05
1.90213e-05
1.89949e-05
1.89666e-05
1.8936e-05
1.89031e-05
1.88676e-05
1.88296e-05
1.87893e-05
1.87474e-05
1.8705e-05
1.86636e-05
1.8626e-05
1.85962e-05
1.85797e-05
1.8586e-05
1.86257e-05
1.87097e-05
1.88592e-05
1.90716e-05
2.09288e-05
-9.88635e-06
1.03137e-05
2.04862e-05
-9.98744e-06
1.04301e-05
2.00167e-05
-1.00799e-05
1.05494e-05
1.95189e-05
-1.01614e-05
1.06592e-05
1.89992e-05
-1.02402e-05
1.07599e-05
1.84634e-05
-1.032e-05
1.08558e-05
1.79156e-05
-1.04017e-05
1.09495e-05
1.73584e-05
-1.04861e-05
1.10434e-05
1.67933e-05
-1.0574e-05
1.11391e-05
1.62212e-05
-1.06661e-05
1.12383e-05
1.56419e-05
-1.07627e-05
1.1342e-05
1.50549e-05
-1.08642e-05
1.14512e-05
1.44597e-05
-1.09711e-05
1.15663e-05
1.38554e-05
-1.10841e-05
1.16884e-05
1.32413e-05
-1.12044e-05
1.18185e-05
1.26164e-05
-1.13334e-05
1.19582e-05
1.19796e-05
-1.14725e-05
1.21093e-05
1.13291e-05
-1.16236e-05
1.22741e-05
1.06627e-05
-1.17888e-05
1.24551e-05
9.97756e-06
-1.19707e-05
1.26558e-05
9.26995e-06
-1.21724e-05
1.288e-05
8.53484e-06
-1.23978e-05
1.3133e-05
7.76561e-06
-1.26515e-05
1.34207e-05
6.95318e-06
-1.29395e-05
1.37519e-05
6.0852e-06
-1.32672e-05
1.41352e-05
5.14408e-06
-1.36476e-05
1.45888e-05
4.10909e-06
-1.40771e-05
1.51121e-05
2.92423e-06
-1.46044e-05
1.57893e-05
1.62858e-06
-1.51081e-05
1.64038e-05
-1.60993e-05
1.77279e-05
2.10605e-05
-9.41946e-06
2.05608e-05
-9.48773e-06
2.00389e-05
-9.55801e-06
1.95048e-05
-9.62728e-06
1.89628e-05
-9.69816e-06
1.84148e-05
-9.77202e-06
1.78617e-05
-9.84869e-06
1.73037e-05
-9.92809e-06
1.67402e-05
-1.00105e-05
1.61701e-05
-1.00961e-05
1.55927e-05
-1.01853e-05
1.50071e-05
-1.02786e-05
1.44126e-05
-1.03766e-05
1.38087e-05
-1.04802e-05
1.31946e-05
-1.05903e-05
1.25692e-05
-1.0708e-05
1.19313e-05
-1.08346e-05
1.1279e-05
-1.09713e-05
1.061e-05
-1.11198e-05
9.92143e-06
-1.12821e-05
9.20936e-06
-1.14603e-05
8.46887e-06
-1.16574e-05
7.69347e-06
-1.18761e-05
6.87443e-06
-1.21205e-05
6.00032e-06
-1.23931e-05
5.05527e-06
-1.27026e-05
4.01839e-06
-1.30402e-05
2.85805e-06
-1.34441e-05
1.56414e-06
-1.38142e-05
-1.45352e-05
2.09796e-05
-8.91586e-06
2.0464e-05
-8.97208e-06
1.99383e-05
-9.03236e-06
1.94073e-05
-9.09629e-06
1.8872e-05
-9.16286e-06
1.83314e-05
-9.23138e-06
1.77845e-05
-9.30176e-06
1.72306e-05
-9.37421e-06
1.66692e-05
-9.4491e-06
1.61e-05
-9.52684e-06
1.55226e-05
-9.60787e-06
1.49367e-05
-9.6927e-06
1.4342e-05
-9.78188e-06
1.37378e-05
-9.87604e-06
1.31233e-05
-9.97585e-06
1.24974e-05
-1.00821e-05
1.18584e-05
-1.01956e-05
1.12045e-05
-1.03174e-05
1.05334e-05
-1.04487e-05
9.84209e-06
-1.05907e-05
9.12677e-06
-1.0745e-05
8.3826e-06
-1.09132e-05
7.6033e-06
-1.10968e-05
6.78062e-06
-1.12978e-05
5.90399e-06
-1.15165e-05
4.9589e-06
-1.17575e-05
3.92697e-06
-1.20083e-05
2.78382e-06
-1.23009e-05
1.5015e-06
-1.25319e-05
-1.30337e-05
2.08974e-05
-8.40587e-06
2.03802e-05
-8.45489e-06
1.98554e-05
-8.50762e-06
1.93247e-05
-8.56553e-06
1.87881e-05
-8.62629e-06
1.8245e-05
-8.68832e-06
1.7695e-05
-8.75176e-06
1.7138e-05
-8.8172e-06
1.6574e-05
-8.88503e-06
1.60026e-05
-8.95553e-06
1.54238e-05
-9.02898e-06
1.48368e-05
-9.10574e-06
1.42411e-05
-9.18619e-06
1.36358e-05
-9.27075e-06
1.30199e-05
-9.35992e-06
1.23921e-05
-9.45423e-06
1.17508e-05
-9.5543e-06
1.10941e-05
-9.66078e-06
1.04198e-05
-9.77438e-06
9.72493e-06
-9.89584e-06
9.00574e-06
-1.00258e-05
8.25759e-06
-1.0165e-05
7.4746e-06
-1.03138e-05
6.64915e-06
-1.04723e-05
5.77175e-06
-1.06391e-05
4.82948e-06
-1.08152e-05
3.80721e-06
-1.0986e-05
2.68369e-06
-1.11774e-05
1.43022e-06
-1.12784e-05
-1.16034e-05
2.07828e-05
-7.89091e-06
2.02618e-05
-7.93384e-06
1.9734e-05
-7.97987e-06
1.92004e-05
-8.03187e-06
1.8661e-05
-8.08694e-06
1.81157e-05
-8.14296e-06
1.7564e-05
-8.20009e-06
1.70058e-05
-8.25903e-06
1.64409e-05
-8.32009e-06
1.58687e-05
-8.38339e-06
1.52889e-05
-8.44911e-06
1.47006e-05
-8.51751e-06
1.41033e-05
-8.58888e-06
1.34961e-05
-8.66351e-06
1.28779e-05
-8.74171e-06
1.22475e-05
-8.82383e-06
1.16034e-05
-8.91019e-06
1.09437e-05
-9.0011e-06
1.02662e-05
-9.09683e-06
9.5679e-06
-9.19758e-06
8.84543e-06
-9.30337e-06
8.0944e-06
-9.41401e-06
7.3094e-06
-9.52878e-06
6.48361e-06
-9.64655e-06
5.6087e-06
-9.76418e-06
4.67355e-06
-9.88009e-06
3.66592e-06
-9.97834e-06
2.56688e-06
-1.00784e-05
1.35389e-06
-1.00654e-05
-1.02496e-05
2.06358e-05
-7.37189e-06
2.01114e-05
-7.40941e-06
1.95809e-05
-7.44942e-06
1.90448e-05
-7.4958e-06
1.85032e-05
-7.54531e-06
1.79557e-05
-7.59545e-06
1.74019e-05
-7.64635e-06
1.68416e-05
-7.69874e-06
1.62745e-05
-7.75291e-06
1.57e-05
-7.80889e-06
1.51176e-05
-7.86676e-06
1.45268e-05
-7.92671e-06
1.39269e-05
-7.98892e-06
1.33169e-05
-8.05353e-06
1.26959e-05
-8.12069e-06
1.20625e-05
-8.19051e-06
1.14154e-05
-8.26306e-06
1.07526e-05
-8.33834e-06
1.0072e-05
-8.41624e-06
9.37094e-06
-8.49649e-06
8.64612e-06
-8.57855e-06
7.89361e-06
-8.6615e-06
7.10861e-06
-8.74379e-06
6.28519e-06
-8.82313e-06
5.41629e-06
-8.89527e-06
4.49261e-06
-8.95641e-06
3.50464e-06
-8.99038e-06
2.43618e-06
-9.0099e-06
1.27317e-06
-8.90241e-06
-8.97639e-06
2.04519e-05
-6.84878e-06
1.99238e-05
-6.88131e-06
1.93901e-05
-6.91573e-06
1.8851e-05
-6.95664e-06
1.83063e-05
-7.00065e-06
1.77558e-05
-7.04497e-06
1.71992e-05
-7.0897e-06
1.66361e-05
-7.13561e-06
1.60661e-05
-7.18293e-06
1.54888e-05
-7.23162e-06
1.49037e-05
-7.28167e-06
1.43102e-05
-7.33317e-06
1.37074e-05
-7.38618e-06
1.30946e-05
-7.44074e-06
1.24708e-05
-7.49681e-06
1.18346e-05
-7.55433e-06
1.11847e-05
-7.61314e-06
1.05193e-05
-7.67296e-06
9.83643e-06
-7.73338e-06
9.13366e-06
-7.79372e-06
8.40808e-06
-7.85297e-06
7.65622e-06
-7.90964e-06
6.87395e-06
-7.96151e-06
6.05629e-06
-8.00547e-06
5.19747e-06
-8.03645e-06
4.29012e-06
-8.04905e-06
3.32726e-06
-8.02752e-06
2.29584e-06
-7.97848e-06
1.19037e-06
-7.79694e-06
-7.78601e-06
2.02273e-05
-6.32139e-06
1.96952e-05
-6.3493e-06
1.9158e-05
-6.37849e-06
1.86155e-05
-6.4141e-06
1.80675e-05
-6.45267e-06
1.75138e-05
-6.49126e-06
1.6954e-05
-6.52991e-06
1.63878e-05
-6.56939e-06
1.58148e-05
-6.60992e-06
1.52345e-05
-6.65135e-06
1.46464e-05
-6.69361e-06
1.405e-05
-6.73669e-06
1.34443e-05
-6.78058e-06
1.28288e-05
-6.82517e-06
1.22023e-05
-6.8703e-06
1.15637e-05
-6.91573e-06
1.09117e-05
-6.96113e-06
1.02447e-05
-7.00599e-06
9.5609e-06
-7.0496e-06
8.85819e-06
-7.091e-06
8.13402e-06
-7.1288e-06
7.38548e-06
-7.16109e-06
6.60915e-06
-7.18518e-06
5.80105e-06
-7.19737e-06
4.95673e-06
-7.19214e-06
4.07069e-06
-7.16301e-06
3.13837e-06
-7.0952e-06
2.15002e-06
-6.99013e-06
1.10762e-06
-6.75454e-06
-6.6784e-06
1.99588e-05
-5.78959e-06
1.94227e-05
-5.81321e-06
1.88818e-05
-5.83753e-06
1.83357e-05
-5.86801e-06
1.77842e-05
-5.90121e-06
1.72271e-05
-5.93416e-06
1.66641e-05
-5.96684e-06
1.60947e-05
-6.00001e-06
1.55186e-05
-6.03384e-06
1.49354e-05
-6.06814e-06
1.43445e-05
-6.10274e-06
1.37454e-05
-6.13758e-06
1.31374e-05
-6.17255e-06
1.25197e-05
-6.20743e-06
1.18913e-05
-6.24196e-06
1.12514e-05
-6.27576e-06
1.05986e-05
-6.30833e-06
9.93154e-06
-6.33898e-06
9.24875e-06
-6.36681e-06
8.54836e-06
-6.39061e-06
7.82831e-06
-6.40875e-06
7.08622e-06
-6.41901e-06
6.31946e-06
-6.41842e-06
5.52502e-06
-6.40293e-06
4.69975e-06
-6.36686e-06
3.83991e-06
-6.30318e-06
2.9431e-06
-6.19839e-06
2.00284e-06
-6.04987e-06
1.02713e-06
-5.77883e-06
-5.65126e-06
1.96454e-05
-5.2534e-06
1.91053e-05
-5.27309e-06
1.85607e-05
-5.29294e-06
1.80112e-05
-5.31846e-06
1.74564e-05
-5.3464e-06
1.68961e-05
-5.37385e-06
1.633e-05
-5.40075e-06
1.57578e-05
-5.42779e-06
1.5179e-05
-5.45512e-06
1.45934e-05
-5.48249e-06
1.40003e-05
-5.5097e-06
1.33994e-05
-5.5366e-06
1.27898e-05
-5.563e-06
1.2171e-05
-5.58862e-06
1.15421e-05
-5.61309e-06
1.09023e-05
-5.63592e-06
1.02504e-05
-5.65648e-06
9.58545e-06
-5.67398e-06
8.906e-06
-5.68737e-06
8.21065e-06
-5.69526e-06