/*--------------------------------*- C++ -*----------------------------------*\
  =========                 |
  \\      /  F ield         | OpenFOAM: The Open Source CFD Toolbox
   \\    /   O peration     | Website:  https://openfoam.org
    \\  /    A nd           | Version:  11
     \\/     M anipulation  |
\*---------------------------------------------------------------------------*/
FoamFile
{
    format      ascii;
    class       surfaceScalarField;
    location    "8";
    object      phi;
}
// * * * * * * * * * * * * * * * * * * * * * * * * * * * * * * * * * * * * * //

dimensions      [0 3 -1 0 0 0 0];

internalField   nonuniform List<scalar> 
24840
(
1.53199e-05
1.34119e-08
1.53022e-05
1.7769e-08
1.52859e-05
1.6241e-08
1.52704e-05
1.55375e-08
1.52552e-05
1.51404e-08
1.52408e-05
1.44815e-08
1.52273e-05
1.34768e-08
1.52151e-05
1.21279e-08
1.52046e-05
1.05459e-08
1.5196e-05
8.56721e-09
1.51899e-05
6.1228e-09
1.51867e-05
3.22529e-09
1.5187e-05
-2.75189e-10
1.51915e-05
-4.58597e-09
1.52014e-05
-9.88746e-09
1.52178e-05
-1.63682e-08
1.52422e-05
-2.4409e-08
1.52762e-05
-3.39962e-08
1.53225e-05
-4.63319e-08
1.5384e-05
-6.14676e-08
1.54627e-05
-7.87377e-08
1.55632e-05
-1.00467e-07
1.56914e-05
-1.28171e-07
1.58537e-05
-1.62366e-07
1.60581e-05
-2.04362e-07
1.63136e-05
-2.55469e-07
1.66319e-05
-3.18367e-07
1.70222e-05
-3.90267e-07
1.75205e-05
-4.98254e-07
-5.12543e-07
1.8033e-05
1.53395e-05
7.28419e-09
1.53437e-05
1.35617e-08
1.53475e-05
1.23985e-08
1.53514e-05
1.16874e-08
1.53556e-05
1.09261e-08
1.53604e-05
9.62101e-09
1.53662e-05
7.70648e-09
1.53732e-05
5.16478e-09
1.53816e-05
2.14754e-09
1.53918e-05
-1.61822e-09
1.54041e-05
-6.20368e-09
1.5419e-05
-1.16602e-08
1.54369e-05
-1.82442e-08
1.54586e-05
-2.62041e-08
1.54845e-05
-3.58699e-08
1.55158e-05
-4.76085e-08
1.5553e-05
-6.16126e-08
1.55982e-05
-7.92014e-08
1.56521e-05
-1.00231e-07
1.57165e-05
-1.25884e-07
1.57975e-05
-1.59763e-07
1.58995e-05
-2.02402e-07
1.60255e-05
-2.54201e-07
1.61806e-05
-3.17472e-07
1.63714e-05
-3.95187e-07
1.66065e-05
-4.9053e-07
1.68962e-05
-6.08118e-07
1.72533e-05
-7.47356e-07
1.76934e-05
-9.38288e-07
-1.05351e-06
1.82343e-05
1.53362e-05
4.377e-09
1.53401e-05
9.71495e-09
1.53431e-05
9.41088e-09
1.53466e-05
8.19303e-09
1.53505e-05
6.97129e-09
1.5355e-05
5.14913e-09
1.53603e-05
2.41474e-09
1.53666e-05
-1.17088e-09
1.53744e-05
-5.58644e-09
1.53838e-05
-1.10623e-08
1.53953e-05
-1.77129e-08
1.54093e-05
-2.56906e-08
1.54264e-05
-3.52878e-08
1.5447e-05
-4.68672e-08
1.54721e-05
-6.08868e-08
1.55024e-05
-7.79269e-08
1.55393e-05
-9.8566e-08
1.55841e-05
-1.24003e-07
1.56391e-05
-1.55147e-07
1.57065e-05
-1.93316e-07
1.57882e-05
-2.41511e-07
1.58877e-05
-3.01875e-07
1.60096e-05
-3.76052e-07
1.61593e-05
-4.67165e-07
1.63436e-05
-5.79522e-07
1.65709e-05
-7.1788e-07
1.6852e-05
-8.89228e-07
1.71991e-05
-1.09437e-06
1.76289e-05
-1.36809e-06
-1.59221e-06
1.81676e-05
1.53351e-05
2.64149e-09
1.53384e-05
6.40204e-09
1.53413e-05
6.49452e-09
1.53445e-05
5.03309e-09
1.53482e-05
3.23169e-09
1.53525e-05
8.3814e-10
1.53576e-05
-2.70499e-09
1.53638e-05
-7.30548e-09
1.53713e-05
-1.30812e-08
1.53804e-05
-2.01998e-08
1.53915e-05
-2.88495e-08
1.54051e-05
-3.92555e-08
1.54216e-05
-5.17604e-08
1.54415e-05
-6.68332e-08
1.54657e-05
-8.5074e-08
1.5495e-05
-1.07244e-07
1.55307e-05
-1.34226e-07
1.5574e-05
-1.67327e-07
1.56269e-05
-2.07979e-07
1.56915e-05
-2.57943e-07
1.57702e-05
-3.20206e-07
1.58661e-05
-3.97765e-07
1.59834e-05
-4.93434e-07
1.61276e-05
-6.11317e-07
1.63051e-05
-7.57005e-07
1.65241e-05
-9.36898e-07
1.6795e-05
-1.16011e-06
1.71308e-05
-1.43015e-06
1.75458e-05
-1.78308e-06
-2.11859e-06
1.80721e-05
1.53345e-05
1.5109e-09
1.53371e-05
3.81605e-09
1.53397e-05
3.79726e-09
1.53427e-05
2.1236e-09
1.53462e-05
-2.74227e-10
1.53503e-05
-3.33483e-09
1.53553e-05
-7.62125e-09
1.53612e-05
-1.32253e-08
1.53684e-05
-2.02798e-08
1.53771e-05
-2.89699e-08
1.53878e-05
-3.95302e-08
1.54008e-05
-5.22441e-08
1.54166e-05
-6.75184e-08
1.54357e-05
-8.59201e-08
1.54588e-05
-1.08183e-07
1.54868e-05
-1.35238e-07
1.55207e-05
-1.68216e-07
1.5562e-05
-2.08614e-07
1.56123e-05
-2.58242e-07
1.56737e-05
-3.19317e-07
1.57485e-05
-3.94987e-07
1.58396e-05
-4.88872e-07
1.5951e-05
-6.04883e-07
1.60878e-05
-7.4815e-07
1.62563e-05
-9.25476e-07
1.64643e-05
-1.14489e-06
1.67217e-05
-1.41748e-06
1.70416e-05
-1.75005e-06
1.7437e-05
-2.17855e-06
-2.62324e-06
1.79417e-05
1.53341e-05
7.14469e-10
1.53362e-05
1.76949e-09
1.53387e-05
1.30809e-09
1.53414e-05
-6.58051e-10
1.53447e-05
-3.55204e-09
1.53487e-05
-7.28915e-09
1.53534e-05
-1.23036e-08
1.5359e-05
-1.88544e-08
1.53658e-05
-2.71109e-08
1.53741e-05
-3.72841e-08
1.53842e-05
-4.96427e-08
1.53965e-05
-6.45236e-08
1.54114e-05
-8.23989e-08
1.54294e-05
-1.03925e-07
1.54512e-05
-1.29961e-07
1.54776e-05
-1.61596e-07
1.55095e-05
-2.00175e-07
1.55483e-05
-2.47406e-07
1.55955e-05
-3.05404e-07
1.56529e-05
-3.76776e-07
1.57229e-05
-4.64958e-07
1.58081e-05
-5.74122e-07
1.59124e-05
-7.09108e-07
1.60403e-05
-8.76036e-07
1.61976e-05
-1.08286e-06
1.63919e-05
-1.33919e-06
1.66325e-05
-1.65801e-06
1.69321e-05
-2.04963e-06
1.7303e-05
-2.54947e-06
-3.09996e-06
1.77797e-05
1.53339e-05
1.06565e-10
1.53356e-05
1.04401e-10
1.53378e-05
-9.26211e-10
1.53404e-05
-3.24589e-09
1.53435e-05
-6.60656e-09
1.53472e-05
-1.09761e-08
1.53516e-05
-1.67078e-08
1.53569e-05
-2.41429e-08
1.53633e-05
-3.35147e-08
1.5371e-05
-4.50648e-08
1.53805e-05
-5.90908e-08
1.53919e-05
-7.59765e-08
1.54058e-05
-9.62555e-08
1.54225e-05
-1.20667e-07
1.54428e-05
-1.50185e-07
1.54672e-05
-1.86042e-07
1.54968e-05
-2.2977e-07
1.55327e-05
-2.8328e-07
1.55762e-05
-3.48949e-07
1.56292e-05
-4.29725e-07
1.56936e-05
-5.29372e-07
1.5772e-05
-6.52557e-07
1.58678e-05
-8.04897e-07
1.59852e-05
-9.93427e-07
1.61295e-05
-1.22719e-06
1.63076e-05
-1.5173e-06
1.65282e-05
-1.87852e-06
1.68032e-05
-2.3247e-06
1.71444e-05
-2.89069e-06
-3.5422e-06
1.75867e-05
1.53338e-05
-3.90026e-10
1.53352e-05
-1.27721e-09
1.53372e-05
-2.90851e-09
1.53396e-05
-5.6319e-09
1.53424e-05
-9.43939e-09
1.53458e-05
-1.43869e-08
1.53499e-05
-2.07973e-08
1.53548e-05
-2.90499e-08
1.53607e-05
-3.94408e-08
1.53679e-05
-5.22458e-08
1.53766e-05
-6.77897e-08
1.53871e-05
-8.64966e-08
1.53998e-05
-1.08956e-07
1.54152e-05
-1.35982e-07
1.54336e-05
-1.6865e-07
1.54559e-05
-2.08323e-07
1.54828e-05
-2.56692e-07
1.55154e-05
-3.15854e-07
1.55549e-05
-3.88414e-07
1.56028e-05
-4.77612e-07
1.56609e-05
-5.87533e-07
1.57316e-05
-7.23277e-07
1.58179e-05
-8.91116e-07
1.59233e-05
-1.0989e-06
1.60528e-05
-1.35667e-06
1.62124e-05
-1.67687e-06
1.64098e-05
-2.07597e-06
1.66563e-05
-2.57122e-06
1.69627e-05
-3.19701e-06
-3.94286e-06
1.73633e-05
1.53337e-05
-8.01833e-10
1.53349e-05
-2.44476e-09
1.53367e-05
-4.65765e-09
1.53388e-05
-7.80627e-09
1.53414e-05
-1.20392e-08
1.53446e-05
-1.75077e-08
1.53483e-05
-2.45395e-08
1.53528e-05
-3.35354e-08
1.53582e-05
-4.48406e-08
1.53647e-05
-5.87653e-08
1.53726e-05
-7.56596e-08
1.53821e-05
-9.59829e-08
1.53935e-05
-1.20374e-07
1.54072e-05
-1.49715e-07
1.54237e-05
-1.85168e-07
1.54436e-05
-2.28209e-07
1.54676e-05
-2.80663e-07
1.54965e-05
-3.44791e-07
1.55315e-05
-4.2339e-07
1.55738e-05
-5.19942e-07
1.56251e-05
-6.38821e-07
1.56873e-05
-7.85498e-07
1.5763e-05
-9.66781e-07
1.58553e-05
-1.1912e-06
1.59683e-05
-1.46967e-06
1.61072e-05
-1.8158e-06
1.62788e-05
-2.24756e-06
1.6493e-05
-2.78541e-06
1.67593e-05
-3.46329e-06
-4.29446e-06
1.71109e-05
1.53337e-05
-1.14622e-09
1.53347e-05
-3.44403e-09
1.53362e-05
-6.19427e-09
1.53382e-05
-9.76362e-09
1.53405e-05
-1.43979e-08
1.53434e-05
-2.03323e-08
1.53467e-05
-2.7917e-08
1.53508e-05
-3.75697e-08
1.53556e-05
-4.96723e-08
1.53614e-05
-6.45676e-08
1.53684e-05
-8.26302e-08
1.53767e-05
-1.04349e-07
1.53868e-05
-1.30404e-07
1.53988e-05
-1.61735e-07
1.54132e-05
-1.99579e-07
1.54305e-05
-2.45502e-07
1.54513e-05
-3.01445e-07
1.54763e-05
-3.69798e-07
1.55064e-05
-4.53519e-07
1.55428e-05
-5.56285e-07
1.55866e-05
-6.82703e-07
1.56397e-05
-8.38547e-07
1.57039e-05
-1.03104e-06
1.5782e-05
-1.26927e-06
1.58771e-05
-1.56481e-06
1.59936e-05
-1.93227e-06
1.61369e-05
-2.39084e-06
1.63153e-05
-2.9638e-06
1.65367e-05
-3.68469e-06
-4.58944e-06
1.68317e-05
1.53336e-05
-1.43838e-09
1.53345e-05
-4.3046e-09
1.53358e-05
-7.54038e-09
1.53376e-05
-1.1507e-08
1.53397e-05
-1.65096e-08
1.53422e-05
-2.28505e-08
1.53452e-05
-3.09102e-08
1.53488e-05
-4.11232e-08
1.5353e-05
-5.38981e-08
1.5358e-05
-6.96053e-08
1.5364e-05
-8.86412e-08
1.53712e-05
-1.11519e-07
1.53797e-05
-1.38953e-07
1.53899e-05
-1.71928e-07
1.54021e-05
-2.11742e-07
1.54166e-05
-2.60034e-07
1.5434e-05
-3.18833e-07
1.54549e-05
-3.9063e-07
1.54798e-05
-4.78505e-07
1.55098e-05
-5.86281e-07
1.55459e-05
-7.18741e-07
1.55892e-05
-8.81879e-07
1.56414e-05
-1.08322e-06
1.57043e-05
-1.33222e-06
1.57805e-05
-1.64097e-06
1.5873e-05
-2.02477e-06
1.59859e-05
-2.50374e-06
1.61255e-05
-3.10343e-06
1.62977e-05
-3.85685e-06
-4.82055e-06
1.65288e-05
1.53336e-05
-1.68874e-09
1.53343e-05
-5.04675e-09
1.53355e-05
-8.71348e-09
1.5337e-05
-1.30409e-08
1.53389e-05
-1.83703e-08
1.53411e-05
-2.50548e-08
1.53437e-05
-3.3506e-08
1.53467e-05
-4.41744e-08
1.53503e-05
-5.74883e-08
1.53546e-05
-7.38398e-08
1.53596e-05
-9.36435e-08
1.53655e-05
-1.17432e-07
1.53725e-05
-1.45945e-07
1.53808e-05
-1.80204e-07
1.53906e-05
-2.21548e-07
1.54022e-05
-2.71672e-07
1.5416e-05
-3.32666e-07
1.54325e-05
-4.07094e-07
1.54521e-05
-4.98117e-07
1.54755e-05
-6.09653e-07
1.55033e-05
-7.46599e-07
1.55365e-05
-9.15082e-07
1.55761e-05
-1.1228e-06
1.56233e-05
-1.37943e-06
1.56797e-05
-1.69733e-06
1.57471e-05
-2.09221e-06
1.58281e-05
-2.5847e-06
1.59266e-05
-3.20197e-06
1.60459e-05
-3.97619e-06
-4.98141e-06
1.62068e-05
1.53335e-05
-1.90389e-09
1.53342e-05
-5.68529e-09
1.53352e-05
-9.72833e-09
1.53365e-05
-1.43724e-08
1.53381e-05
-1.99797e-08
1.534e-05
-2.69408e-08
1.53422e-05
-3.56949e-08
1.53448e-05
-4.67073e-08
1.53477e-05
-6.04202e-08
1.53511e-05
-7.72414e-08
1.5355e-05
-9.75997e-08
1.53597e-05
-1.22041e-07
1.5365e-05
-1.51324e-07
1.53713e-05
-1.86491e-07
1.53787e-05
-2.28911e-07
1.53873e-05
-2.80313e-07
1.53975e-05
-3.42823e-07
1.54094e-05
-4.19048e-07
1.54235e-05
-5.12188e-07
1.54401e-05
-6.26207e-07
1.54595e-05
-7.66047e-07
1.54823e-05
-9.37881e-07
1.5509e-05
-1.14945e-06
1.554e-05
-1.41048e-06
1.55761e-05
-1.73338e-06
1.56178e-05
-2.1339e-06
1.56658e-05
-2.63275e-06
1.57217e-05
-3.25788e-06
1.57857e-05
-4.04018e-06
-5.06699e-06
1.58713e-05
1.53335e-05
-2.08846e-09
1.53341e-05
-6.23233e-09
1.53349e-05
-1.05984e-08
1.53361e-05
-1.551e-08
1.53374e-05
-2.13403e-08
1.5339e-05
-2.8507e-08
1.53408e-05
-3.74718e-08
1.53428e-05
-4.87121e-08
1.5345e-05
-6.2679e-08
1.53476e-05
-7.97902e-08
1.53505e-05
-1.00484e-07
1.53537e-05
-1.25314e-07
1.53575e-05
-1.55049e-07
1.53617e-05
-1.90742e-07
1.53666e-05
-2.33775e-07
1.53722e-05
-2.85891e-07
1.53786e-05
-3.49229e-07
1.53859e-05
-4.26403e-07
1.53944e-05
-5.20618e-07
1.5404e-05
-6.35832e-07
1.54149e-05
-7.76965e-07
1.54272e-05
-9.50145e-07
1.54407e-05
-1.16304e-06
1.54555e-05
-1.42525e-06
1.54711e-05
-1.74896e-06
1.54868e-05
-2.14966e-06
1.55017e-05
-2.64757e-06
1.55144e-05
-3.27058e-06
1.55218e-05
-4.04763e-06
-5.0743e-06
1.55291e-05
1.53335e-05
-2.24621e-09
1.5334e-05
-6.69867e-09
1.53347e-05
-1.13364e-08
1.53356e-05
-1.64637e-08
1.53368e-05
-2.24576e-08
1.5338e-05
-2.97553e-08
1.53394e-05
-3.88359e-08
1.53409e-05
-5.0185e-08
1.53424e-05
-6.42573e-08
1.53441e-05
-8.14752e-08
1.53459e-05
-1.02282e-07
1.53478e-05
-1.27234e-07
1.53499e-05
-1.57099e-07
1.53521e-05
-1.92932e-07
1.53544e-05
-2.36112e-07
1.53569e-05
-2.88374e-07
1.53595e-05
-3.51848e-07
1.53622e-05
-4.29125e-07
1.5365e-05
-5.23375e-07
1.53677e-05
-6.38501e-07
1.537e-05
-7.79337e-07
1.53718e-05
-9.51881e-07
1.53723e-05
-1.16361e-06
1.53709e-05
-1.42381e-06
1.53662e-05
-1.74425e-06
1.53563e-05
-2.13976e-06
1.53383e-05
-2.62958e-06
1.53083e-05
-3.24055e-06
1.52596e-05
-3.99893e-06
-5.00287e-06
1.51881e-05
1.53335e-05
-2.38066e-09
1.53339e-05
-7.09487e-09
1.53345e-05
-1.19559e-08
1.53353e-05
-1.72452e-08
1.53361e-05
-2.33396e-08
1.53371e-05
-3.0691e-08
1.5338e-05
-3.97911e-08
1.5339e-05
-5.11279e-08
1.53399e-05
-6.51551e-08
1.53407e-05
-8.22953e-08
1.53414e-05
-1.02991e-07
1.5342e-05
-1.27796e-07
1.53423e-05
-1.57471e-07
1.53425e-05
-1.93058e-07
1.53423e-05
-2.35919e-07
1.53417e-05
-2.87765e-07
1.53405e-05
-3.50688e-07
1.53386e-05
-4.27231e-07
1.53357e-05
-5.20492e-07
1.53315e-05
-6.34271e-07
1.53254e-05
-7.73256e-07
1.53168e-05
-9.43237e-07
1.53045e-05
-1.15138e-06
1.52873e-05
-1.40653e-06
1.52628e-05
-1.71977e-06
1.5228e-05
-2.10499e-06
1.51783e-05
-2.5799e-06
1.51072e-05
-3.16937e-06
1.50044e-05
-3.89619e-06
-4.85516e-06
1.48567e-05
1.53334e-05
-2.49565e-09
1.53338e-05
-7.43213e-09
1.53343e-05
-1.24713e-08
1.53349e-05
-1.7868e-08
1.53356e-05
-2.3997e-08
1.53362e-05
-3.13231e-08
1.53368e-05
-4.03453e-08
1.53372e-05
-5.15485e-08
1.53374e-05
-6.53801e-08
1.53374e-05
-8.22583e-08
1.5337e-05
-1.02621e-07
1.53362e-05
-1.27014e-07
1.53349e-05
-1.5618e-07
1.5333e-05
-1.9114e-07
1.53303e-05
-2.33224e-07
1.53267e-05
-2.84099e-07
1.53218e-05
-3.458e-07
1.53153e-05
-4.20791e-07
1.53069e-05
-5.12064e-07
1.52959e-05
-6.23277e-07
1.52816e-05
-7.58915e-07
1.52628e-05
-9.24485e-07
1.52382e-05
-1.12675e-06
1.52056e-05
-1.37398e-06
1.51622e-05
-1.67638e-06
1.51038e-05
-2.04659e-06
1.50243e-05
-2.50036e-06
1.49146e-05
-3.05971e-06
1.47617e-05
-3.74325e-06
-4.63675e-06
1.45433e-05
1.53334e-05
-2.59572e-09
1.53337e-05
-7.72343e-09
1.53342e-05
-1.28994e-08
1.53346e-05
-1.83477e-08
1.53351e-05
-2.44429e-08
1.53354e-05
-3.16634e-08
1.53356e-05
-4.05111e-08
1.53355e-05
-5.14601e-08
1.53351e-05
-6.49467e-08
1.53342e-05
-8.13814e-08
1.53328e-05
-1.01194e-07
1.53307e-05
-1.24912e-07
1.53277e-05
-1.53259e-07
1.53238e-05
-1.87219e-07
1.53187e-05
-2.28079e-07
1.5312e-05
-2.77445e-07
1.53035e-05
-3.37272e-07
1.52926e-05
-4.09921e-07
1.52788e-05
-4.98249e-07
1.52613e-05
-6.05729e-07
1.52389e-05
-7.36599e-07
1.52105e-05
-8.96022e-07
1.5174e-05
-1.09027e-06
1.5127e-05
-1.32693e-06
1.50658e-05
-1.6152e-06
1.49854e-05
-1.96621e-06
1.48784e-05
-2.3934e-06
1.4734e-05
-2.91525e-06
1.45363e-05
-3.5456e-06
-4.35623e-06
1.42558e-05
1.53334e-05
-2.68653e-09
1.53337e-05
-7.98468e-09
1.5334e-05
-1.32603e-08
1.53344e-05
-1.87023e-08
1.53347e-05
-2.46924e-08
1.53347e-05
-3.17274e-08
1.53345e-05
-4.03053e-08
1.53339e-05
-5.08816e-08
1.53329e-05
-6.38767e-08
1.53312e-05
-7.96907e-08
1.53287e-05
-9.87398e-08
1.53253e-05
-1.21531e-07
1.53208e-05
-1.48757e-07
1.5315e-05
-1.81359e-07
1.53075e-05
-2.20564e-07
1.52979e-05
-2.67903e-07
1.52859e-05
-3.25232e-07
1.52707e-05
-3.94786e-07
1.52517e-05
-4.79258e-07
1.52279e-05
-5.81905e-07
1.5198e-05
-7.06678e-07
1.51603e-05
-8.58345e-07
1.51127e-05
-1.04263e-06
1.50521e-05
-1.26636e-06
1.49745e-05
-1.53759e-06
1.48741e-05
-1.86583e-06
1.47427e-05
-2.26197e-06
1.45679e-05
-2.74045e-06
1.43324e-05
-3.31005e-06
-4.02474e-06
1.40009e-05
1.53334e-05
-2.7756e-09
1.53337e-05
-8.23645e-09
1.5334e-05
-1.35778e-08
1.53342e-05
-1.89515e-08
1.53343e-05
-2.47629e-08
1.53341e-05
-3.15336e-08
1.53336e-05
-3.97492e-08
1.53325e-05
-4.98365e-08
1.53308e-05
-6.21978e-08
1.53284e-05
-7.72207e-08
1.53249e-05
-9.5303e-08
1.53203e-05
-1.16925e-07
1.53143e-05
-1.42741e-07
1.53066e-05
-1.73641e-07
1.52968e-05
-2.10782e-07
1.52845e-05
-2.55602e-07
1.52691e-05
-3.09842e-07
1.52499e-05
-3.75592e-07
1.5226e-05
-4.55355e-07
1.51963e-05
-5.52148e-07
1.51592e-05
-6.69598e-07
1.51129e-05
-8.12046e-07
1.50549e-05
-9.84631e-07
1.49819e-05
-1.19335e-06
1.48894e-05
-1.4451e-06
1.47712e-05
-1.74768e-06
1.46186e-05
-2.10938e-06
1.44186e-05
-2.54037e-06
1.41529e-05
-3.04436e-06
-3.65527e-06
1.37834e-05
1.53334e-05
-2.87334e-09
1.53337e-05
-8.50618e-09
1.5334e-05
-1.38828e-08
1.53342e-05
-1.91166e-08
1.53341e-05
-2.4671e-08
1.53336e-05
-3.11028e-08
1.53328e-05
-3.88654e-08
1.53313e-05
-4.83517e-08
1.5329e-05
-5.99454e-08
1.53258e-05
-7.4017e-08
1.53215e-05
-9.09396e-08
1.53157e-05
-1.1116e-07
1.53082e-05
-1.35292e-07
1.52988e-05
-1.64166e-07
1.52868e-05
-1.98858e-07
1.52719e-05
-2.407e-07
1.52534e-05
-2.913e-07
1.52304e-05
-3.52585e-07
1.52019e-05
-4.26851e-07
1.51666e-05
-5.16851e-07
1.51229e-05
-6.25867e-07
1.50686e-05
-7.57787e-07
1.50011e-05
-9.17142e-07
1.49169e-05
-1.1091e-06
1.48112e-05
-1.33939e-06
1.46776e-05
-1.61412e-06
1.45073e-05
-1.9391e-06
1.42872e-05
-2.32028e-06
1.39996e-05
-2.75672e-06
-3.26169e-06
1.3606e-05
1.53335e-05
-2.99499e-09
1.53338e-05
-8.83205e-09
1.53341e-05
-1.42072e-08
1.53342e-05
-1.92198e-08
1.5334e-05
-2.4438e-08
1.53333e-05
-3.04574e-08
1.53322e-05
-3.76859e-08
1.53303e-05
-4.64668e-08
1.53275e-05
-5.7162e-08
1.53236e-05
-7.01268e-08
1.53184e-05
-8.57069e-08
1.53115e-05
-1.04311e-07
1.53027e-05
-1.26505e-07
1.52916e-05
-1.53055e-07
1.52777e-05
-1.84941e-07
1.52604e-05
-2.23377e-07
1.52389e-05
-2.69831e-07
1.52124e-05
-3.26045e-07
1.51796e-05
-3.94097e-07
1.51392e-05
-4.76456e-07
1.50894e-05
-5.76046e-07
1.50279e-05
-6.96289e-07
1.49519e-05
-8.41108e-07
1.48576e-05
-1.01486e-06
1.47404e-05
-1.22215e-06
1.45938e-05
-1.46753e-06
1.44093e-05
-1.75459e-06
1.41744e-05
-2.0854e-06
1.38728e-05
-2.45514e-06
-2.85762e-06
1.34688e-05
1.53335e-05
-3.16385e-09
1.53339e-05
-9.26924e-09
1.53343e-05
-1.45923e-08
1.53344e-05
-1.92802e-08
1.5334e-05
-2.40897e-08
1.53332e-05
-2.9633e-08
1.53318e-05
-3.62392e-08
1.53295e-05
-4.42086e-08
1.53262e-05
-5.38871e-08
1.53217e-05
-6.56074e-08
1.53157e-05
-7.96791e-08
1.53078e-05
-9.64688e-08
1.52978e-05
-1.16493e-07
1.52852e-05
-1.40443e-07
1.52695e-05
-1.69197e-07
1.52499e-05
-2.03842e-07
1.52258e-05
-2.45687e-07
1.5196e-05
-2.96286e-07
1.51594e-05
-3.57479e-07
1.51144e-05
-4.31443e-07
1.50591e-05
-5.20736e-07
1.49911e-05
-6.28314e-07
1.49075e-05
-7.57503e-07
1.48045e-05
-9.11897e-07
1.46775e-05
-1.09507e-06
1.45202e-05
-1.31022e-06
1.43247e-05
-1.55909e-06
1.40798e-05
-1.84055e-06
1.37716e-05
-2.14691e-06
-2.45535e-06
1.33693e-05
1.53336e-05
-3.41923e-09
1.53342e-05
-9.89559e-09
1.53347e-05
-1.50792e-08
1.53347e-05
-1.93176e-08
1.53343e-05
-2.3652e-08
1.53333e-05
-2.86572e-08
1.53316e-05
-3.45562e-08
1.53291e-05
-4.16175e-08
1.53253e-05
-5.01709e-08
1.53202e-05
-6.05211e-08
1.53135e-05
-7.29329e-08
1.53048e-05
-8.77275e-08
1.52936e-05
-1.05374e-07
1.52797e-05
-1.26479e-07
1.52623e-05
-1.5181e-07
1.52408e-05
-1.82317e-07
1.52142e-05
-2.19145e-07
1.51816e-05
-2.63645e-07
1.51415e-05
-3.17413e-07
1.50924e-05
-3.82326e-07
1.50322e-05
-4.60573e-07
1.49586e-05
-5.5465e-07
1.48684e-05
-6.67318e-07
1.4758e-05
-8.01462e-07
1.46227e-05
-9.59771e-07
1.44567e-05
-1.14428e-06
1.42531e-05
-1.35549e-06
1.40024e-05
-1.58979e-06
1.36934e-05
-1.83798e-06
-2.06486e-06
1.33029e-05
1.53337e-05
-3.83416e-09
1.53347e-05
-1.08227e-08
1.53353e-05
-1.56915e-08
1.53353e-05
-1.93473e-08
1.53348e-05
-2.31651e-08
1.53337e-05
-2.75697e-08
1.53319e-05
-3.26752e-08
1.5329e-05
-3.874e-08
1.53249e-05
-4.60709e-08
1.53193e-05
-5.49405e-08
1.53119e-05
-6.55585e-08
1.53024e-05
-7.81986e-08
1.52903e-05
-9.32824e-08
1.52752e-05
-1.11327e-07
1.52563e-05
-1.32978e-07
1.52331e-05
-1.59047e-07
1.52044e-05
-1.905e-07
1.51692e-05
-2.28482e-07
1.51262e-05
-2.74337e-07
1.50735e-05
-3.29638e-07
1.50091e-05
-3.96205e-07
1.49306e-05
-4.76093e-07
1.48348e-05
-5.71527e-07
1.47181e-05
-6.84757e-07
1.4576e-05
-8.17715e-07
1.44033e-05
-9.71555e-07
1.41939e-05
-1.14615e-06
1.39404e-05
-1.33629e-06
1.36353e-05
-1.53286e-06
-1.69333e-06
1.32638e-05
1.53341e-05
-4.55091e-09
1.53354e-05
-1.22202e-08
1.53362e-05
-1.64177e-08
1.53362e-05
-1.93721e-08
1.53357e-05
-2.26519e-08
1.53345e-05
-2.63857e-08
1.53324e-05
-3.06199e-08
1.53293e-05
-3.5619e-08
1.53249e-05
-4.16453e-08
1.53189e-05
-4.89397e-08
1.5311e-05
-5.7641e-08
1.53008e-05
-6.79918e-08
1.52879e-05
-8.03614e-08
1.52717e-05
-9.51612e-08
1.52516e-05
-1.12918e-07
1.52269e-05
-1.34292e-07
1.51964e-05
-1.60072e-07
1.51591e-05
-1.91184e-07
1.51135e-05
-2.28719e-07
1.50578e-05
-2.73945e-07
1.499e-05
-3.2832e-07
1.49073e-05
-3.93467e-07
1.48069e-05
-4.71126e-07
1.46852e-05
-5.6299e-07
1.45378e-05
-6.70343e-07
1.43599e-05
-7.93701e-07
1.4147e-05
-9.33212e-07
1.38934e-05
-1.08274e-06
1.3596e-05
-1.23545e-06
-1.34494e-06
1.32476e-05
1.53346e-05
-5.82556e-09
1.53367e-05
-1.43074e-08
1.53375e-05
-1.72608e-08
1.53376e-05
-1.94774e-08
1.53372e-05
-2.217e-08
1.53359e-05
-2.51274e-08
1.53337e-05
-2.84185e-08
1.53304e-05
-3.22966e-08
1.53257e-05
-3.69528e-08
1.53194e-05
-4.26158e-08
1.5311e-05
-4.92861e-08
1.53002e-05
-5.72305e-08
1.52867e-05
-6.67642e-08
1.52697e-05
-7.81733e-08
1.52486e-05
-9.18653e-08
1.52227e-05
-1.08347e-07
1.51908e-05
-1.28218e-07
1.51518e-05
-1.52189e-07
1.51042e-05
-1.81095e-07
1.50461e-05
-2.15903e-07
1.49755e-05
-2.57718e-07
1.48898e-05
-3.07759e-07
1.4786e-05
-3.67331e-07
1.46607e-05
-4.37675e-07
1.451e-05
-5.19568e-07
1.43295e-05
-6.13214e-07
1.41162e-05
-7.19986e-07
1.38662e-05
-8.32731e-07
1.35808e-05
-9.50021e-07
-1.01968e-06
1.32555e-05
1.53357e-05
-8.17737e-09
1.53384e-05
-1.6979e-08
1.53392e-05
-1.81317e-08
1.53395e-05
-1.97874e-08
1.53391e-05
-2.17592e-08
1.53378e-05
-2.38292e-08
1.53355e-05
-2.61331e-08
1.53321e-05
-2.8845e-08
1.53272e-05
-3.20383e-08
1.53206e-05
-3.60469e-08
1.53119e-05
-4.06109e-08
1.53008e-05
-4.60623e-08
1.52867e-05
-5.26656e-08
1.52691e-05
-6.05701e-08
1.52473e-05
-7.00739e-08
1.52205e-05
-8.15242e-08
1.51876e-05
-9.53335e-08
1.51474e-05
-1.11997e-07
1.50984e-05
-1.32102e-07
1.50388e-05
-1.56332e-07
1.49666e-05
-1.8547e-07
1.48792e-05
-2.20387e-07
1.47739e-05
-2.62022e-07
1.46475e-05
-3.11272e-07
1.44965e-05
-3.68635e-07
1.43178e-05
-4.34437e-07
1.41087e-05
-5.10913e-07
1.38648e-05
-5.88871e-07
1.35879e-05
-6.73124e-07
-6.99704e-07
1.3268e-05
1.53393e-05
-1.41813e-08
1.53421e-05
-1.96975e-08
1.53428e-05
-1.88578e-08
1.53426e-05
-1.95876e-08
1.53415e-05
-2.07248e-08
1.53395e-05
-2.18159e-08
1.53364e-05
-2.29997e-08
1.5332e-05
-2.4405e-08
1.5326e-05
-2.60514e-08
1.53181e-05
-2.81946e-08
1.53081e-05
-3.05542e-08
1.52954e-05
-3.34e-08
1.52796e-05
-3.68983e-08
1.52602e-05
-4.11005e-08
1.52363e-05
-4.61827e-08
1.52071e-05
-5.23449e-08
1.51716e-05
-5.98253e-08
1.51285e-05
-6.89134e-08
1.50764e-05
-7.99541e-08
1.50134e-05
-9.33513e-08
1.49375e-05
-1.09569e-07
1.48462e-05
-1.29123e-07
1.47367e-05
-1.52558e-07
1.46058e-05
-1.8037e-07
1.44501e-05
-2.12888e-07
1.42654e-05
-2.49767e-07
1.40433e-05
-2.88756e-07
1.37814e-05
-3.27047e-07
1.34765e-05
-3.68196e-07
-3.17652e-07
1.30945e-05
1.53192e-05
1.52995e-05
1.52806e-05
1.5261e-05
1.52403e-05
1.52185e-05
1.51955e-05
1.51711e-05
1.5145e-05
1.51168e-05
1.50863e-05
1.50529e-05
1.5016e-05
1.49749e-05
1.49287e-05
1.48763e-05
1.48165e-05
1.47476e-05
1.46676e-05
1.45743e-05
1.44647e-05
1.43356e-05
1.4183e-05
1.40027e-05
1.37898e-05
1.354e-05
1.32513e-05
1.29242e-05
1.2556e-05
1.22384e-05
1.77821e-05
-8.29131e-06
8.54224e-06
1.7551e-05
-8.44765e-06
8.67876e-06
1.72835e-05
-8.6029e-06
8.87036e-06
1.69815e-05
-8.74951e-06
9.05152e-06
1.66511e-05
-8.89606e-06
9.22647e-06
1.62986e-05
-9.04724e-06
9.39973e-06
1.59279e-05
-9.2047e-06
9.57542e-06
1.55412e-05
-9.36941e-06
9.75609e-06
1.51397e-05
-9.54216e-06
9.94364e-06
1.47236e-05
-9.72341e-06
1.01396e-05
1.42921e-05
-9.91336e-06
1.03448e-05
1.38444e-05
-1.01122e-05
1.056e-05
1.33793e-05
-1.03205e-05
1.07856e-05
1.28957e-05
-1.05391e-05
1.10226e-05
1.23927e-05
-1.07691e-05
1.12721e-05
1.1869e-05
-1.10121e-05
1.15357e-05
1.13234e-05
-1.12699e-05
1.18156e-05
1.07541e-05
-1.15449e-05
1.21142e-05
1.01591e-05
-1.18399e-05
1.24349e-05
9.53558e-06
-1.21583e-05
1.27817e-05
8.88025e-06
-1.25044e-05
1.31597e-05
8.18863e-06
-1.28836e-05
1.35753e-05
7.45493e-06
-1.33029e-05
1.40366e-05
6.67155e-06
-1.37711e-05
1.45545e-05
5.82753e-06
-1.42989e-05
1.5143e-05
4.91002e-06
-1.49016e-05
1.58191e-05
3.90453e-06
-1.55944e-05
1.65999e-05
2.73405e-06
-1.6428e-05
1.75985e-05
1.53546e-06
-1.72629e-05
1.84615e-05
-1.87712e-05
2.03067e-05
1.7964e-05
-8.02103e-06
1.76572e-05
-8.14081e-06
1.73223e-05
-8.26803e-06
1.69702e-05
-8.39742e-06
1.66058e-05
-8.53161e-06
1.62311e-05
-8.67253e-06
1.58466e-05
-8.82026e-06
1.54518e-05
-8.97462e-06
1.50454e-05
-9.13571e-06
1.46257e-05
-9.30375e-06
1.41914e-05
-9.479e-06
1.37411e-05
-9.66198e-06
1.3274e-05
-9.8534e-06
1.27891e-05
-1.00542e-05
1.22856e-05
-1.02656e-05
1.17624e-05
-1.04888e-05
1.12179e-05
-1.07255e-05
1.06505e-05
-1.09775e-05
1.00579e-05
-1.12473e-05
9.4374e-06
-1.15377e-05
8.78548e-06
-1.18524e-05
8.09769e-06
-1.21958e-05
7.36823e-06
-1.25735e-05
6.58952e-06
-1.29924e-05
5.7515e-06
-1.34609e-05
4.84109e-06
-1.39912e-05
3.83994e-06
-1.45933e-05
2.71219e-06
-1.53003e-05
1.4914e-06
-1.60421e-05
-1.72798e-05
1.78521e-05
-7.70557e-06
1.75217e-05
-7.81037e-06
1.7178e-05
-7.9244e-06
1.68256e-05
-8.04505e-06
1.64652e-05
-8.17121e-06
1.60954e-05
-8.30265e-06
1.57145e-05
-8.43937e-06
1.53213e-05
-8.58147e-06
1.49149e-05
-8.72927e-06
1.44943e-05
-8.88317e-06
1.4059e-05
-9.04368e-06
1.36084e-05
-9.21135e-06
1.31418e-05
-9.38684e-06
1.26585e-05
-9.57093e-06
1.21574e-05
-9.76451e-06
1.16373e-05
-9.96868e-06
1.10966e-05
-1.01847e-05
1.05334e-05
-1.04143e-05
9.94549e-06
-1.06594e-05
9.32996e-06
-1.09222e-05
8.6833e-06
-1.12058e-05
8.00099e-06
-1.15135e-05
7.27727e-06
-1.18498e-05
6.50465e-06
-1.22198e-05
5.67342e-06
-1.26297e-05
4.77068e-06
-1.30885e-05
3.77946e-06
-1.36021e-05
2.6737e-06
-1.41945e-05
1.45105e-06
-1.48195e-05
-1.58288e-05
1.7746e-05
-7.37944e-06
1.74105e-05
-7.47484e-06
1.70645e-05
-7.57838e-06
1.67089e-05
-7.68953e-06
1.63438e-05
-7.80606e-06
1.5968e-05
-7.92682e-06
1.55807e-05
-8.05205e-06
1.51814e-05
-8.18224e-06
1.47699e-05
-8.31775e-06
1.43456e-05
-8.45889e-06
1.3908e-05
-8.60602e-06
1.34562e-05
-8.75957e-06
1.29894e-05
-8.92008e-06
1.25067e-05
-9.08816e-06
1.20067e-05
-9.26457e-06
1.14883e-05
-9.45023e-06
1.09497e-05
-9.64621e-06
1.03892e-05
-9.85381e-06
9.80443e-06
-1.00746e-05
9.19254e-06
-1.03103e-05
8.54998e-06
-1.05632e-05
7.87231e-06
-1.08359e-05
7.1539e-06
-1.11314e-05
6.38755e-06
-1.14534e-05
5.56403e-06
-1.18061e-05
4.67127e-06
-1.21957e-05
3.69375e-06
-1.26245e-05
2.61031e-06
-1.31111e-05
1.405e-06
-1.36142e-05
-1.44238e-05
1.76067e-05
-7.04448e-06
1.72635e-05
-7.13157e-06
1.69107e-05
-7.22566e-06
1.65489e-05
-7.3277e-06
1.61779e-05
-7.43502e-06
1.5797e-05
-7.54599e-06
1.54058e-05
-7.66083e-06
1.50037e-05
-7.78014e-06
1.45902e-05
-7.90422e-06
1.41646e-05
-8.03327e-06
1.37261e-05
-8.16755e-06
1.3274e-05
-8.30746e-06
1.28074e-05
-8.45344e-06
1.23252e-05
-8.60602e-06
1.18264e-05
-8.76581e-06
1.13097e-05
-8.93352e-06
1.07735e-05
-9.10998e-06
1.02159e-05
-9.29616e-06
9.63447e-06
-9.49319e-06
9.02652e-06
-9.70237e-06
8.38853e-06
-9.92522e-06
7.71616e-06
-1.01635e-05
7.00402e-06
-1.04192e-05
6.24529e-06
-1.06947e-05
5.43131e-06
-1.09922e-05
4.55102e-06
-1.13154e-05
3.59035e-06
-1.16639e-05
2.53061e-06
-1.20513e-05
1.35206e-06
-1.24356e-05
-1.30717e-05
1.74376e-05
-6.70237e-06
1.70879e-05
-6.78192e-06
1.67298e-05
-6.86751e-06
1.63631e-05
-6.96106e-06
1.59878e-05
-7.05965e-06
1.56031e-05
-7.16131e-06
1.52085e-05
-7.26624e-06
1.48034e-05
-7.3751e-06
1.43874e-05
-7.48818e-06
1.39597e-05
-7.60561e-06
1.35198e-05
-7.72759e-06
1.30668e-05
-7.85445e-06
1.25999e-05
-7.98654e-06
1.21181e-05
-8.12425e-06
1.16203e-05
-8.26803e-06
1.11052e-05
-8.41838e-06
1.05711e-05
-8.57589e-06
1.00162e-05
-8.74123e-06
9.4381e-06
-8.91512e-06
8.83415e-06
-9.09842e-06
8.20095e-06
-9.29202e-06
7.53437e-06
-9.49693e-06
6.82931e-06
-9.71415e-06
6.07942e-06
-9.94481e-06
5.27676e-06
-1.01895e-05
4.41129e-06
-1.04499e-05
3.47043e-06
-1.0723e-05
2.43774e-06
-1.10186e-05
1.29363e-06
-1.12915e-05
-1.17781e-05
1.72382e-05
-6.35384e-06
1.68827e-05
-6.42646e-06
1.65194e-05
-6.50422e-06
1.61481e-05
-6.58974e-06
1.57684e-05
-6.67997e-06
1.53799e-05
-6.77275e-06
1.49819e-05
-6.86828e-06
1.4574e-05
-6.96724e-06
1.41558e-05
-7.0699e-06
1.37264e-05
-7.1763e-06
1.32854e-05
-7.28658e-06
1.28319e-05
-7.40097e-06
1.23651e-05
-7.51972e-06
1.1884e-05
-7.64311e-06
1.13874e-05
-7.77142e-06
1.0874e-05
-7.90498e-06
1.03422e-05
-8.04413e-06
9.79024e-06
-8.18925e-06
9.21585e-06
-8.34073e-06
8.6164e-06
-8.49896e-06
7.98869e-06
-8.66431e-06
7.32883e-06
-8.83708e-06
6.6321e-06
-9.01742e-06
5.89266e-06
-9.20537e-06
5.10336e-06
-9.40021e-06
4.25523e-06
-9.60179e-06
3.33723e-06
-9.805e-06
2.33516e-06
-1.00166e-05
1.2315e-06
-1.01878e-05
-1.05466e-05
1.7009e-05
-5.99954e-06
1.66483e-05
-6.06577e-06
1.62804e-05
-6.13628e-06
1.59048e-05
-6.2142e-06
1.55214e-05
-6.29648e-06
1.51295e-05
-6.38086e-06
1.47287e-05
-6.46749e-06
1.43185e-05
-6.55705e-06
1.38984e-05
-6.64978e-06
1.34677e-05
-6.74565e-06
1.30259e-05
-6.84474e-06
1.25721e-05
-6.94718e-06
1.21055e-05
-7.05314e-06
1.16251e-05
-7.16276e-06
1.11299e-05
-7.27618e-06
1.06185e-05
-7.39355e-06
1.00894e-05
-7.51501e-06
9.54076e-06
-7.64065e-06
8.97057e-06
-7.77054e-06
8.37629e-06
-7.90468e-06
7.75492e-06
-8.04295e-06
7.10289e-06
-8.18504e-06
6.41585e-06
-8.33039e-06
5.68857e-06
-8.47809e-06
4.91469e-06
-8.62633e-06
4.08634e-06
-8.77345e-06
3.19411e-06
-8.91277e-06
2.2259e-06
-9.04837e-06
1.16722e-06
-9.12915e-06
-9.37937e-06
1.67514e-05
-5.64008e-06
1.63861e-05
-5.70039e-06
1.6014e-05
-5.7642e-06
1.56347e-05
-5.83495e-06
1.52479e-05
-5.90967e-06
1.48531e-05
-5.98607e-06
1.44499e-05
-6.06426e-06
1.40378e-05
-6.1449e-06
1.36162e-05
-6.22818e-06
1.31846e-05
-6.31403e-06
1.27422e-05
-6.40244e-06
1.22885e-05
-6.49346e-06
1.18226e-05
-6.58718e-06
1.13434e-05
-6.68361e-06
1.085e-05
-6.78276e-06
1.0341e-05
-6.8846e-06
9.81511e-06
-6.98908e-06
9.27052e-06
-7.09606e-06
8.70529e-06
-7.20531e-06
8.11708e-06
-7.31647e-06
7.50314e-06
-7.42901e-06
6.8602e-06
-7.54211e-06
6.1844e-06
-7.65458e-06
5.47106e-06
-7.76475e-06
4.71467e-06
-7.86994e-06
3.90844e-06
-7.96722e-06
3.04456e-06
-8.04889e-06
2.11289e-06
-8.1167e-06
1.10229e-06
-8.11855e-06
-8.27708e-06
1.64676e-05
-5.27606e-06
1.60982e-05
-5.33093e-06
1.57225e-05
-5.38856e-06
1.53401e-05
-5.45255e-06
1.49505e-05
-5.52008e-06
1.45534e-05
-5.58891e-06
1.41483e-05
-5.65912e-06
1.37347e-05
-5.73131e-06
1.33121e-05
-5.80562e-06
1.288e-05
-5.88193e-06
1.24377e-05
-5.96017e-06
1.19846e-05
-6.04031e-06
1.15197e-05
-6.12235e-06
1.10423e-05
-6.20619e-06
1.05513e-05
-6.29171e-06
1.00454e-05
-6.37875e-06
9.5234e-06
-6.46705e-06
8.98361e-06
-6.55627e-06
8.42423e-06
-6.64593e-06
7.84313e-06