/*--------------------------------*- C++ -*----------------------------------*\
  =========                 |
  \\      /  F ield         | OpenFOAM: The Open Source CFD Toolbox
   \\    /   O peration     | Website:  https://openfoam.org
    \\  /    A nd           | Version:  11
     \\/     M anipulation  |
\*---------------------------------------------------------------------------*/
FoamFile
{
    format      ascii;
    class       surfaceScalarField;
    location    "8";
    object      phi;
}
// * * * * * * * * * * * * * * * * * * * * * * * * * * * * * * * * * * * * * //

dimensions      [0 3 -1 0 0 0 0];

internalField   nonuniform List<scalar> 
24840
(
1.57973e-05
1.37155e-08
1.57785e-05
1.8721e-08
1.5761e-05
1.74878e-08
1.57437e-05
1.73765e-08
1.5726e-05
1.76574e-08
1.57083e-05
1.77219e-08
1.56906e-05
1.76602e-08
1.56731e-05
1.75643e-08
1.56556e-05
1.74377e-08
1.56384e-05
1.72688e-08
1.56213e-05
1.70498e-08
1.56045e-05
1.67728e-08
1.55881e-05
1.64214e-08
1.55721e-05
1.59727e-08
1.55567e-05
1.54055e-08
1.5542e-05
1.46944e-08
1.55282e-05
1.38185e-08
1.55155e-05
1.27698e-08
1.5504e-05
1.14904e-08
1.54941e-05
9.85828e-09
1.54863e-05
7.7789e-09
1.54811e-05
5.2641e-09
1.54789e-05
2.1779e-09
1.54807e-05
-1.77688e-09
1.54875e-05
-6.836e-09
1.55007e-05
-1.31839e-08
1.55225e-05
-2.17943e-08
1.55555e-05
-3.30729e-08
1.56093e-05
-5.37153e-08
-1.2402e-07
1.57333e-05
1.5817e-05
7.69147e-09
1.58206e-05
1.5139e-08
1.5823e-05
1.50697e-08
1.5825e-05
1.53277e-08
1.5827e-05
1.57418e-08
1.58289e-05
1.58245e-08
1.58308e-05
1.57189e-08
1.58328e-05
1.55459e-08
1.58349e-05
1.53044e-08
1.58372e-05
1.49807e-08
1.58397e-05
1.45621e-08
1.58425e-05
1.40341e-08
1.58455e-05
1.33633e-08
1.5849e-05
1.25049e-08
1.5853e-05
1.14219e-08
1.58576e-05
1.00663e-08
1.5863e-05
8.41103e-09
1.58694e-05
6.41369e-09
1.58769e-05
3.98886e-09
1.58858e-05
9.53814e-10
1.58965e-05
-2.92212e-09
1.59093e-05
-7.59715e-09
1.59249e-05
-1.33995e-08
1.59438e-05
-2.07041e-08
1.59668e-05
-2.97732e-08
1.59951e-05
-4.15072e-08
1.60291e-05
-5.57584e-08
1.60729e-05
-7.69076e-08
1.61198e-05
-1.00591e-07
-1.31605e-07
1.61274e-05
1.58136e-05
5.06728e-09
1.58169e-05
1.18393e-08
1.58188e-05
1.31218e-08
1.58208e-05
1.33243e-08
1.58228e-05
1.37743e-08
1.58247e-05
1.39029e-08
1.58267e-05
1.3743e-08
1.58288e-05
1.34627e-08
1.5831e-05
1.30957e-08
1.58333e-05
1.26349e-08
1.58359e-05
1.20533e-08
1.58386e-05
1.13246e-08
1.58415e-05
1.03976e-08
1.58448e-05
9.19857e-09
1.58486e-05
7.64911e-09
1.5853e-05
5.72247e-09
1.5858e-05
3.34297e-09
1.5864e-05
4.1847e-10
1.58711e-05
-3.05521e-09
1.58794e-05
-7.43212e-09
1.58894e-05
-1.28584e-08
1.59013e-05
-1.95146e-08
1.59157e-05
-2.77779e-08
1.59331e-05
-3.81349e-08
1.59544e-05
-5.1084e-08
1.59805e-05
-6.75435e-08
1.60129e-05
-8.81838e-08
1.60506e-05
-1.14581e-07
1.60978e-05
-1.47801e-07
-1.75868e-07
1.6142e-05
1.58125e-05
3.55821e-09
1.58152e-05
9.14847e-09
1.58171e-05
1.119e-08
1.58188e-05
1.15869e-08
1.58207e-05
1.19421e-08
1.58225e-05
1.20437e-08
1.58244e-05
1.18346e-08
1.58265e-05
1.1446e-08
1.58286e-05
1.09494e-08
1.58309e-05
1.0351e-08
1.58333e-05
9.60883e-09
1.5836e-05
8.68487e-09
1.58389e-05
7.49987e-09
1.58421e-05
5.9577e-09
1.58458e-05
3.95447e-09
1.585e-05
1.51502e-09
1.58549e-05
-1.58846e-09
1.58607e-05
-5.34815e-09
1.58676e-05
-9.90074e-09
1.58756e-05
-1.55195e-08
1.58852e-05
-2.24485e-08
1.58967e-05
-3.0992e-08
1.59105e-05
-4.1601e-08
1.59273e-05
-5.48754e-08
1.59477e-05
-7.15074e-08
1.59726e-05
-9.24608e-08
1.60032e-05
-1.18779e-07
1.60399e-05
-1.51266e-07
1.60856e-05
-1.93491e-07
-2.30534e-07
1.61402e-05
1.58119e-05
2.63202e-09
1.58139e-05
7.16432e-09
1.58157e-05
9.40534e-09
1.58172e-05
1.00164e-08
1.58189e-05
1.02442e-08
1.58207e-05
1.02553e-08
1.58226e-05
9.97468e-09
1.58245e-05
9.47783e-09
1.58266e-05
8.85479e-09
1.58289e-05
8.12174e-09
1.58312e-05
7.2289e-09
1.58338e-05
6.11807e-09
1.58366e-05
4.6843e-09
1.58398e-05
2.80922e-09
1.58434e-05
3.54152e-10
1.58475e-05
-2.58816e-09
1.58522e-05
-6.33875e-09
1.58578e-05
-1.08958e-08
1.58643e-05
-1.64363e-08
1.5872e-05
-2.32326e-08
1.58812e-05
-3.15957e-08
1.58921e-05
-4.19174e-08
1.59052e-05
-5.4735e-08
1.59211e-05
-7.075e-08
1.59404e-05
-9.08103e-08
1.59639e-05
-1.15973e-07
1.59927e-05
-1.4758e-07
1.60279e-05
-1.86422e-07
1.60713e-05
-2.36899e-07
-2.86218e-07
1.6127e-05
1.58116e-05
2.0237e-09
1.58131e-05
5.67152e-09
1.58147e-05
7.8027e-09
1.58162e-05
8.51951e-09
1.58178e-05
8.65429e-09
1.58195e-05
8.54201e-09
1.58213e-05
8.16481e-09
1.58232e-05
7.56326e-09
1.58252e-05
6.8203e-09
1.58274e-05
5.95594e-09
1.58297e-05
4.91571e-09
1.58322e-05
3.61517e-09
1.58349e-05
1.95193e-09
1.5838e-05
-2.26744e-10
1.58414e-05
-3.04422e-09
1.58453e-05
-6.51811e-09
1.58498e-05
-1.08654e-08
1.58551e-05
-1.61732e-08
1.58613e-05
-2.2628e-08
1.58686e-05
-3.05216e-08
1.58772e-05
-4.02161e-08
1.58875e-05
-5.21779e-08
1.58998e-05
-6.70267e-08
1.59146e-05
-8.55601e-08
1.59325e-05
-1.08763e-07
1.59544e-05
-1.37823e-07
1.59811e-05
-1.74329e-07
1.6014e-05
-2.19328e-07
1.60547e-05
-2.77579e-07
-3.39508e-07
1.6108e-05
1.58114e-05
1.58984e-09
1.58126e-05
4.517e-09
1.5814e-05
6.39877e-09
1.58154e-05
7.11425e-09
1.58168e-05
7.1704e-09
1.58185e-05
6.92307e-09
1.58202e-05
6.42823e-09
1.5822e-05
5.71826e-09
1.5824e-05
4.85947e-09
1.58261e-05
3.87082e-09
1.58283e-05
2.69206e-09
1.58307e-05
1.21451e-09
1.58333e-05
-6.71291e-10
1.58362e-05
-3.13324e-09
1.58395e-05
-6.29622e-09
1.58432e-05
-1.02405e-08
1.58475e-05
-1.51398e-08
1.58525e-05
-2.11314e-08
1.58582e-05
-2.84181e-08
1.5865e-05
-3.73106e-08
1.5873e-05
-4.82158e-08
1.58825e-05
-6.16636e-08
1.58938e-05
-7.8348e-08
1.59074e-05
-9.91537e-08
1.59239e-05
-1.25183e-07
1.59438e-05
-1.57767e-07
1.59682e-05
-1.987e-07
1.59983e-05
-2.49423e-07
1.60355e-05
-3.148e-07
-3.88569e-07
1.60845e-05
1.58113e-05
1.25905e-09
1.58122e-05
3.59715e-09
1.58134e-05
5.177e-09
1.58147e-05
5.80577e-09
1.58161e-05
5.77136e-09
1.58177e-05
5.3866e-09
1.58193e-05
4.76224e-09
1.58211e-05
3.94e-09
1.5823e-05
2.96926e-09
1.5825e-05
1.86134e-09
1.58272e-05
5.53127e-10
1.58295e-05
-1.08169e-09
1.5832e-05
-3.17077e-09
1.58347e-05
-5.88549e-09
1.58378e-05
-9.36741e-09
1.58413e-05
-1.37282e-08
1.58453e-05
-1.91287e-08
1.58499e-05
-2.57328e-08
1.58552e-05
-3.37615e-08
1.58614e-05
-4.35444e-08
1.58687e-05
-5.55252e-08
1.58774e-05
-7.02861e-08
1.58876e-05
-8.85839e-08
1.58998e-05
-1.1138e-07
1.59145e-05
-1.3988e-07
1.59323e-05
-1.75552e-07
1.5954e-05
-2.2037e-07
1.59807e-05
-2.76186e-07
1.60138e-05
-3.47851e-07
-4.3228e-07
1.60575e-05
1.58112e-05
9.93521e-10
1.5812e-05
2.83991e-09
1.58131e-05
4.10641e-09
1.58143e-05
4.59092e-09
1.58156e-05
4.44693e-09
1.58171e-05
3.92785e-09
1.58186e-05
3.17212e-09
1.58204e-05
2.23676e-09
1.58222e-05
1.16025e-09
1.58241e-05
-5.73557e-11
1.58261e-05
-1.48676e-09
1.58283e-05
-3.26084e-09
1.58307e-05
-5.53055e-09
1.58332e-05
-8.47003e-09
1.58361e-05
-1.22361e-08
1.58393e-05
-1.69604e-08
1.5843e-05
-2.28019e-08
1.58472e-05
-2.99403e-08
1.58521e-05
-3.86137e-08
1.58577e-05
-4.9168e-08
1.58643e-05
-6.2076e-08
1.58719e-05
-7.79616e-08
1.5881e-05
-9.76335e-08
1.58917e-05
-1.22116e-07
1.59045e-05
-1.52699e-07
1.59199e-05
-1.90968e-07
1.59386e-05
-2.39045e-07
1.59616e-05
-2.99167e-07
1.59898e-05
-3.76082e-07
-4.69718e-07
1.60273e-05
1.58112e-05
7.71217e-10
1.58118e-05
2.19591e-09
1.58128e-05
3.15588e-09
1.58139e-05
3.46258e-09
1.58152e-05
3.19159e-09
1.58166e-05
2.54136e-09
1.58181e-05
1.65755e-09
1.58197e-05
6.10882e-10
1.58214e-05
-5.65699e-10
1.58232e-05
-1.88324e-09
1.58252e-05
-3.42029e-09
1.58272e-05
-5.31772e-09
1.58294e-05
-7.74294e-09
1.58319e-05
-1.08766e-08
1.58345e-05
-1.48866e-08
1.58375e-05
-1.99194e-08
1.58408e-05
-2.6136e-08
1.58446e-05
-3.37261e-08
1.58489e-05
-4.29408e-08
1.58539e-05
-5.41392e-08
1.58596e-05
-6.78159e-08
1.58663e-05
-8.46259e-08
1.58741e-05
-1.05416e-07
1.58832e-05
-1.31258e-07
1.5894e-05
-1.63503e-07
1.59069e-05
-2.03829e-07
1.59223e-05
-2.54467e-07
1.59411e-05
-3.17978e-07
1.5964e-05
-3.98956e-07
-5.00085e-07
1.59944e-05
1.58112e-05
5.78235e-10
1.58117e-05
1.63133e-09
1.58126e-05
2.29832e-09
1.58136e-05
2.41017e-09
1.58148e-05
1.99942e-09
1.58161e-05
1.2208e-09
1.58176e-05
2.15518e-10
1.58191e-05
-9.36696e-10
1.58208e-05
-2.20528e-09
1.58225e-05
-3.61101e-09
1.58243e-05
-5.24099e-09
1.58263e-05
-7.24364e-09
1.58283e-05
-9.79823e-09
1.58305e-05
-1.3093e-08
1.58329e-05
-1.7304e-08
1.58356e-05
-2.25882e-08
1.58386e-05
-2.91099e-08
1.58419e-05
-3.70644e-08
1.58457e-05
-4.6712e-08
1.585e-05
-5.84211e-08
1.58549e-05
-7.27003e-08
1.58605e-05
-9.02249e-08
1.58669e-05
-1.11866e-07
1.58744e-05
-1.38726e-07
1.58831e-05
-1.72191e-07
1.58932e-05
-2.13997e-07
1.59052e-05
-2.66441e-07
1.59196e-05
-3.32328e-07
1.59366e-05
-4.16033e-07
-5.22667e-07
1.59592e-05
1.58111e-05
4.05119e-10
1.58116e-05
1.122e-09
1.58124e-05
1.51069e-09
1.58134e-05
1.4214e-09
1.58146e-05
8.64132e-10
1.58158e-05
-3.90257e-11
1.58172e-05
-1.15707e-09
1.58187e-05
-2.40614e-09
1.58202e-05
-3.75675e-09
1.58218e-05
-5.23779e-09
1.58235e-05
-6.94475e-09
1.58253e-05
-9.03286e-09
1.58272e-05
-1.169e-08
1.58292e-05
-1.51109e-08
1.58314e-05
-1.94778e-08
1.58338e-05
-2.49547e-08
1.58364e-05
-3.17084e-08
1.58393e-05
-3.99372e-08
1.58424e-05
-4.99061e-08
1.5846e-05
-6.19883e-08
1.585e-05
-7.66992e-08
1.58545e-05
-9.47231e-08
1.58596e-05
-1.16942e-07
1.58653e-05
-1.44466e-07
1.58718e-05
-1.78695e-07
1.58792e-05
-2.21382e-07
1.58876e-05
-2.74835e-07
1.58973e-05
-3.42012e-07
1.59083e-05
-4.27009e-07
-5.36919e-07
1.59225e-05
1.58111e-05
2.4487e-10
1.58116e-05
6.49995e-10
1.58123e-05
7.73279e-10
1.58133e-05
4.83252e-10
1.58144e-05
-2.20909e-10
1.58156e-05
-1.24241e-09
1.58169e-05
-2.46322e-09
1.58183e-05
-3.79882e-09
1.58197e-05
-5.22018e-09
1.58212e-05
-6.7626e-09
1.58228e-05
-8.52934e-09
1.58245e-05
-1.06817e-08
1.58262e-05
-1.34134e-08
1.5828e-05
-1.6924e-08
1.58299e-05
-2.13997e-08
1.5832e-05
-2.70089e-08
1.58342e-05
-3.39198e-08
1.58366e-05
-4.23309e-08
1.58392e-05
-5.25079e-08
1.5842e-05
-6.48239e-08
1.58451e-05
-7.97934e-08
1.58485e-05
-9.80993e-08
1.58522e-05
-1.20619e-07
1.58562e-05
-1.48453e-07
1.58605e-05
-1.82984e-07
1.5865e-05
-2.25944e-07
1.58698e-05
-2.79594e-07
1.58747e-05
-3.46938e-07
1.58794e-05
-4.31727e-07
-5.42485e-07
1.5885e-05
1.58111e-05
9.17037e-11
1.58116e-05
2.01795e-10
1.58123e-05
7.05493e-11
1.58132e-05
-4.15828e-10
1.58142e-05
-1.26351e-09
1.58154e-05
-2.39582e-09
1.58166e-05
-3.70784e-09
1.58179e-05
-5.1172e-09
1.58193e-05
-6.59605e-09
1.58207e-05
-8.18496e-09
1.58222e-05
-9.99358e-09
1.58237e-05
-1.21878e-08
1.58252e-05
-1.49651e-08
1.58269e-05
-1.85278e-08
1.58285e-05
-2.30644e-08
1.58303e-05
-2.87451e-08
1.58321e-05
-3.57376e-08
1.5834e-05
-4.42384e-08
1.5836e-05
-5.45101e-08
1.58381e-05
-6.69205e-08
1.58403e-05
-8.19764e-08
1.58425e-05
-1.00349e-07
1.58448e-05
-1.22896e-07
1.5847e-05
-1.50691e-07
1.58491e-05
-1.85069e-07
1.58509e-05
-2.27701e-07
1.5852e-05
-2.80742e-07
1.58522e-05
-3.4713e-07
1.58507e-05
-4.30201e-07
-5.39276e-07
1.58475e-05
1.58111e-05
-5.9093e-11
1.58116e-05
-2.33013e-10
1.58122e-05
-6.10509e-10
1.58131e-05
-1.28809e-09
1.58141e-05
-2.27369e-09
1.58152e-05
-3.50686e-09
1.58164e-05
-4.89618e-09
1.58177e-05
-6.36434e-09
1.5819e-05
-7.8858e-09
1.58203e-05
-9.50526e-09
1.58216e-05
-1.13371e-08
1.5823e-05
-1.35503e-08
1.58244e-05
-1.63437e-08
1.58257e-05
-1.99207e-08
1.58272e-05
-2.447e-08
1.58286e-05
-3.01613e-08
1.583e-05
-3.71602e-08
1.58314e-05
-4.56586e-08
1.58328e-05
-5.59123e-08
1.58342e-05
-6.82797e-08
1.58355e-05
-8.3253e-08
1.58366e-05
-1.01482e-07
1.58375e-05
-1.23792e-07
1.5838e-05
-1.51209e-07
1.58379e-05
-1.84997e-07
1.58369e-05
-2.26724e-07
1.58346e-05
-2.78385e-07
1.58302e-05
-3.42735e-07
1.58226e-05
-4.22633e-07
-5.27496e-07
1.58109e-05
1.58111e-05
-2.09285e-10
1.58115e-05
-6.63829e-10
1.58122e-05
-1.28497e-09
1.58131e-05
-2.14808e-09
1.58141e-05
-3.26169e-09
1.58151e-05
-4.58204e-09
1.58163e-05
-6.03307e-09
1.58175e-05
-7.54406e-09
1.58187e-05
-9.09193e-09
1.58199e-05
-1.07248e-08
1.58211e-05
-1.25605e-08
1.58223e-05
-1.47694e-08
1.58235e-05
-1.75497e-08
1.58247e-05
-2.11035e-08
1.58259e-05
-2.56178e-08
1.5827e-05
-3.12596e-08
1.5828e-05
-3.81904e-08
1.58289e-05
-4.65954e-08
1.58297e-05
-5.6721e-08
1.58304e-05
-6.89117e-08
1.58308e-05
-8.36389e-08
1.58308e-05
-1.01522e-07
1.58304e-05
-1.23344e-07
1.58292e-05
-1.50064e-07
1.58271e-05
-1.82853e-07
1.58235e-05
-2.23141e-07
1.58178e-05
-2.72709e-07
1.58091e-05
-3.34025e-07
1.57959e-05
-4.09412e-07
-5.07682e-07
1.57761e-05
1.58111e-05
-3.6025e-10
1.58116e-05
-1.10261e-09
1.58122e-05
-1.96848e-09
1.58131e-05
-3.00898e-09
1.58141e-05
-4.2365e-09
1.58151e-05
-5.628e-09
1.58162e-05
-7.12432e-09
1.58173e-05
-8.66111e-09
1.58185e-05
-1.02178e-08
1.58196e-05
-1.1846e-08
1.58207e-05
-1.36659e-08
1.58218e-05
-1.58474e-08
1.58228e-05
-1.85859e-08
1.58238e-05
-2.20797e-08
1.58247e-05
-2.65119e-08
1.58255e-05
-3.20452e-08
1.58261e-05
-3.88349e-08
1.58266e-05
-4.70581e-08
1.58268e-05
-5.69492e-08
1.58267e-05
-6.88349e-08
1.58262e-05
-8.31608e-08
1.58252e-05
-1.00509e-07
1.58235e-05
-1.21607e-07
1.58208e-05
-1.47337e-07
1.58167e-05
-1.78756e-07
1.58106e-05
-2.17125e-07
1.58019e-05
-2.63971e-07
1.57893e-05
-3.21382e-07
1.5771e-05
-3.9111e-07
-4.807e-07
1.5744e-05
1.58111e-05
-5.16391e-10
1.58116e-05
-1.56238e-09
1.58123e-05
-2.6755e-09
1.58132e-05
-3.88309e-09
1.58141e-05
-5.20734e-09
1.58152e-05
-6.65214e-09
1.58162e-05
-8.17632e-09
1.58173e-05
-9.72076e-09
1.58183e-05
-1.12677e-08
1.58193e-05
-1.28726e-08
1.58203e-05
-1.46572e-08
1.58213e-05
-1.67884e-08
1.58221e-05
-1.94566e-08
1.58229e-05
-2.28543e-08
1.58236e-05
-2.71585e-08
1.58241e-05
-3.25259e-08
1.58243e-05
-3.91044e-08
1.58243e-05
-4.70609e-08
1.5824e-05
-5.66161e-08
1.58232e-05
-6.80758e-08
1.58219e-05
-8.1855e-08
1.58199e-05
-9.8492e-08
1.5817e-05
-1.18653e-07
1.58127e-05
-1.4313e-07
1.58068e-05
-1.72852e-07
1.57986e-05
-2.0889e-07
1.57871e-05
-2.52489e-07
1.5771e-05
-3.05288e-07
1.57484e-05
-3.68452e-07
-4.47714e-07
1.57154e-05
1.58111e-05
-6.84024e-10
1.58116e-05
-2.05637e-09
1.58124e-05
-3.42257e-09
1.58133e-05
-4.7839e-09
1.58143e-05
-6.18362e-09
1.58153e-05
-7.66214e-09
1.58163e-05
-9.196e-09
1.58173e-05
-1.07289e-08
1.58183e-05
-1.22466e-08
1.58192e-05
-1.38093e-08
1.58201e-05
-1.55391e-08
1.58209e-05
-1.75976e-08
1.58216e-05
-2.01678e-08
1.58222e-05
-2.34343e-08
1.58226e-05
-2.75663e-08
1.58228e-05
-3.2713e-08
1.58227e-05
-3.90133e-08
1.58223e-05
-4.6623e-08
1.58214e-05
-5.57468e-08
1.582e-05
-6.66675e-08
1.58179e-05
-7.97663e-08
1.58149e-05
-9.55331e-08
1.58108e-05
-1.14566e-07
1.58053e-05
-1.37561e-07
1.57977e-05
-1.65309e-07
1.57875e-05
-1.98681e-07
1.57737e-05
-2.38625e-07
1.57547e-05
-2.86292e-07
1.57285e-05
-3.42282e-07
-4.10128e-07
1.56909e-05
1.58112e-05
-8.70436e-10
1.58117e-05
-2.60201e-09
1.58125e-05
-4.22934e-09
1.58134e-05
-5.72531e-09
1.58144e-05
-7.17452e-09
1.58154e-05
-8.66608e-09
1.58164e-05
-1.01908e-08
1.58174e-05
-1.16917e-08
1.58183e-05
-1.31599e-08
1.58192e-05
-1.46616e-08
1.58199e-05
-1.63174e-08
1.58206e-05
-1.82815e-08
1.58212e-05
-2.07271e-08
1.58216e-05
-2.38288e-08
1.58218e-05
-2.77466e-08
1.58217e-05
-3.26205e-08
1.58212e-05
-3.85794e-08
1.58204e-05
-4.57669e-08
1.5819e-05
-5.4371e-08
1.5817e-05
-6.46491e-08
1.58142e-05
-7.69462e-08
1.58103e-05
-9.17011e-08
1.58052e-05
-1.0944e-07
1.57984e-05
-1.30761e-07
1.57894e-05
-1.56311e-07
1.57775e-05
-1.86763e-07
1.57616e-05
-2.2277e-07
1.57403e-05
-2.64988e-07
1.57116e-05
-3.13511e-07
-3.69472e-07
1.56709e-05
1.58112e-05
-1.08549e-09
1.58118e-05
-3.22327e-09
1.58127e-05
-5.11917e-09
1.58137e-05
-6.72098e-09
1.58147e-05
-8.18887e-09
1.58157e-05
-9.67267e-09
1.58167e-05
-1.11683e-08
1.58176e-05
-1.26151e-08
1.58185e-05
-1.40131e-08
1.58192e-05
-1.54355e-08
1.58199e-05
-1.69991e-08
1.58205e-05
-1.88478e-08
1.58209e-05
-2.11435e-08
1.58211e-05
-2.40489e-08
1.58211e-05
-2.7713e-08
1.58207e-05
-3.22655e-08
1.582e-05
-3.78245e-08
1.58187e-05
-4.45203e-08
1.58169e-05
-5.25234e-08
1.58143e-05
-6.20653e-08
1.58108e-05
-7.34527e-08
1.58062e-05
-8.7072e-08
1.58001e-05
-1.03378e-07
1.57922e-05
-1.22868e-07
1.5782e-05
-1.46051e-07
1.57686e-05
-1.73407e-07
1.57512e-05
-2.05318e-07
1.57281e-05
-2.4197e-07
1.56977e-05
-2.83048e-07
-3.27344e-07
1.56555e-05
1.58112e-05
-1.34364e-09
1.5812e-05
-3.95461e-09
1.5813e-05
-6.11974e-09
1.5814e-05
-7.78295e-09
1.58151e-05
-9.23483e-09
1.58161e-05
-1.06914e-08
1.58171e-05
-1.21367e-08
1.58179e-05
-1.35054e-08
1.58187e-05
-1.48123e-08
1.58194e-05
-1.61375e-08
1.582e-05
-1.75912e-08
1.58205e-05
-1.93047e-08
1.58208e-05
-2.1427e-08
1.58208e-05
-2.41063e-08
1.58206e-05
-2.74798e-08
1.582e-05
-3.16663e-08
1.58189e-05
-3.67711e-08
1.58173e-05
-4.29118e-08
1.58151e-05
-5.02411e-08
1.5812e-05
-5.89636e-08
1.58078e-05
-6.93469e-08
1.58025e-05
-8.17258e-08
1.57956e-05
-9.64844e-08
1.57868e-05
-1.14023e-07
1.57754e-05
-1.34722e-07
1.57609e-05
-1.58882e-07
1.57422e-05
-1.8665e-07
1.57181e-05
-2.178e-07
1.56868e-05
-2.51745e-07
-2.85175e-07
1.56446e-05
1.58113e-05
-1.6672e-09
1.58122e-05
-4.84636e-09
1.58133e-05
-7.26278e-09
1.58145e-05
-8.92029e-09
1.58155e-05
-1.03205e-08
1.58166e-05
-1.1732e-08
1.58176e-05
-1.31029e-08
1.58184e-05
-1.43684e-08
1.58192e-05
-1.55648e-08
1.58198e-05
-1.67765e-08
1.58203e-05
-1.81039e-08
1.58207e-05
-1.96636e-08
1.58208e-05
-2.15888e-08
1.58208e-05
-2.40169e-08
1.58203e-05
-2.70686e-08
1.58195e-05
-3.0846e-08
1.58182e-05
-3.54465e-08
1.58163e-05
-4.09754e-08
1.58136e-05
-4.75663e-08
1.581e-05
-5.53964e-08
1.58054e-05
-6.4694e-08
1.57994e-05
-7.57449e-08
1.57918e-05
-8.88664e-08
1.57821e-05
-1.04367e-07
1.57699e-05
-1.2251e-07
1.57545e-05
-1.43439e-07
1.57349e-05
-1.67113e-07
1.57101e-05
-1.92968e-07
1.56787e-05
-2.20326e-07
-2.44229e-07
1.56377e-05
1.58114e-05
-2.09386e-09
1.58125e-05
-5.97104e-09
1.58138e-05
-8.57936e-09
1.58151e-05
-1.01397e-08
1.58162e-05
-1.14588e-08
1.58173e-05
-1.28053e-08
1.58182e-05
-1.407e-08
1.58191e-05
-1.52052e-08
1.58198e-05
-1.62727e-08
1.58204e-05
-1.73561e-08
1.58208e-05
-1.85423e-08
1.58211e-05
-1.99321e-08
1.58211e-05
-2.16427e-08
1.58209e-05
-2.37937e-08
1.58203e-05
-2.64913e-08
1.58193e-05
-2.98248e-08
1.58177e-05
-3.38788e-08
1.58155e-05
-3.87453e-08
1.58125e-05
-4.45416e-08
1.58085e-05
-5.14175e-08
1.58034e-05
-5.95613e-08
1.57968e-05
-6.92144e-08
1.57886e-05
-8.0632e-08
1.57783e-05
-9.40366e-08
1.57653e-05
-1.09592e-07
1.57492e-05
-1.2731e-07
1.57291e-05
-1.47012e-07
1.5704e-05
-1.67871e-07
1.5673e-05
-1.8934e-07
-2.05333e-07
1.56341e-05
1.58116e-05
-2.69477e-09
1.5813e-05
-7.43329e-09
1.58145e-05
-1.00843e-08
1.58158e-05
-1.14429e-08
1.58171e-05
-1.26712e-08
1.58182e-05
-1.39288e-08
1.58192e-05
-1.50498e-08
1.582e-05
-1.60283e-08
1.58207e-05
-1.69497e-08
1.58212e-05
-1.78888e-08
1.58216e-05
-1.89187e-08
1.58218e-05
-2.01235e-08
1.58217e-05
-2.16022e-08
1.58214e-05
-2.34553e-08
1.58207e-05
-2.57725e-08
1.58195e-05
-2.86297e-08
1.58177e-05
-3.2099e-08
1.58152e-05
-3.62586e-08
1.58119e-05
-4.12121e-08
1.58075e-05
-4.70813e-08
1.5802e-05
-5.40137e-08
1.5795e-05
-6.22144e-08
1.57862e-05
-7.18816e-08
1.57754e-05
-8.31602e-08
1.57619e-05
-9.61321e-08
1.57453e-05
-1.10698e-07
1.57249e-05
-1.26601e-07
1.56998e-05
-1.42783e-07
1.56696e-05
-1.59121e-07
-1.6887e-07
1.56331e-05
1.58119e-05
-3.61154e-09
1.58138e-05
-9.39053e-09
1.58155e-05
-1.1759e-08
1.58169e-05
-1.28219e-08
1.58182e-05
-1.39613e-08
1.58193e-05
-1.509e-08
1.58203e-05
-1.60287e-08
1.58211e-05
-1.68332e-08
1.58218e-05
-1.75969e-08
1.58223e-05
-1.83795e-08
1.58226e-05
-1.92426e-08
1.58227e-05
-2.02504e-08
1.58226e-05
-2.1483e-08
1.58222e-05
-2.30199e-08
1.58213e-05
-2.4934e-08
1.582e-05
-2.7287e-08
1.5818e-05
-3.01394e-08
1.58153e-05
-3.35544e-08
1.58117e-05
-3.76275e-08
1.58071e-05
-4.24479e-08
1.58012e-05
-4.81229e-08
1.57938e-05
-5.48314e-08
1.57847e-05
-6.27181e-08
1.57734e-05
-7.186e-08
1.57595e-05
-8.2278e-08
1.57426e-05
-9.37826e-08
1.57221e-05
-1.06083e-07
1.56972e-05
-1.17884e-07
1.56679e-05
-1.2988e-07
-1.34124e-07
1.56332e-05
1.58125e-05
-5.10941e-09
1.58151e-05
-1.20385e-08
1.58169e-05
-1.35942e-08
1.58185e-05
-1.43533e-08
1.58199e-05
-1.53767e-08
1.58211e-05
-1.62941e-08
1.58221e-05
-1.70083e-08
1.58229e-05
-1.76251e-08
1.58235e-05
-1.82182e-08
1.58239e-05
-1.88284e-08
1.58242e-05
-1.95154e-08
1.58243e-05
-2.03178e-08
1.58241e-05
-2.1295e-08
1.58236e-05
-2.25036e-08
1.58226e-05
-2.39985e-08
1.58212e-05
-2.58248e-08
1.58191e-05
-2.80334e-08
1.58162e-05
-3.06701e-08
1.58124e-05
-3.38366e-08
1.58075e-05
-3.75701e-08
1.58013e-05
-4.19467e-08
1.57937e-05
-4.71431e-08
1.57842e-05
-5.32404e-08
1.57726e-05
-6.02578e-08
1.57585e-05
-6.81796e-08
1.57415e-05
-7.67578e-08
1.5721e-05
-8.56684e-08
1.56964e-05
-9.31985e-08
1.56683e-05
-1.01869e-07
-9.9095e-08
1.56333e-05
1.58136e-05
-7.70937e-09
1.58168e-05
-1.52948e-08
1.58187e-05
-1.54659e-08
1.58205e-05
-1.61311e-08
1.5822e-05
-1.69331e-08
1.58233e-05
-1.75434e-08
1.58243e-05
-1.80093e-08
1.58251e-05
-1.84257e-08
1.58257e-05
-1.88336e-08
1.58261e-05
-1.92633e-08
1.58264e-05
-1.97634e-08
1.58264e-05
-2.03526e-08
1.58262e-05
-2.10639e-08
1.58256e-05
-2.19288e-08
1.58246e-05
-2.29887e-08
1.5823e-05
-2.42693e-08
1.58208e-05
-2.58164e-08
1.58178e-05
-2.764e-08
1.58138e-05
-2.98918e-08
1.58088e-05
-3.25266e-08
1.58024e-05
-3.55596e-08
1.57945e-05
-3.92146e-08
1.57848e-05
-4.35157e-08
1.57729e-05
-4.84252e-08
1.57587e-05
-5.39096e-08
1.57417e-05
-5.97463e-08
1.57215e-05
-6.5563e-08
1.56973e-05
-6.89996e-08
1.56701e-05
-7.46309e-08
-5.79507e-08
1.5629e-05
1.5817e-05
-1.37483e-08
1.58206e-05
-1.88544e-08
1.58228e-05
-1.76841e-08
1.58244e-05
-1.77595e-08
1.58257e-05
-1.82436e-08
1.58268e-05
-1.8581e-08
1.58276e-05
-1.88117e-08
1.58282e-05
-1.90226e-08
1.58286e-05
-1.92357e-08
1.58288e-05
-1.94606e-08
1.58287e-05
-1.97182e-08
1.58284e-05
-2.00215e-08
1.58277e-05
-2.0387e-08
1.58266e-05
-2.08315e-08
1.5825e-05
-2.13808e-08
1.58228e-05
-2.20457e-08
1.58198e-05
-2.28548e-08
1.5816e-05
-2.38008e-08
1.58111e-05
-2.49998e-08
1.58049e-05
-2.63891e-08
1.57974e-05
-2.79665e-08
1.5788e-05
-2.99061e-08
1.57767e-05
-3.22072e-08
1.57631e-05
-3.48282e-08
1.5747e-05
-3.77596e-08
1.57281e-05
-4.08235e-08
1.57063e-05
-4.38361e-08
1.56813e-05
-4.39133e-08
1.56497e-05
-4.30531e-08
7.30241e-09
1.55844e-05
1.57972e-05
1.57784e-05
1.57607e-05
1.57429e-05
1.57247e-05
1.57061e-05
1.56873e-05
1.56683e-05
1.5649e-05
1.56296e-05
1.56098e-05
1.55898e-05
1.55694e-05
1.55486e-05
1.55272e-05
1.55052e-05
1.54823e-05
1.54585e-05
1.54335e-05
1.54071e-05
1.53792e-05
1.53493e-05
1.53171e-05
1.52822e-05
1.52445e-05
1.52036e-05
1.51598e-05
1.51159e-05
1.50728e-05
1.50801e-05
1.54422e-05
-9.01904e-06
9.31015e-06
1.51054e-05
-9.09844e-06
9.4352e-06
1.47142e-05
-9.15376e-06
9.54499e-06
1.42785e-05
-9.18403e-06
9.61968e-06
1.38184e-05
-9.21015e-06
9.67027e-06
1.33469e-05
-9.23892e-06
9.71046e-06
1.28693e-05
-9.27009e-06
9.74768e-06
1.23883e-05
-9.30367e-06
9.78466e-06
1.19051e-05
-9.33981e-06
9.82301e-06
1.14199e-05
-9.37844e-06
9.86363e-06
1.09325e-05
-9.4193e-06
9.90674e-06
1.04425e-05
-9.46233e-06
9.95231e-06
9.94979e-06
-9.50775e-06
1.00005e-05
9.45428e-06
-9.55597e-06
1.00515e-05
8.95587e-06
-9.60752e-06
1.01059e-05
8.45441e-06
-9.66304e-06
1.01645e-05
7.94968e-06
-9.72331e-06
1.0228e-05
7.44138e-06
-9.78937e-06
1.02977e-05
6.92909e-06
-9.86263e-06
1.03749e-05
6.41225e-06
-9.945e-06
1.04618e-05
5.89016e-06
-1.00391e-05
1.05612e-05
5.36143e-06
-1.0149e-05
1.06778e-05
4.82555e-06
-1.02797e-05
1.08156e-05
4.27669e-06
-1.04431e-05
1.0992e-05
3.72102e-06
-1.06418e-05
1.11974e-05
3.12695e-06
-1.09426e-05
1.15367e-05
2.53844e-06
-1.12594e-05
1.18479e-05
1.82118e-06
-1.20597e-05
1.2777e-05
1.09859e-06
-1.25666e-05
1.32892e-05
-1.56709e-05
1.67695e-05
1.57215e-05
-8.61322e-06
1.52687e-05
-8.64564e-06
1.47928e-05
-8.67779e-06
1.43115e-05
-8.70274e-06
1.38305e-05
-8.72923e-06
1.33501e-05
-8.7585e-06
1.28698e-05
-8.78983e-06
1.23895e-05
-8.82328e-06
1.19079e-05
-8.85822e-06
1.14242e-05
-8.89475e-06
1.0938e-05
-8.9331e-06
1.04492e-05
-8.97349e-06
9.95766e-06
-9.01625e-06
9.46347e-06
-9.06178e-06
8.96645e-06
-9.11051e-06
8.46643e-06
-9.16301e-06
7.96313e-06
-9.22001e-06
7.45622e-06
-9.28246e-06
6.94526e-06
-9.35167e-06
6.42966e-06
-9.4294e-06
5.90862e-06
-9.5181e-06
5.38091e-06
-9.62131e-06
4.84526e-06
-9.74405e-06
4.29767e-06
-9.89553e-06
3.73925e-06
-1.00834e-05
3.14864e-06
-1.0352e-05
2.55056e-06
-1.06613e-05
1.83972e-06
-1.13489e-05
1.10998e-06
-1.18368e-05
-1.45609e-05
1.56858e-05
-8.15696e-06
1.52196e-05
-8.17951e-06
1.47486e-05
-8.20674e-06
1.42785e-05
-8.23266e-06
1.38074e-05
-8.25813e-06
1.33348e-05
-8.28584e-06
1.28602e-05
-8.31526e-06
1.23829e-05
-8.34602e-06
1.19029e-05
-8.37821e-06
1.14203e-05
-8.41212e-06
1.09352e-05
-8.44799e-06
1.04477e-05
-8.48597e-06
9.95769e-06
-8.52627e-06
9.46511e-06
-8.5692e-06
8.96975e-06
-8.61515e-06
8.47138e-06
-8.66465e-06
7.96974e-06
-8.71837e-06
7.46448e-06
-8.7772e-06
6.95513e-06
-8.84233e-06
6.44109e-06
-8.91535e-06
5.92148e-06
-8.99849e-06
5.39512e-06
-9.09495e-06
4.86037e-06
-9.2093e-06
4.31409e-06
-9.34925e-06
3.7545e-06
-9.52377e-06
3.16655e-06
-9.76405e-06
2.56149e-06
-1.00563e-05
1.85555e-06
-1.06429e-05
1.1165e-06
-1.10978e-05
-1.34444e-05
1.56787e-05
-7.69539e-06
1.52147e-05
-7.71548e-06
1.47465e-05
-7.7386e-06
1.4276e-05
-7.76218e-06
1.38041e-05
-7.78617e-06
1.333e-05
-7.81177e-06
1.28538e-05
-7.83911e-06
1.23758e-05
-7.86793e-06
1.18958e-05
-7.89825e-06
1.14139e-05
-7.93022e-06
1.09299e-05
-7.964e-06
1.04436e-05
-7.99972e-06
9.95496e-06
-8.03759e-06
9.46369e-06
-8.07792e-06
8.96964e-06
-8.1211e-06
8.4726e-06
-8.1676e-06
7.97228e-06
-8.21805e-06
7.46831e-06
-8.27323e-06
6.96021e-06
-8.33422e-06
6.44732e-06
-8.40246e-06
5.92874e-06
-8.47992e-06
5.40324e-06
-8.56944e-06
4.86904e-06
-8.67511e-06
4.32326e-06
-8.80346e-06
3.76265e-06
-8.96317e-06
3.17579e-06
-9.17719e-06
2.56479e-06
-9.44529e-06
1.86273e-06
-9.94086e-06
1.11557e-06
-1.03506e-05
-1.23289e-05
1.56627e-05
-7.23115e-06
1.51967e-05
-7.24945e-06
1.4728e-05
-7.26987e-06
1.42575e-05
-7.29169e-06
1.37858e-05
-7.31454e-06
1.33128e-05
-7.33872e-06
1.2838e-05
-7.36436e-06
1.23615e-05
-7.39136e-06
1.18829e-05
-7.41972e-06
1.14023e-05
-7.44961e-06
1.09195e-05
-7.48117e-06
1.04344e-05
-7.51457e-06
9.94679e-06
-7.55003e-06
9.45666e-06
-7.5878e-06
8.9638e-06
-7.62823e-06
8.46796e-06
-7.67176e-06
7.96882e-06
-7.71891e-06
7.46601e-06
-7.77042e-06
6.959e-06
-7.82721e-06
6.44711e-06
-7.89057e-06
5.92941e-06
-7.96222e-06
5.4046e-06
-8.04464e-06
4.87083e-06
-8.14134e-06
4.32524e-06
-8.25787e-06
3.76391e-06
-8.40183e-06
3.17728e-06
-8.59056e-06
2.5618e-06
-8.82982e-06
1.86251e-06
-9.24157e-06
1.10914e-06
-9.59724e-06
-1.12197e-05
1.56429e-05
-6.76608e-06
1.51766e-05
-6.78308e-06
1.47085e-05
-6.80177e-06
1.42389e-05
-6.82211e-06
1.3768e-05
-6.84364e-06
1.32955e-05
-6.86627e-06
1.28213e-05
-6.89011e-06
1.23452e-05
-6.91524e-06
1.18672e-05
-6.9417e-06
1.13871e-05
-6.9696e-06
1.09051e-05
-6.99909e-06
1.04208e-05
-7.0303e-06
9.93418e-06
-7.06342e-06
9.44505e-06
-7.09868e-06
8.95321e-06
-7.13639e-06
8.45837e-06
-7.17692e-06
7.96023e-06
-7.22077e-06
7.45835e-06
-7.26854e-06
6.95222e-06
-7.32107e-06
6.4411e-06
-7.37945e-06
5.92403e-06
-7.44516e-06
5.39968e-06
-7.52028e-06
4.86612e-06
-7.60778e-06
4.32044e-06
-7.71219e-06
3.75841e-06
-7.8398e-06
3.17143e-06
-8.00358e-06
2.5525e-06
-8.21089e-06
1.85548e-06
-8.54455e-06
1.09756e-06
-8.83932e-06
-1.01221e-05
1.56193e-05
-6.30082e-06
1.51529e-05
-6.31668e-06
1.46851e-05
-6.33396e-06
1.42158e-05
-6.35289e-06
1.37452e-05
-6.37301e-06
1.32731e-05
-6.39413e-06
1.27993e-05
-6.41633e-06
1.23238e-05
-6.43972e-06
1.18465e-05
-6.46438e-06
1.13673e-05
-6.49038e-06
1.0886e-05
-6.51783e-06
1.04026e-05
-6.54687e-06
9.91681e-06
-6.57766e-06
9.42855e-06
-6.61041e-06
8.93755e-06
-6.64539e-06
8.44356e-06
-6.68293e-06
7.94622e-06
-6.72343e-06
7.44511e-06
-6.76743e-06
6.93967e-06
-6.81563e-06
6.42914e-06
-6.86892e-06
5.91253e-06
-6.92854e-06
5.38844e-06
-6.9962e-06
4.85492e-06
-7.07426e-06
4.30899e-06
-7.16626e-06
3.74628e-06
-7.27709e-06
3.15868e-06
-7.41598e-06
2.53722e-06
-7.58943e-06
1.84265e-06
-7.84998e-06
1.08162e-06
-8.07829e-06
-9.04052e-06
1.55922e-05
-5.83549e-06
1.51258e-05
-5.85033e-06
1.46582e-05
-5.86637e-06
1.41893e-05
-5.88397e-06
1.37191e-05
-5.90273e-06
1.32473e-05
-5.92238e-06
1.2774e-05
-5.94301e-06
1.2299e-05
-5.96472e-06
1.18222e-05
-5.98761e-06
1.13436e-05
-6.01173e-06
1.08629e-05
-6.03718e-06
1.03801e-05
-6.06408e-06
9.89504e-06
-6.09257e-06
9.40746e-06
-6.12283e-06
8.91716e-06
-6.15509e-06
8.42384e-06
-6.18961e-06
7.92715e-06
-6.22674e-06
7.42663e-06
-6.26692e-06
6.9217e-06
-6.3107e-06
6.41159e-06
-6.35881e-06
5.89526e-06
-6.41221e-06
5.37128e-06
-6.47222e-06
4.83765e-06
-6.54062e-06
4.29136e-06
-6.61997e-06
3.72797e-06
-6.7137e-06
3.13969e-06
-6.8277e-06
2.51652e-06
-6.96626e-06
1.82462e-06
-7.15808e-06
1.06223e-06
-7.3159e-06
-7.97829e-06
1.55619e-05
-5.37017e-06
1.50957e-05
-5.38405e-06
1.46282e-05
-5.39895e-06
1.41596e-05
-5.41528e-06
1.36895e-05
-5.43269e-06
1.32181e-05
-5.45092e-06
1.27451e-05
-5.47002e-06
1.22705e-05
-5.49011e-06
1.17941e-05
-5.51128e-06
1.1316e-05
-5.53357e-06
1.08358e-05
-5.55705e-06
1.03536e-05
-5.58184e-06
9.86905e-06
-5.60805e-06
9.38204e-06
-5.63582e-06
8.89229e-06
-5.66534e-06
8.39951e-06
-5.69683e-06
7.90331e-06
-5.73055e-06
7.40324e-06
-5.76684e-06
6.89867e-06
-5.80613e-06
6.38882e-06
-5.84896e-06
5.87263e-06
-5.89602e-06
5.34863e-06
-5.94823e-06
4.81479e-06
-6.00678e-06
4.2681e-06
-6.07327e-06
3.70409e-06
-6.1497e-06
3.11523e-06
-6.23885e-06
2.4911e-06
-6.34212e-06
1.80221e-06
-6.4692e-06
1.04039e-06
-6.55408e-06
-6.9379e-06
1.5529e-05
-4.90482e-06
1.50627e-05
-4.91779e-06
1.45954e-05
-4.93162e-06
1.41269e-05
-4.94674e-06
1.3657e-05
-4.96284e-06
1.31858e-05
-4.97968e-06
1.27131e-05
-4.9973e-06
1.22388e-05
-5.01581e-06
1.17628e-05
-5.03529e-06
1.1285e-05
-5.05578e-06
1.08053e-05
-5.07733e-06
1.03234e-05
-5.10002e-06
9.83935e-06
-5.12395e-06
9.35277e-06
-5.14924e-06
8.86344e-06
-5.17602e-06
8.37106e-06
-5.20444e-06
7.87522e-06
-5.23472e-06
7.37546e-06
-5.26707e-06
6.87113e-06
-5.3018e-06
6.36142e-06
-5.33925e-06
5.84526e-06
-5.37986e-06
5.32116e-06
-5.42413e-06
4.78707e-06
-5.47269e-06
4.23997e-06
-5.52618e-06
3.67545e-06
-5.58518e-06
3.08623e-06
-5.64963e-06
2.46183e-06