/*--------------------------------*- C++ -*----------------------------------*\
  =========                 |
  \\      /  F ield         | OpenFOAM: The Open Source CFD Toolbox
   \\    /   O peration     | Website:  https://openfoam.org
    \\  /    A nd           | Version:  11
     \\/     M anipulation  |
\*---------------------------------------------------------------------------*/
FoamFile
{
    format      ascii;
    class       volVectorField;
    location    "8";
    object      U;
}
// * * * * * * * * * * * * * * * * * * * * * * * * * * * * * * * * * * * * * //

dimensions      [0 1 -1 0 0 0 0];

internalField   nonuniform List<vector> 
12600
(
(0.412294 5.46361e-05 0)
(0.412224 0.000108209 0)
(0.412104 0.000109452 0)
(0.411961 0.000109539 0)
(0.411835 0.000107077 0)
(0.411734 0.000102364 0)
(0.411653 9.65317e-05 0)
(0.411591 8.93585e-05 0)
(0.411551 8.03081e-05 0)
(0.41154 6.90902e-05 0)
(0.411566 5.31912e-05 0)
(0.411639 3.15941e-05 0)
(0.411772 3.49928e-06 0)
(0.411981 -3.10849e-05 0)
(0.412284 -7.20061e-05 0)
(0.412704 -0.000121405 0)
(0.413267 -0.000183939 0)
(0.414 -0.000260148 0)
(0.414936 -0.000351425 0)
(0.416111 -0.000460875 0)
(0.417569 -0.000586739 0)
(0.419356 -0.000724598 0)
(0.421531 -0.000877826 0)
(0.424163 -0.00105605 0)
(0.42733 -0.00126856 0)
(0.431117 -0.00151793 0)
(0.435612 -0.00181568 0)
(0.440895 -0.0021122 0)
(0.447111 -0.0026243 0)
(0.45489 -0.00231874 0)
(0.412483 6.1888e-05 0)
(0.412602 0.000109388 0)
(0.412753 8.2415e-05 0)
(0.412932 5.84315e-05 0)
(0.413106 4.12876e-05 0)
(0.413292 2.51605e-05 0)
(0.413497 6.05312e-06 0)
(0.413716 -1.73942e-05 0)
(0.413954 -4.63439e-05 0)
(0.414216 -8.24538e-05 0)
(0.414509 -0.000127472 0)
(0.414841 -0.000184145 0)
(0.415221 -0.000256113 0)
(0.415661 -0.000347046 0)
(0.416175 -0.000460377 0)
(0.416785 -0.000598957 0)
(0.417499 -0.000765295 0)
(0.41835 -0.0009637 0)
(0.419372 -0.00119967 0)
(0.420601 -0.00147906 0)
(0.422071 -0.00181124 0)
(0.423853 -0.00220938 0)
(0.426015 -0.00268415 0)
(0.428621 -0.00324102 0)
(0.431736 -0.00388482 0)
(0.435427 -0.00461929 0)
(0.439781 -0.00546111 0)
(0.44485 -0.0063579 0)
(0.45084 -0.00756288 0)
(0.457375 -0.0077708 0)
(0.412477 -7.22336e-07 0)
(0.412547 -2.49419e-05 0)
(0.412673 -7.36052e-05 0)
(0.412824 -0.000119702 0)
(0.412986 -0.000150912 0)
(0.413167 -0.000175607 0)
(0.413367 -0.000203565 0)
(0.413584 -0.000238319 0)
(0.413818 -0.000281372 0)
(0.414073 -0.000335164 0)
(0.414355 -0.000403643 0)
(0.414671 -0.000491271 0)
(0.415031 -0.000602214 0)
(0.415448 -0.000740485 0)
(0.415939 -0.000911061 0)
(0.416522 -0.00111937 0)
(0.417222 -0.0013733 0)
(0.418066 -0.00168371 0)
(0.419083 -0.00205773 0)
(0.420312 -0.00250158 0)
(0.421792 -0.00303442 0)
(0.423564 -0.00368083 0)
(0.425675 -0.00445187 0)
(0.428188 -0.00535024 0)
(0.431175 -0.0063839 0)
(0.434724 -0.00756522 0)
(0.438913 -0.00891885 0)
(0.443883 -0.0104009 0)
(0.44961 -0.0122556 0)
(0.456694 -0.0131994 0)
(0.412473 -3.17769e-05 0)
(0.41253 -8.68114e-05 0)
(0.412641 -0.000141779 0)
(0.412781 -0.000194813 0)
(0.412936 -0.000239912 0)
(0.413107 -0.000279794 0)
(0.413297 -0.000320744 0)
(0.413505 -0.000367835 0)
(0.413729 -0.000425151 0)
(0.413973 -0.000496567 0)
(0.414242 -0.00058653 0)
(0.414544 -0.000700891 0)
(0.414887 -0.000846942 0)
(0.415284 -0.00103257 0)
(0.41575 -0.00126589 0)
(0.416305 -0.00155518 0)
(0.416971 -0.00190964 0)
(0.417773 -0.00234009 0)
(0.41874 -0.00285841 0)
(0.419904 -0.00347869 0)
(0.421306 -0.00421875 0)
(0.422989 -0.00509705 0)
(0.424999 -0.00613093 0)
(0.427394 -0.0073403 0)
(0.430243 -0.00874938 0)
(0.433637 -0.0103796 0)
(0.437659 -0.0122635 0)
(0.442475 -0.014356 0)
(0.448043 -0.0169122 0)
(0.455105 -0.0186857 0)
(0.412471 -5.60631e-05 0)
(0.412517 -0.00015057 0)
(0.412614 -0.00023394 0)
(0.412741 -0.000308669 0)
(0.412887 -0.000372787 0)
(0.413049 -0.000428931 0)
(0.413228 -0.000483933 0)
(0.413424 -0.000544367 0)
(0.413636 -0.00061567 0)
(0.413866 -0.000703629 0)
(0.41412 -0.000815104 0)
(0.414404 -0.000957862 0)
(0.414727 -0.00114034 0)
(0.4151 -0.00137158 0)
(0.415538 -0.0016614 0)
(0.416059 -0.0020206 0)
(0.416681 -0.0024614 0)
(0.417428 -0.00299777 0)
(0.418328 -0.0036448 0)
(0.419411 -0.00441896 0)
(0.420714 -0.00534081 0)
(0.422276 -0.00643552 0)
(0.424144 -0.00772989 0)
(0.426375 -0.00925117 0)
(0.429038 -0.0110297 0)
(0.432227 -0.0130958 0)
(0.436023 -0.0154928 0)
(0.440614 -0.0181954 0)
(0.445938 -0.0214467 0)
(0.452885 -0.024144 0)
(0.412469 -7.67046e-05 0)
(0.41251 -0.000205644 0)
(0.412595 -0.000312833 0)
(0.412712 -0.00040318 0)
(0.412848 -0.0004796 0)
(0.412999 -0.000546705 0)
(0.413166 -0.000611623 0)
(0.413347 -0.000682013 0)
(0.413544 -0.000764937 0)
(0.413758 -0.000867333 0)
(0.413994 -0.000996985 0)
(0.414257 -0.00116301 0)
(0.414555 -0.0013758 0)
(0.414899 -0.00164682 0)
(0.415301 -0.00198832 0)
(0.415777 -0.00241341 0)
(0.416345 -0.00293621 0)
(0.417027 -0.00357232 0)
(0.417846 -0.00433921 0)
(0.41883 -0.00525716 0)
(0.420013 -0.00635078 0)
(0.42143 -0.00764882 0)
(0.423125 -0.00918314 0)
(0.425155 -0.0109896 0)
(0.427585 -0.0131106 0)
(0.430506 -0.0155913 0)
(0.434001 -0.0184894 0)
(0.438281 -0.0218056 0)
(0.443263 -0.0257696 0)
(0.449996 -0.0294435 0)
(0.412468 -9.44681e-05 0)
(0.412504 -0.000253664 0)
(0.412579 -0.000383925 0)
(0.412685 -0.000491427 0)
(0.412809 -0.000581875 0)
(0.412948 -0.000661584 0)
(0.4131 -0.000738278 0)
(0.413266 -0.000820227 0)
(0.413446 -0.000915479 0)
(0.413642 -0.00103227 0)
(0.413856 -0.00117985 0)
(0.414095 -0.0013688 0)
(0.414364 -0.001611 0)
(0.414674 -0.00191943 0)
(0.415035 -0.00230804 0)
(0.415461 -0.00279167 0)
(0.415967 -0.00338637 0)
(0.416573 -0.00410991 0)
(0.417299 -0.00498244 0)
(0.418168 -0.00602726 0)
(0.419211 -0.0072721 0)
(0.420458 -0.00874994 0)
(0.42195 -0.0104995 0)
(0.423739 -0.0125662 0)
(0.425884 -0.0150037 0)
(0.428477 -0.0178721 0)
(0.431596 -0.0212457 0)
(0.43547 -0.025159 0)
(0.44 -0.0298307 0)
(0.446387 -0.0345315 0)
(0.412467 -0.000110047 0)
(0.412499 -0.000296137 0)
(0.412566 -0.000447789 0)
(0.412659 -0.000571573 0)
(0.412771 -0.000674773 0)
(0.412896 -0.000765147 0)
(0.413034 -0.000851242 0)
(0.413183 -0.000942198 0)
(0.413344 -0.00104726 0)
(0.413519 -0.00117577 0)
(0.41371 -0.00133784 0)
(0.413922 -0.00154515 0)
(0.41416 -0.00181107 0)
(0.414431 -0.00215031 0)
(0.414746 -0.00257846 0)
(0.415116 -0.00311195 0)
(0.415553 -0.00376836 0)
(0.416074 -0.00456708 0)
(0.416695 -0.00553013 0)
(0.417437 -0.00668325 0)
(0.418322 -0.00805726 0)
(0.419378 -0.00968941 0)
(0.420639 -0.0116246 0)
(0.422149 -0.0139169 0)
(0.423962 -0.016632 0)
(0.426164 -0.0198467 0)
(0.428826 -0.0236562 0)
(0.432188 -0.0281353 0)
(0.436136 -0.0334978 0)
(0.441998 -0.0392651 0)
(0.412466 -0.00012371 0)
(0.412494 -0.000333435 0)
(0.412552 -0.000504194 0)
(0.412634 -0.000642785 0)
(0.412733 -0.00075752 0)
(0.412843 -0.00085735 0)
(0.412965 -0.000951798 0)
(0.413096 -0.00105092 0)
(0.413237 -0.00116486 0)
(0.413389 -0.00130374 0)
(0.413555 -0.00147844 0)
(0.413737 -0.00170167 0)
(0.413941 -0.00198808 0)
(0.414171 -0.00235364 0)
(0.414436 -0.00281515 0)
(0.414745 -0.00339017 0)
(0.415108 -0.00409741 0)
(0.415537 -0.00495754 0)
(0.416045 -0.00599412 0)
(0.416647 -0.00723486 0)
(0.417361 -0.0087132 0)
(0.418207 -0.01047 0)
(0.419211 -0.0125556 0)
(0.42041 -0.0150323 0)
(0.421846 -0.0179775 0)
(0.423596 -0.0214857 0)
(0.42572 -0.0256742 0)
(0.428456 -0.0306642 0)
(0.431677 -0.0366698 0)
(0.436789 -0.0435079 0)
(0.412465 -0.00013553 0)
(0.412489 -0.000365692 0)
(0.412539 -0.000553107 0)
(0.41261 -0.000704772 0)
(0.412694 -0.000829701 0)
(0.412789 -0.000937738 0)
(0.412893 -0.00103923 0)
(0.413005 -0.00114503 0)
(0.413125 -0.0012661 0)
(0.413254 -0.00141315 0)
(0.413393 -0.00159762 0)
(0.413544 -0.00183293 0)
(0.413711 -0.00213477 0)
(0.413898 -0.00252024 0)
(0.414111 -0.00300709 0)
(0.414356 -0.00361368 0)
(0.414641 -0.00435945 0)
(0.414973 -0.00526585 0)
(0.415362 -0.00635736 0)
(0.415816 -0.00766294 0)
(0.416347 -0.00921777 0)
(0.416969 -0.0110654 0)
(0.417697 -0.0132607 0)
(0.418557 -0.0158727 0)
(0.419578 -0.0189894 0)
(0.42082 -0.0227222 0)
(0.422327 -0.0272117 0)
(0.424319 -0.0326281 0)
(0.42666 -0.0391917 0)
(0.430751 -0.0470484 0)
(0.412464 -0.000145518 0)
(0.412484 -0.000392933 0)
(0.412526 -0.000594473 0)
(0.412584 -0.000757302 0)
(0.412655 -0.000890887 0)
(0.412734 -0.0010057 0)
(0.41282 -0.00111279 0)
(0.412912 -0.00122376 0)
(0.41301 -0.00135023 0)
(0.413114 -0.00150332 0)
(0.413226 -0.00169479 0)
(0.413345 -0.00193868 0)
(0.413474 -0.00225147 0)
(0.413617 -0.00265105 0)
(0.413776 -0.00315572 0)
(0.413955 -0.00378419 0)
(0.414159 -0.00455619 0)
(0.414392 -0.00549338 0)
(0.414657 -0.00662056 0)
(0.414959 -0.0079671 0)
(0.415302 -0.00956895 0)
(0.415689 -0.0114712 0)
(0.416128 -0.0137312 0)
(0.416629 -0.0164231 0)
(0.417204 -0.0196434 0)
(0.417892 -0.0235176 0)
(0.418714 -0.0282078 0)
(0.41985 -0.0339319 0)
(0.421159 -0.0409203 0)
(0.423928 -0.0496628 0)
(0.412464 -0.000153664 0)
(0.412479 -0.000415143 0)
(0.412512 -0.0006282 0)
(0.412559 -0.000800136 0)
(0.412615 -0.000940727 0)
(0.412678 -0.00106087 0)
(0.412745 -0.00117213 0)
(0.412817 -0.00128674 0)
(0.412893 -0.00141683 0)
(0.412972 -0.00157378 0)
(0.413055 -0.00176948 0)
(0.413142 -0.00201831 0)
(0.413233 -0.0023373 0)
(0.413331 -0.00274479 0)
(0.413435 -0.00325929 0)
(0.413549 -0.00389949 0)
(0.413671 -0.00468492 0)
(0.413804 -0.00563693 0)
(0.413945 -0.00677983 0)
(0.414094 -0.0081425 0)
(0.414246 -0.00976043 0)
(0.414397 -0.0116785 0)
(0.414541 -0.0139549 0)
(0.414672 -0.0166658 0)
(0.414784 -0.0199125 0)
(0.414886 -0.0238304 0)
(0.414972 -0.0285983 0)
(0.415157 -0.0344748 0)
(0.415302 -0.041701 0)
(0.416444 -0.0510949 0)
(0.412463 -0.000159952 0)
(0.412474 -0.000432278 0)
(0.412499 -0.000654215 0)
(0.412533 -0.000833154 0)
(0.412575 -0.000979048 0)
(0.412621 -0.00110303 0)
(0.41267 -0.00121701 0)
(0.412722 -0.00133372 0)
(0.412775 -0.00146565 0)
(0.412829 -0.00162424 0)
(0.412883 -0.0018214 0)
(0.412938 -0.00207164 0)
(0.412992 -0.00239223 0)
(0.413044 -0.00280164 0)
(0.413095 -0.00331823 0)
(0.413143 -0.00396027 0)
(0.413186 -0.00474661 0)
(0.413221 -0.00569767 0)
(0.413241 -0.00683657 0)
(0.413239 -0.00819064 0)
(0.413204 -0.0097936 0)
(0.413121 -0.0116884 0)
(0.412973 -0.0139312 0)
(0.412736 -0.0165969 0)
(0.412382 -0.0197871 0)
(0.411887 -0.0236404 0)
(0.411211 -0.0283438 0)
(0.410384 -0.0341835 0)
(0.40927 -0.0414067 0)
(0.408518 -0.051105 0)
(0.412462 -0.000164378 0)
(0.412469 -0.000444331 0)
(0.412485 -0.000672503 0)
(0.412508 -0.00085633 0)
(0.412535 -0.00100579 0)
(0.412564 -0.00113209 0)
(0.412595 -0.0012474 0)
(0.412626 -0.00136475 0)
(0.412657 -0.00149679 0)
(0.412686 -0.0016549 0)
(0.412713 -0.00185083 0)
(0.412735 -0.00209904 0)
(0.412752 -0.00241681 0)
(0.412762 -0.00282237 0)
(0.412761 -0.0033336 0)
(0.412746 -0.00396793 0)
(0.412713 -0.0047431 0)
(0.412653 -0.00567803 0)
(0.412557 -0.00679385 0)
(0.412411 -0.00811537 0)
(0.412198 -0.00967307 0)
(0.411892 -0.011506 0)
(0.411464 -0.0136656 0)
(0.410874 -0.0162216 0)
(0.41007 -0.0192698 0)
(0.408992 -0.022944 0)
(0.407561 -0.0274281 0)
(0.405708 -0.0330159 0)
(0.403299 -0.0399498 0)
(0.40048 -0.0494979 0)
(0.412461 -0.000166936 0)
(0.412464 -0.000451345 0)
(0.412472 -0.000683109 0)
(0.412482 -0.000869665 0)
(0.412495 -0.00102098 0)
(0.412508 -0.00114819 0)
(0.412521 -0.00126346 0)
(0.412532 -0.00137999 0)
(0.412541 -0.00151048 0)
(0.412546 -0.00166611 0)
(0.412546 -0.00185833 0)
(0.412537 -0.00210135 0)
(0.412519 -0.00241217 0)
(0.412487 -0.00280851 0)
(0.412438 -0.0033074 0)
(0.412364 -0.00392512 0)
(0.412259 -0.00467788 0)
(0.412111 -0.00558255 0)
(0.411907 -0.00665758 0)
(0.411628 -0.00792426 0)
(0.41125 -0.00940851 0)
(0.410739 -0.0111435 0)
(0.410054 -0.0131732 0)
(0.409139 -0.0155577 0)
(0.407919 -0.0183812 0)
(0.4063 -0.0217632 0)
(0.404163 -0.0258704 0)
(0.40133 -0.0309801 0)
(0.397669 -0.0373127 0)
(0.392757 -0.0461776 0)
(0.41246 -0.000167657 0)
(0.412459 -0.000453361 0)
(0.412459 -0.000686162 0)
(0.412458 -0.000873382 0)
(0.412456 -0.00102484 0)
(0.412453 -0.00115151 0)
(0.412448 -0.00126551 0)
(0.41244 -0.00137992 0)
(0.412428 -0.0015073 0)
(0.41241 -0.00165855 0)
(0.412383 -0.00184477 0)
(0.412346 -0.00207975 0)
(0.412295 -0.00237991 0)
(0.412225 -0.00276215 0)
(0.412129 -0.0032424 0)
(0.412001 -0.00383548 0)
(0.41183 -0.00455571 0)
(0.411603 -0.00541748 0)
(0.411302 -0.00643594 0)
(0.410904 -0.00762801 0)
(0.410379 -0.00901385 0)
(0.409688 -0.0106189 0)
(0.408778 -0.0124772 0)
(0.407579 -0.0146353 0)
(0.405999 -0.0171594 0)
(0.403908 -0.0201453 0)
(0.401154 -0.0237285 0)
(0.397458 -0.0281424 0)
(0.392681 -0.0335651 0)
(0.385845 -0.0411896 0)
(0.412459 -0.00016658 0)
(0.412455 -0.000450528 0)
(0.412446 -0.000681847 0)
(0.412433 -0.00086768 0)
(0.412418 -0.00101769 0)
(0.4124 -0.00114254 0)
(0.412378 -0.001254 0)
(0.412352 -0.00136502 0)
(0.412319 -0.00148789 0)
(0.412279 -0.00163316 0)
(0.412228 -0.00181141 0)
(0.412164 -0.00203584 0)
(0.412082 -0.00232206 0)
(0.411977 -0.00268594 0)
(0.41184 -0.00314203 0)
(0.411664 -0.0037035 0)
(0.411435 -0.00438251 0)
(0.411137 -0.0051906 0)
(0.410752 -0.00613918 0)
(0.410252 -0.00724014 0)
(0.409603 -0.00850692 0)
(0.408761 -0.00995597 0)
(0.407666 -0.0116089 0)
(0.406236 -0.0134958 0)
(0.404366 -0.0156594 0)
(0.401902 -0.0181638 0)
(0.398661 -0.0211 0)
(0.394285 -0.0246326 0)
(0.388624 -0.0288761 0)
(0.380242 -0.034752 0)
(0.412458 -0.000163769 0)
(0.41245 -0.000443024 0)
(0.412434 -0.000670461 0)
(0.412411 -0.000852979 0)
(0.412382 -0.000999933 0)
(0.412349 -0.00112168 0)
(0.412311 -0.00122961 0)
(0.412267 -0.00133615 0)
(0.412216 -0.00145323 0)
(0.412155 -0.00159101 0)
(0.412082 -0.00175959 0)
(0.411993 -0.00197141 0)
(0.411883 -0.002241 0)
(0.411746 -0.00258292 0)
(0.411574 -0.00301026 0)
(0.411355 -0.00353435 0)
(0.411076 -0.00416504 0)
(0.410719 -0.00491084 0)
(0.410264 -0.0057791 0)
(0.409681 -0.0067763 0)
(0.408934 -0.00790861 0)
(0.407975 -0.00918255 0)
(0.40674 -0.0106061 0)
(0.405142 -0.0121902 0)
(0.403068 -0.013951 0)
(0.400347 -0.0159144 0)
(0.396783 -0.0181178 0)
(0.391966 -0.0206376 0)
(0.385733 -0.0235085 0)
(0.376373 -0.0272559 0)
(0.412457 -0.000159308 0)
(0.412446 -0.000431092 0)
(0.412422 -0.000652381 0)
(0.412389 -0.000829762 0)
(0.412348 -0.000972145 0)
(0.412302 -0.00108955 0)
(0.412248 -0.00119302 0)
(0.412188 -0.00129429 0)
(0.412119 -0.00140453 0)
(0.412039 -0.00153346 0)
(0.411946 -0.00169085 0)
(0.411834 -0.00188835 0)
(0.4117 -0.00213919 0)
(0.411536 -0.00245638 0)
(0.411333 -0.00285138 0)
(0.411078 -0.00333366 0)
(0.410757 -0.00391069 0)
(0.410353 -0.0045879 0)
(0.409843 -0.00536853 0)
(0.409197 -0.00625359 0)
(0.408378 -0.00724181 0)
(0.407339 -0.00832952 0)
(0.406013 -0.00951052 0)
(0.404315 -0.0107759 0)
(0.402128 -0.0121137 0)
(0.399283 -0.0135088 0)
(0.395577 -0.0149402 0)
(0.390595 -0.0163868 0)
(0.384159 -0.0177966 0)
(0.374514 -0.0192309 0)
(0.412457 -0.000153305 0)
(0.412442 -0.000415047 0)
(0.412412 -0.000628115 0)
(0.412369 -0.000798604 0)
(0.412317 -0.000935037 0)
(0.412258 -0.00104704 0)
(0.41219 -0.00114506 0)
(0.412115 -0.0012401 0)
(0.41203 -0.00134266 0)
(0.411933 -0.00146196 0)
(0.411821 -0.0016072 0)
(0.41169 -0.00178907 0)
(0.411535 -0.00201945 0)
(0.411347 -0.00230976 0)
(0.411118 -0.0026698 0)
(0.410834 -0.00310715 0)
(0.410481 -0.00362698 0)
(0.410041 -0.00423171 0)
(0.409491 -0.00492065 0)
(0.408802 -0.00568957 0)
(0.407939 -0.00653008 0)
(0.406855 -0.00742875 0)
(0.405488 -0.00836576 0)
(0.403757 -0.00931299 0)
(0.401552 -0.0102309 0)
(0.398715 -0.0110645 0)
(0.395055 -0.0117364 0)
(0.390189 -0.0121289 0)
(0.383934 -0.012105 0)
(0.374725 -0.0112659 0)
(0.412456 -0.000145914 0)
(0.412439 -0.000395296 0)
(0.412402 -0.000598238 0)
(0.412352 -0.000760215 0)
(0.41229 -0.000889326 0)
(0.412218 -0.000994839 0)
(0.412138 -0.00108663 0)
(0.412049 -0.00117486 0)
(0.411949 -0.00126915 0)
(0.411837 -0.0013781 0)
(0.411709 -0.00151031 0)
(0.411562 -0.00167558 0)
(0.411388 -0.00188436 0)
(0.411181 -0.00214646 0)
(0.410931 -0.00246998 0)
(0.410625 -0.00286068 0)
(0.410248 -0.00332156 0)
(0.409783 -0.00385229 0)
(0.409208 -0.00444866 0)
(0.408496 -0.00510176 0)
(0.407613 -0.00579687 0)
(0.406519 -0.00651189 0)
(0.405158 -0.00721489 0)
(0.403458 -0.00786068 0)
(0.401324 -0.00838543 0)
(0.398619 -0.00869849 0)
(0.395179 -0.0086721 0)
(0.390692 -0.00810381 0)
(0.384978 -0.00678365 0)
(0.376852 -0.00393343 0)
(0.412455 -0.00013732 0)
(0.412436 -0.000372342 0)
(0.412394 -0.000563469 0)
(0.412337 -0.000715433 0)
(0.412266 -0.000835961 0)
(0.412184 -0.000934007 0)
(0.412093 -0.0010188 0)
(0.411991 -0.00109958 0)
(0.411878 -0.00118512 0)
(0.411753 -0.00128335 0)
(0.411611 -0.00140214 0)
(0.411449 -0.00155017 0)
(0.411261 -0.00173655 0)
(0.411038 -0.00196958 0)
(0.410772 -0.00225576 0)
(0.41045 -0.00259914 0)
(0.410057 -0.00300078 0)
(0.409577 -0.003458 0)
(0.40899 -0.00396362 0)
(0.408271 -0.00450488 0)
(0.407393 -0.00506195 0)
(0.406319 -0.00560575 0)
(0.405005 -0.00609459 0)
(0.403392 -0.00646974 0)
(0.401404 -0.00664809 0)
(0.39894 -0.00651129 0)
(0.39587 -0.00589261 0)
(0.391982 -0.0045254 0)
(0.387093 -0.00214967 0)
(0.380551 0.00226671 0)
(0.412455 -0.00012777 0)
(0.412433 -0.000346842 0)
(0.412388 -0.000524713 0)
(0.412325 -0.000665193 0)
(0.412247 -0.000775778 0)
(0.412156 -0.000865351 0)
(0.412054 -0.000942506 0)
(0.411942 -0.00101544 0)
(0.411818 -0.00109194 0)
(0.411681 -0.00117922 0)
(0.411527 -0.00128446 0)
(0.411353 -0.00141529 0)
(0.411153 -0.00157939 0)
(0.410919 -0.00178352 0)
(0.410641 -0.00203268 0)
(0.410308 -0.00232946 0)
(0.409906 -0.00267328 0)
(0.40942 -0.00305965 0)
(0.408832 -0.00347917 0)
(0.408123 -0.00391631 0)
(0.407268 -0.0043476 0)
(0.406239 -0.0047391 0)
(0.405005 -0.00504248 0)
(0.403522 -0.00518989 0)
(0.401741 -0.00508509 0)
(0.399597 -0.0045921 0)
(0.397006 -0.00351823 0)
(0.393867 -0.00156817 0)
(0.390006 0.00155577 0)
(0.385364 0.00699362 0)
(0.412455 -0.000117617 0)
(0.412432 -0.000319658 0)
(0.412385 -0.000482967 0)
(0.412318 -0.000610564 0)
(0.412234 -0.000710061 0)
(0.412135 -0.000790282 0)
(0.412024 -0.00085902 0)
(0.411903 -0.000923399 0)
(0.411769 -0.000990322 0)
(0.411622 -0.00106626 0)
(0.411459 -0.00115748 0)
(0.411275 -0.00127052 0)
(0.411065 -0.00141182 0)
(0.410822 -0.00158683 0)
(0.410537 -0.0017992 0)
(0.410198 -0.00205022 0)
(0.409793 -0.00233806 0)
(0.409308 -0.0026569 0)
(0.408729 -0.00299596 0)
(0.408039 -0.00333815 0)
(0.407221 -0.00365817 0)
(0.406256 -0.0039196 0)
(0.405124 -0.00407112 0)
(0.403803 -0.00404062 0)
(0.402267 -0.00372626 0)
(0.400496 -0.00298384 0)
(0.398447 -0.0016134 0)
(0.396137 0.000682825 0)
(0.393408 0.00422909 0)
(0.390761 0.0101106 0)
(0.412455 -0.000107416 0)
(0.412433 -0.000292118 0)
(0.412385 -0.0004394 0)
(0.412316 -0.000552154 0)
(0.412228 -0.000639291 0)
(0.412123 -0.000709827 0)
(0.412005 -0.000770452 0)
(0.411875 -0.000826853 0)
(0.411734 -0.000884868 0)
(0.411578 -0.000950357 0)
(0.411407 -0.00102883 0)
(0.411216 -0.00112562 0)
(0.410999 -0.00124577 0)
(0.410751 -0.00139341 0)
(0.410461 -0.001571 0)
(0.410119 -0.00177884 0)
(0.409715 -0.00201437 0)
(0.409237 -0.00227125 0)
(0.408673 -0.00253818 0)
(0.408011 -0.0027977 0)
(0.407239 -0.00302429 0)
(0.406349 -0.00318167 0)
(0.405332 -0.00321893 0)
(0.404186 -0.00306548 0)
(0.402912 -0.00262259 0)
(0.40153 -0.00174928 0)
(0.40004 -0.000250979 0)
(0.398571 0.00215924 0)
(0.39698 0.00580113 0)
(0.396241 0.0115782 0)
(0.412455 -9.80107e-05 0)
(0.412436 -0.000266405 0)
(0.412392 -0.000396514 0)
(0.412323 -0.000491602 0)
(0.412231 -0.000563286 0)
(0.41212 -0.000621087 0)
(0.411996 -0.000670474 0)
(0.41186 -0.000716422 0)
(0.411712 -0.000763997 0)
(0.411549 -0.000817846 0)
(0.411372 -0.00088219 0)
(0.411175 -0.000961333 0)
(0.410953 -0.00105942 0)
(0.410701 -0.00117945 0)
(0.410409 -0.00132283 0)
(0.410069 -0.00148902 0)
(0.409669 -0.00167478 0)
(0.409201 -0.00187363 0)
(0.408655 -0.0020749 0)
(0.408024 -0.00226219 0)
(0.407303 -0.00241158 0)
(0.40649 -0.00248933 0)
(0.405589 -0.00244823 0)
(0.404617 -0.00222279 0)
(0.403598 -0.0017231 0)
(0.40259 -0.000827735 0)
(0.401641 0.000641411 0)
(0.400962 0.00294228 0)
(0.400427 0.00637235 0)
(0.401368 0.0115706 0)
(0.412457 -9.09378e-05 0)
(0.412443 -0.000243312 0)
(0.412408 -0.000356426 0)
(0.412344 -0.000436656 0)
(0.41225 -0.000496616 0)
(0.412135 -0.000545146 0)
(0.412006 -0.000586628 0)
(0.411864 -0.000624454 0)
(0.41171 -0.000662964 0)
(0.411543 -0.000706549 0)
(0.41136 -0.000758849 0)
(0.411159 -0.000822911 0)
(0.410935 -0.000901562 0)
(0.41068 -0.000996523 0)
(0.410389 -0.00110807 0)
(0.410051 -0.00123552 0)
(0.409658 -0.00137615 0)
(0.409203 -0.00152392 0)
(0.408677 -0.00166899 0)
(0.408077 -0.00179694 0)
(0.407405 -0.00188713 0)
(0.406665 -0.00191049 0)
(0.405875 -0.00182758 0)
(0.405063 -0.00158408 0)
(0.404273 -0.00110479 0)
(0.403594 -0.000288123 0)
(0.403118 0.00102198 0)
(0.403123 0.00303184 0)
(0.403499 0.00600446 0)
(0.405804 0.0102451 0)
(0.412461 -9.25005e-05 0)
(0.412459 -0.000221941 0)
(0.412436 -0.000298164 0)
(0.412375 -0.000348638 0)
(0.41228 -0.000389349 0)
(0.412163 -0.000424168 0)
(0.412031 -0.000453182 0)
(0.411886 -0.000480842 0)
(0.411728 -0.000510261 0)
(0.411556 -0.000544328 0)
(0.41137 -0.000584585 0)
(0.411167 -0.000633057 0)
(0.410941 -0.000691866 0)
(0.410686 -0.000762168 0)
(0.410395 -0.000843578 0)
(0.41006 -0.000934115 0)
(0.409674 -0.00103099 0)
(0.40923 -0.00112998 0)
(0.408724 -0.00122346 0)
(0.408154 -0.00129968 0)
(0.407525 -0.00134228 0)
(0.406849 -0.00132778 0)
(0.406151 -0.0012244 0)
(0.405471 -0.000993487 0)
(0.404871 -0.000589334 0)
(0.404471 5.09645e-05 0)
(0.404396 0.00105681 0)
(0.404946 0.00261304 0)
(0.406031 0.00492157 0)
(0.409319 0.0079458 0)
(0.412471 -0.000122525 0)
(0.412527 -0.000264865 0)
(0.412507 -0.000323516 0)
(0.412437 -0.000347438 0)
(0.412335 -0.000367608 0)
(0.412218 -0.000384636 0)
(0.412088 -0.00039997 0)
(0.411944 -0.000415545 0)
(0.411786 -0.000433135 0)
(0.41161 -0.000454277 0)
(0.411414 -0.000480884 0)
(0.411194 -0.000513768 0)
(0.410946 -0.000553531 0)
(0.410664 -0.000598839 0)
(0.410343 -0.000650356 0)
(0.409977 -0.000708023 0)
(0.409563 -0.000768398 0)
(0.409097 -0.000826559 0)
(0.408582 -0.000877432 0)
(0.408021 -0.000914572 0)
(0.407428 -0.000928033 0)
(0.406825 -0.000903448 0)
(0.406246 -0.000820618 0)
(0.405739 -0.000647966 0)
(0.405383 -0.000345324 0)
(0.405252 0.000125206 0)
(0.405326 0.00082962 0)
(0.406064 0.00185731 0)
(0.40772 0.00339158 0)
(0.411163 0.00502616 0)
(0.412267 -7.73388e-05 0)
(0.412105 -0.000153702 0)
(0.411818 -0.00017911 0)
(0.41145 -0.000193834 0)
(0.411056 -0.000208114 0)
(0.410651 -0.000220527 0)
(0.410232 -0.000230559 0)
(0.409797 -0.00023924 0)
(0.409346 -0.000247495 0)
(0.408877 -0.000256016 0)
(0.408387 -0.000265204 0)
(0.407871 -0.000275539 0)
(0.407323 -0.000287813 0)
(0.406738 -0.000303077 0)
(0.406109 -0.000321604 0)
(0.40543 -0.000342234 0)
(0.404697 -0.000364024 0)
(0.403908 -0.00038658 0)
(0.403068 -0.000408092 0)
(0.402185 -0.000424855 0)
(0.401276 -0.000432535 0)
(0.400369 -0.000423292 0)
(0.39951 -0.000387157 0)
(0.398769 -0.000321374 0)
(0.398244 -0.000209883 0)
(0.398093 -1.90548e-06 0)
(0.398534 0.000309714 0)
(0.399804 0.000694523 0)
(0.402209 0.00128919 0)
(0.407091 0.00170926 0)
(0.458734 -0.00504106 -1.19057e-19)
(0.46236 -0.00759604 -1.18941e-19)
(0.465332 -0.0105985 -1.69241e-18)
(0.467535 -0.0138311 -4.87919e-19)
(0.469352 -0.0172526 4.95532e-19)
(0.470952 -0.0208583 0)
(0.47238 -0.0246698 0)
(0.473685 -0.0287199 5.10456e-19)
(0.474928 -0.0330381 -5.19598e-19)
(0.476151 -0.0376497 -1.04698e-18)
(0.477371 -0.0425827 1.0666e-18)
(0.478589 -0.0478732 0)
(0.479799 -0.0535689 -1.08972e-18)
(0.480997 -0.059731 1.11156e-18)
(0.482183 -0.0664354 0)
(0.483358 -0.0737756 2.26606e-18)
(0.484524 -0.0818659 1.15146e-18)
(0.485678 -0.0908469 1.15026e-18)
(0.486815 -0.100893 1.18188e-18)
(0.48792 -0.112225 1.17497e-18)
(0.488969 -0.125121 -1.20864e-18)
(0.489929 -0.139939 3.66686e-18)
(0.490728 -0.157147 0)
(0.491308 -0.177338 -2.44816e-18)
(0.491384 -0.201399 1.22265e-18)
(0.49107 -0.230223 -2.45881e-18)
(0.488999 -0.265735 -3.58634e-18)
(0.486172 -0.310456 0)
(0.480102 -0.358268 0)
(0.463359 -0.460432 -4.35177e-19)
(0.462519 -0.0110037 -1.94731e-18)
(0.464485 -0.0136386 0)
(0.465968 -0.016766 0)
(0.467069 -0.0201116 -2.01142e-18)
(0.468062 -0.0236246 2.03683e-18)
(0.469061 -0.0273314 2.06324e-18)
(0.470065 -0.0312659 -5.19511e-19)
(0.471067 -0.0354505 5.28956e-19)
(0.472071 -0.0399015 1.61661e-18)
(0.47307 -0.0446404 2.72621e-18)
(0.474045 -0.0496998 -1.09894e-18)
(0.474979 -0.0551247 2.25524e-18)
(0.475858 -0.0609712 1.13829e-18)
(0.476678 -0.0673061 1.17298e-18)
(0.477434 -0.0742085 1.17535e-18)
(0.47812 -0.0817725 2.40315e-18)
(0.478723 -0.0901122 0)
(0.479223 -0.099367 -1.22738e-18)
(0.479589 -0.10971 -1.27521e-18)
(0.479781 -0.121355 0)
(0.479737 -0.134574 1.28642e-18)
(0.479376 -0.149708 1.34582e-18)
(0.478567 -0.167202 -2.70876e-18)
(0.477166 -0.187604 0)
(0.474785 -0.211732 1.34355e-18)
(0.471412 -0.240339 1.4254e-18)
(0.465343 -0.275376 -2.82068e-18)
(0.458188 -0.317628 1.30267e-18)
(0.444857 -0.366485 -1.35995e-18)
(0.422793 -0.457053 5.76335e-19)
(0.461156 -0.016652 1.98345e-18)
(0.462319 -0.0192589 0)
(0.463272 -0.0223842 -2.53715e-19)
(0.464195 -0.0257643 4.38167e-18)
(0.465145 -0.0293317 -1.56094e-18)
(0.466104 -0.0330969 -3.16836e-18)
(0.467033 -0.0370811 2.696e-18)
(0.467906 -0.0413015 -5.43801e-19)
(0.468712 -0.0457808 -1.6483e-18)
(0.469445 -0.0505534 -5.3561e-19)
(0.470097 -0.0556632 5.72275e-19)
(0.470661 -0.0611606 -3.46926e-18)
(0.471134 -0.0671019 2.36392e-18)
(0.47151 -0.0735516 -3.59522e-18)
(0.471776 -0.0805858 0)
(0.471911 -0.0882961 -2.47667e-18)
(0.471886 -0.0967944 0)
(0.471662 -0.106217 0)
(0.471187 -0.116733 2.61973e-18)
(0.470395 -0.128549 0)
(0.469191 -0.141922 0)
(0.467451 -0.157176 -2.77433e-18)
(0.464989 -0.174723 2.82638e-18)
(0.461586 -0.195068 0)
(0.456774 -0.218945 0)
(0.450404 -0.247012 -2.96539e-18)
(0.440598 -0.281079 1.3219e-18)
(0.429234 -0.321036 -8.2464e-19)
(0.408825 -0.369887 -8.00464e-19)
(0.382257 -0.449162 0)
(0.4595 -0.0225852 -6.34432e-20)
(0.460357 -0.0252771 -6.41206e-20)
(0.461041 -0.0284437 1.96973e-18)
(0.461797 -0.0318421 -4.24251e-18)
(0.462563 -0.0354169 2.69452e-19)
(0.463259 -0.0391853 5.45327e-19)
(0.463864 -0.0431773 -5.31944e-19)
(0.464385 -0.0474197 0)
(0.464825 -0.0519419 2.88206e-18)
(0.465179 -0.0567793 -5.25582e-18)
(0.465439 -0.0619724 2.39503e-18)
(0.465594 -0.0675664 1.20916e-18)
(0.465627 -0.0736133 -3.72643e-18)
(0.465519 -0.0801751 0)
(0.465241 -0.0873271 0)
(0.464759 -0.09516 2.65459e-18)
(0.464031 -0.103783 2.716e-18)
(0.463 -0.113328 1.37127e-18)
(0.461597 -0.123955 -4.46775e-21)
(0.459727 -0.135858 -1.44333e-18)
(0.457266 -0.149277 0)
(0.454048 -0.164508 0)
(0.449839 -0.181923 -1.62557e-18)
(0.444353 -0.20197 -4.88649e-18)
(0.437058 -0.22529 0)
(0.427686 -0.252428 -1.81057e-18)
(0.414251 -0.284989 3.36966e-18)
(0.398804 -0.322354 -6.4695e-18)
(0.371695 -0.369342 9.43894e-19)
(0.342156 -0.437232 0)
(0.457114 -0.0284093 0)
(0.457649 -0.0311173 2.13005e-18)
(0.457994 -0.0342703 -1.8761e-18)
(0.458472 -0.0376598 1.90429e-18)
(0.458968 -0.0412444 2.77549e-19)
(0.459362 -0.0450408 -2.82903e-19)
(0.459646 -0.0490752 -2.28682e-18)
(0.459841 -0.0533707 0)
(0.459944 -0.0579528 3.3955e-20)
(0.459939 -0.0628533 2.4146e-18)
(0.459806 -0.0681104 -3.08154e-18)
(0.459525 -0.0737689 3.18931e-18)
(0.459071 -0.0798816 3.21143e-18)
(0.458416 -0.0865108 -6.61841e-19)
(0.457526 -0.0937304 4.09063e-18)
(0.456355 -0.101628 -2.71129e-18)
(0.454849 -0.110306 -2.84895e-18)
(0.452938 -0.119887 -1.46071e-18)
(0.450531 -0.13052 0)
(0.44751 -0.142382 0)
(0.443722 -0.15569 0)
(0.438964 -0.170708 1.64311e-18)
(0.432964 -0.187759 5.10912e-18)
(0.425378 -0.207232 1.69185e-18)
(0.415632 -0.229661 3.66473e-18)
(0.403351 -0.255485 -2.12412e-18)
(0.386529 -0.286069 4.1242e-18)
(0.367219 -0.320471 -3.03206e-19)
(0.334228 -0.364333 3.51163e-18)
(0.30292 -0.421312 6.04405e-18)
(0.454005 -0.034089 -2.16184e-18)
(0.454228 -0.0368297 -2.17611e-18)
(0.454239 -0.0399998 -2.23944e-18)
(0.454435 -0.0434101 0)
(0.454656 -0.0470218 0)
(0.454746 -0.0508473 -2.36308e-18)
(0.454695 -0.0549093 0)
(0.45453 -0.0592304 1.84914e-18)
(0.454247 -0.0638373 -4.35672e-18)
(0.453819 -0.0687628 2.56476e-18)
(0.453223 -0.0740459 1.97395e-18)
(0.452436 -0.0797311 -5.31821e-18)
(0.451427 -0.0858693 2.56162e-22)
(0.450163 -0.0925195 -2.12501e-18)
(0.448599 -0.0997503 6.69061e-20)
(0.446679 -0.107642 -2.90756e-18)
(0.444336 -0.116289 -8.04229e-20)
(0.441482 -0.125804 3.16579e-18)
(0.438009 -0.13632 -1.66032e-18)
(0.433779 -0.147993 -1.66292e-18)
(0.428613 -0.161015 3.51299e-18)
(0.422281 -0.175611 0)
(0.414476 -0.192054 -3.65721e-18)
(0.404815 -0.210662 0)
(0.392694 -0.231862 -4.19553e-18)
(0.377651 -0.255986 4.19566e-18)
(0.357729 -0.284133 2.79662e-19)
(0.334871 -0.315162 4.70958e-18)
(0.296987 -0.354849 -6.33474e-18)
(0.264929 -0.401502 1.95566e-18)
(0.450096 -0.0395606 2.13967e-18)
(0.449993 -0.0423273 -7.06664e-20)
(0.449648 -0.0455034 2.72387e-18)
(0.449529 -0.0489158 8.89959e-19)
(0.449438 -0.0525294 0)
(0.449184 -0.0563558 2.42399e-18)
(0.448757 -0.0604173 1.88077e-18)
(0.44819 -0.0647372 -3.16303e-18)
(0.447475 -0.0693416 1.26667e-18)
(0.446584 -0.0742625 -1.29435e-18)
(0.445486 -0.0795364 -2.70403e-18)
(0.444152 -0.0852045 2.77136e-18)
(0.442548 -0.0913139 -7.35888e-19)
(0.44063 -0.0979185 2.18261e-18)
(0.438345 -0.105081 -7.02067e-19)
(0.435626 -0.112874 -7.82904e-19)
(0.432395 -0.121382 4.83491e-18)
(0.428551 -0.130704 -4.99947e-18)
(0.423971 -0.140956 3.41554e-18)
(0.4185 -0.152273 9.32179e-19)
(0.411938 -0.164813 -2.75093e-18)
(0.404035 -0.17876 2.00204e-18)
(0.394459 -0.194334 0)
(0.3828 -0.211781 -1.08617e-18)
(0.368444 -0.23142 5.61339e-18)
(0.350862 -0.253476 0)
(0.328214 -0.27877 -9.08659e-18)
(0.302234 -0.306071 1.41086e-18)
(0.260589 -0.340823 0)
(0.228585 -0.377923 -6.57415e-18)
(0.445303 -0.0446807 -1.1592e-18)
(0.444855 -0.0474637 -1.46761e-19)
(0.444133 -0.0506299 -9.09151e-19)
(0.443671 -0.0540242 -1.36661e-18)
(0.443239 -0.0576161 3.12058e-19)
(0.442614 -0.0614171 -3.18873e-19)
(0.441782 -0.0654485 -1.29297e-18)