/*--------------------------------*- C++ -*----------------------------------*\
  =========                 |
  \\      /  F ield         | OpenFOAM: The Open Source CFD Toolbox
   \\    /   O peration     | Website:  https://openfoam.org
    \\  /    A nd           | Version:  11
     \\/     M anipulation  |
\*---------------------------------------------------------------------------*/
FoamFile
{
    format      ascii;
    class       volVectorField;
    location    "8";
    object      U;
}
// * * * * * * * * * * * * * * * * * * * * * * * * * * * * * * * * * * * * * //

dimensions      [0 1 -1 0 0 0 0];

internalField   nonuniform List<vector> 
12600
(
(0.412112 0.000109115 0)
(0.411839 0.000181592 0)
(0.411422 0.000191687 0)
(0.410946 0.000195116 0)
(0.410473 0.000199783 0)
(0.41001 0.000202941 0)
(0.40955 0.000204609 0)
(0.409091 0.0002056 0)
(0.408634 0.000206132 0)
(0.408181 0.000206191 0)
(0.407733 0.000205777 0)
(0.407292 0.000204872 0)
(0.406858 0.000203355 0)
(0.406435 0.000201019 0)
(0.406025 0.00019774 0)
(0.405631 0.000193563 0)
(0.405258 0.000188249 0)
(0.40491 0.000181111 0)
(0.404592 0.000171925 0)
(0.404312 0.000160894 0)
(0.404079 0.000147499 0)
(0.403906 0.000132285 0)
(0.403805 0.000114541 0)
(0.403795 8.72651e-05 0)
(0.4039 4.63289e-05 0)
(0.404153 -6.60111e-06 0)
(0.404599 -6.90322e-05 0)
(0.405293 -0.000144511 0)
(0.406419 -0.000270725 0)
(0.406866 -0.0008336 0)
(0.412491 0.000156271 0)
(0.412638 0.000284517 0)
(0.412766 0.000266646 0)
(0.412812 0.000259304 0)
(0.412852 0.000261511 0)
(0.4129 0.000261416 0)
(0.412951 0.000259267 0)
(0.413003 0.000256403 0)
(0.413057 0.000253006 0)
(0.413114 0.000248854 0)
(0.413176 0.000243759 0)
(0.413244 0.00023755 0)
(0.413319 0.000229955 0)
(0.413404 0.000220551 0)
(0.4135 0.000208702 0)
(0.413612 0.000193951 0)
(0.413742 0.00017563 0)
(0.413894 0.0001548 0)
(0.414074 0.0001306 0)
(0.414286 9.83396e-05 0)
(0.414539 5.8542e-05 0)
(0.414844 8.94118e-06 0)
(0.415212 -5.39625e-05 0)
(0.415657 -0.000131027 0)
(0.416203 -0.000224907 0)
(0.416851 -0.000343367 0)
(0.417699 -0.000495347 0)
(0.418568 -0.000718003 0)
(0.419985 -0.00100276 0)
(0.420208 -0.00183619 0)
(0.41248 8.48191e-05 0)
(0.412552 0.00015575 0)
(0.41264 0.00016281 0)
(0.412701 0.000164638 0)
(0.412747 0.000170147 0)
(0.412793 0.000172185 0)
(0.412843 0.000170668 0)
(0.412897 0.000167787 0)
(0.412953 0.00016393 0)
(0.413012 0.000158868 0)
(0.413075 0.000152259 0)
(0.413143 0.000143881 0)
(0.413217 0.000133141 0)
(0.413298 0.00011941 0)
(0.41339 0.000102612 0)
(0.413495 8.14078e-05 0)
(0.413617 5.5779e-05 0)
(0.41376 2.42833e-05 0)
(0.413929 -1.80742e-05 0)
(0.414128 -6.9759e-05 0)
(0.414366 -0.000130957 0)
(0.414648 -0.000206332 0)
(0.414988 -0.00029975 0)
(0.415399 -0.000416992 0)
(0.4159 -0.00056364 0)
(0.416511 -0.000752914 0)
(0.417263 -0.000987054 0)
(0.418179 -0.001302 0)
(0.419255 -0.00171581 0)
(0.420559 -0.00208428 0)
(0.412472 5.69681e-05 0)
(0.41252 0.00013583 0)
(0.412591 0.000167086 0)
(0.412649 0.000175587 0)
(0.412693 0.000183829 0)
(0.412736 0.000186577 0)
(0.412785 0.00018486 0)
(0.412837 0.000181177 0)
(0.412891 0.000176046 0)
(0.412949 0.000169504 0)
(0.41301 0.000161212 0)
(0.413076 0.000150596 0)
(0.413148 0.000136999 0)
(0.413228 0.000119028 0)
(0.413318 9.4594e-05 0)
(0.41342 6.47717e-05 0)
(0.413538 2.87558e-05 0)
(0.413677 -1.48856e-05 0)
(0.41384 -6.93584e-05 0)
(0.414033 -0.000135578 0)
(0.414262 -0.000217787 0)
(0.414535 -0.00031941 0)
(0.414862 -0.000445546 0)
(0.415257 -0.000603619 0)
(0.415737 -0.00080171 0)
(0.416323 -0.00105189 0)
(0.417038 -0.00136621 0)
(0.41792 -0.00176141 0)
(0.418957 -0.00227314 0)
(0.420368 -0.0026578 0)
(0.412468 4.15741e-05 0)
(0.4125 0.000107005 0)
(0.412554 0.000135599 0)
(0.412605 0.000142315 0)
(0.412648 0.000143786 0)
(0.412691 0.000142986 0)
(0.412737 0.000138804 0)
(0.412788 0.000131902 0)
(0.412841 0.000123453 0)
(0.412897 0.000113714 0)
(0.412957 0.000101982 0)
(0.413021 8.79351e-05 0)
(0.413091 6.99827e-05 0)
(0.413168 4.66446e-05 0)
(0.413256 1.72267e-05 0)
(0.413356 -2.08856e-05 0)
(0.41347 -6.66184e-05 0)
(0.413604 -0.000122075 0)
(0.41376 -0.000189432 0)
(0.413945 -0.000272478 0)
(0.414163 -0.000374978 0)
(0.414423 -0.00050133 0)
(0.414734 -0.000658146 0)
(0.415109 -0.000854097 0)
(0.415563 -0.00109944 0)
(0.416117 -0.00140766 0)
(0.41679 -0.00179524 0)
(0.417631 -0.00227247 0)
(0.41861 -0.00288787 0)
(0.42003 -0.00346035 0)
(0.412465 3.13486e-05 0)
(0.412488 8.42148e-05 0)
(0.412531 0.00011302 0)
(0.412576 0.000122753 0)
(0.412618 0.0001258 0)
(0.412659 0.000125959 0)
(0.412704 0.000122556 0)
(0.412753 0.000116113 0)
(0.412805 0.000107785 0)
(0.41286 9.7864e-05 0)
(0.412918 8.56798e-05 0)
(0.41298 7.00155e-05 0)
(0.413048 4.96801e-05 0)
(0.413123 2.36767e-05 0)
(0.413206 -9.47735e-06 0)
(0.413301 -5.2878e-05 0)
(0.413411 -0.000106836 0)
(0.413538 -0.000172767 0)
(0.413686 -0.000252904 0)
(0.413861 -0.000351003 0)
(0.414067 -0.000471498 0)
(0.414311 -0.000620172 0)
(0.414603 -0.000804846 0)
(0.414953 -0.00103558 0)
(0.415376 -0.00132469 0)
(0.415892 -0.00168719 0)
(0.416516 -0.00214272 0)
(0.417302 -0.0027027 0)
(0.418213 -0.00342861 0)
(0.419579 -0.00416995 0)
(0.412464 2.43109e-05 0)
(0.412481 6.71286e-05 0)
(0.412515 9.35951e-05 0)
(0.412555 0.000103749 0)
(0.412595 0.000105413 0)
(0.412634 0.000102916 0)
(0.412677 9.68292e-05 0)
(0.412724 8.77374e-05 0)
(0.412774 7.66291e-05 0)
(0.412827 6.37993e-05 0)
(0.412883 4.85448e-05 0)
(0.412943 2.95751e-05 0)
(0.413008 4.94489e-06 0)
(0.41308 -2.6879e-05 0)
(0.41316 -6.71914e-05 0)
(0.41325 -0.000117079 0)
(0.413353 -0.000179042 0)
(0.413473 -0.000254768 0)
(0.413612 -0.000346816 0)
(0.413775 -0.000459209 0)
(0.413967 -0.000597114 0)
(0.414193 -0.000767223 0)
(0.414462 -0.0009783 0)
(0.414784 -0.00124154 0)
(0.415172 -0.00157085 0)
(0.415643 -0.00198307 0)
(0.416212 -0.00250074 0)
(0.41693 -0.00314048 0)
(0.417758 -0.00396609 0)
(0.419031 -0.00487348 0)
(0.412463 1.91551e-05 0)
(0.412476 5.36387e-05 0)
(0.412504 7.64181e-05 0)
(0.41254 8.56193e-05 0)
(0.412577 8.59676e-05 0)
(0.412615 8.16948e-05 0)
(0.412656 7.41965e-05 0)
(0.412701 6.40744e-05 0)
(0.412749 5.20314e-05 0)
(0.4128 3.82077e-05 0)
(0.412854 2.18162e-05 0)
(0.412911 1.516e-06 0)
(0.412974 -2.47071e-05 0)
(0.413042 -5.89427e-05 0)
(0.413117 -0.000103069 0)
(0.413202 -0.000158342 0)
(0.413299 -0.000226972 0)
(0.413411 -0.000310957 0)
(0.413539 -0.000413126 0)
(0.413689 -0.000537751 0)
(0.413865 -0.000690514 0)
(0.414071 -0.000878847 0)
(0.414315 -0.00111246 0)
(0.414606 -0.00140371 0)
(0.414953 -0.00176808 0)
(0.415375 -0.00222428 0)
(0.41588 -0.00279749 0)
(0.416521 -0.00350961 0)
(0.417251 -0.00442554 0)
(0.418403 -0.00548271 0)
(0.412463 1.51366e-05 0)
(0.412473 4.26335e-05 0)
(0.412497 6.1345e-05 0)
(0.412529 6.88429e-05 0)
(0.412563 6.78164e-05 0)
(0.412599 6.1834e-05 0)
(0.412639 5.26413e-05 0)
(0.412682 4.09515e-05 0)
(0.412728 2.7306e-05 0)
(0.412776 1.17309e-05 0)
(0.412828 -6.68172e-06 0)
(0.412883 -2.95286e-05 0)
(0.412942 -5.88089e-05 0)
(0.413006 -9.67492e-05 0)
(0.413077 -0.000145362 0)
(0.413156 -0.000206251 0)
(0.413245 -0.000281545 0)
(0.413347 -0.00037355 0)
(0.413465 -0.000485352 0)
(0.413601 -0.000621455 0)
(0.413758 -0.000787988 0)
(0.413943 -0.000993025 0)
(0.414159 -0.00124704 0)
(0.414415 -0.00156329 0)
(0.414719 -0.00195845 0)
(0.415086 -0.0024529 0)
(0.415522 -0.00307403 0)
(0.416075 -0.0038492 0)
(0.416695 -0.00484238 0)
(0.417701 -0.00603372 0)
(0.412462 1.18516e-05 0)
(0.412471 3.33928e-05 0)
(0.412492 4.80294e-05 0)
(0.41252 5.33083e-05 0)
(0.412552 5.06486e-05 0)
(0.412587 4.2894e-05 0)
(0.412625 3.1942e-05 0)
(0.412666 1.87032e-05 0)
(0.412709 3.65768e-06 0)
(0.412756 -1.32756e-05 0)
(0.412805 -3.30777e-05 0)
(0.412857 -5.75821e-05 0)
(0.412912 -8.89221e-05 0)
(0.412972 -0.000129451 0)
(0.413038 -0.000181343 0)
(0.413111 -0.000246473 0)
(0.413192 -0.00032698 0)
(0.413285 -0.000425331 0)
(0.41339 -0.0005448 0)
(0.41351 -0.000690096 0)
(0.413649 -0.000867685 0)
(0.41381 -0.00108612 0)
(0.413997 -0.00135647 0)
(0.414216 -0.00169277 0)
(0.414474 -0.00211267 0)
(0.414781 -0.00263801 0)
(0.415143 -0.00329793 0)
(0.415599 -0.00412453 0)
(0.416098 -0.00518023 0)
(0.416937 -0.00648313 0)
(0.412462 9.05789e-06 0)
(0.41247 2.53984e-05 0)
(0.412488 3.6094e-05 0)
(0.412514 3.88581e-05 0)
(0.412544 3.43671e-05 0)
(0.412577 2.48625e-05 0)
(0.412613 1.22412e-05 0)
(0.412652 -2.44847e-06 0)
(0.412694 -1.87681e-05 0)
(0.412738 -3.69442e-05 0)
(0.412784 -5.80937e-05 0)
(0.412833 -8.41485e-05 0)
(0.412885 -0.000117428 0)
(0.41294 -0.000160397 0)
(0.413 -0.000215356 0)
(0.413066 -0.000284338 0)
(0.41314 -0.000369513 0)
(0.413221 -0.000473451 0)
(0.413314 -0.000599575 0)
(0.413418 -0.000752747 0)
(0.413537 -0.00093967 0)
(0.413673 -0.00116924 0)
(0.413829 -0.00145295 0)
(0.414009 -0.00180534 0)
(0.414218 -0.00224472 0)
(0.414464 -0.0027939 0)
(0.414746 -0.00348318 0)
(0.4151 -0.00434853 0)
(0.415469 -0.00544977 0)
(0.416123 -0.00684022 0)
(0.412462 6.59896e-06 0)
(0.412469 1.82791e-05 0)
(0.412485 2.52002e-05 0)
(0.412509 2.53097e-05 0)
(0.412538 1.88773e-05 0)
(0.412569 7.67602e-06 0)
(0.412604 -6.50162e-06 0)
(0.412641 -2.25418e-05 0)
(0.41268 -4.00326e-05 0)
(0.412722 -5.93143e-05 0)
(0.412765 -8.1611e-05 0)
(0.412811 -0.000108947 0)
(0.412859 -0.000143777 0)
(0.41291 -0.000188658 0)
(0.412964 -0.000245983 0)
(0.413023 -0.0003179 0)
(0.413087 -0.000406619 0)
(0.413159 -0.00051477 0)
(0.413237 -0.000645865 0)
(0.413325 -0.000804863 0)
(0.413423 -0.000998609 0)
(0.413534 -0.00123619 0)
(0.413658 -0.00152934 0)
(0.413798 -0.00189284 0)
(0.413957 -0.00234535 0)
(0.414138 -0.0029102 0)
(0.414339 -0.00361822 0)
(0.414585 -0.00450803 0)
(0.41482 -0.00563617 0)
(0.415273 -0.0070855 0)
(0.412462 4.36182e-06 0)
(0.412468 1.17679e-05 0)
(0.412484 1.51029e-05 0)
(0.412506 1.25333e-05 0)
(0.412533 4.11324e-06 0)
(0.412563 -8.72959e-06 0)
(0.412596 -2.43495e-05 0)
(0.412632 -4.16162e-05 0)
(0.412669 -6.01315e-05 0)
(0.412708 -8.03276e-05 0)
(0.412749 -0.000103536 0)
(0.412791 -0.000131871 0)
(0.412835 -0.000167883 0)
(0.412881 -0.000214206 0)
(0.412929 -0.000273303 0)
(0.412981 -0.000347396 0)
(0.413036 -0.000438726 0)
(0.413096 -0.000549942 0)
(0.413161 -0.000684594 0)
(0.413232 -0.000847673 0)
(0.413309 -0.00104606 0)
(0.413393 -0.00128891 0)
(0.413485 -0.00158797 0)
(0.413584 -0.00195804 0)
(0.413692 -0.00241773 0)
(0.413808 -0.00299036 0)
(0.413926 -0.0037065 0)
(0.414063 -0.00460614 0)
(0.414161 -0.00574158 0)
(0.414404 -0.00721881 0)
(0.412461 2.26443e-06 0)
(0.412468 5.64694e-06 0)
(0.412483 5.53857e-06 0)
(0.412504 3.29602e-07 0)
(0.41253 -1.00283e-05 0)
(0.412559 -2.44025e-05 0)
(0.41259 -4.13242e-05 0)
(0.412624 -5.96718e-05 0)
(0.412659 -7.90526e-05 0)
(0.412696 -9.99739e-05 0)
(0.412733 -0.000123863 0)
(0.412772 -0.000152909 0)
(0.412812 -0.000189726 0)
(0.412853 -0.000236998 0)
(0.412896 -0.00029723 0)
(0.41294 -0.000372683 0)
(0.412986 -0.000465606 0)
(0.413035 -0.000578637 0)
(0.413086 -0.000715307 0)
(0.413139 -0.00088057 0)
(0.413195 -0.00108125 0)
(0.413253 -0.0013264 0)
(0.413312 -0.00162763 0)
(0.413371 -0.00199948 0)
(0.413427 -0.00246012 0)
(0.413478 -0.00303232 0)
(0.413515 -0.00374564 0)
(0.413542 -0.00463996 0)
(0.413505 -0.00576246 0)
(0.413534 -0.00723417 0)
(0.412461 2.53287e-07 0)
(0.412468 -2.27461e-07 0)
(0.412482 -3.65619e-06 0)
(0.412503 -1.14218e-05 0)
(0.412528 -2.36651e-05 0)
(0.412556 -3.94748e-05 0)
(0.412586 -5.75311e-05 0)
(0.412618 -7.67627e-05 0)
(0.412651 -9.68117e-05 0)
(0.412685 -0.000118251 0)
(0.41272 -0.000142579 0)
(0.412755 -0.000172034 0)
(0.412791 -0.000209264 0)
(0.412827 -0.00025698 0)
(0.412864 -0.000317702 0)
(0.412901 -0.000393703 0)
(0.412938 -0.000487213 0)
(0.412975 -0.000600825 0)
(0.413012 -0.000738005 0)
(0.413048 -0.000903608 0)
(0.413082 -0.00110431 0)
(0.413114 -0.00134894 0)
(0.413141 -0.00164877 0)
(0.41316 -0.00201781 0)
(0.413166 -0.00247348 0)
(0.413154 -0.00303742 0)
(0.413111 -0.00373742 0)
(0.413032 -0.00461169 0)
(0.412864 -0.00570141 0)
(0.412684 -0.00713366 0)
(0.412461 -1.82058e-06 0)
(0.412468 -5.98402e-06 0)
(0.412482 -1.25991e-05 0)
(0.412502 -2.29019e-05 0)
(0.412527 -3.69483e-05 0)
(0.412554 -5.40209e-05 0)
(0.412583 -7.30073e-05 0)
(0.412614 -9.29216e-05 0)
(0.412645 -0.000113439 0)
(0.412677 -0.000135178 0)
(0.412709 -0.00015969 0)
(0.412741 -0.000189241 0)
(0.412772 -0.000226489 0)
(0.412803 -0.000274143 0)
(0.412834 -0.000334714 0)
(0.412863 -0.000410457 0)
(0.412891 -0.000503554 0)
(0.412917 -0.000616525 0)
(0.41294 -0.00075273 0)
(0.412959 -0.000916861 0)
(0.412973 -0.00111536 0)
(0.412979 -0.00135671 0)
(0.412974 -0.00165167 0)
(0.412954 -0.00201351 0)
(0.412912 -0.00245852 0)
(0.41284 -0.00300675 0)
(0.412721 -0.00368346 0)
(0.412542 -0.00452372 0)
(0.412252 -0.00556192 0)
(0.411873 -0.00692168 0)
(0.412461 -3.83267e-06 0)
(0.412468 -1.17254e-05 0)
(0.412482 -2.16329e-05 0)
(0.412503 -3.4343e-05 0)
(0.412528 -4.99915e-05 0)
(0.412554 -6.81303e-05 0)
(0.412582 -8.78394e-05 0)
(0.412611 -0.000108214 0)
(0.412641 -0.000128968 0)
(0.41267 -0.000150767 0)
(0.412699 -0.000175202 0)
(0.412728 -0.000204543 0)
(0.412755 -0.000241426 0)
(0.412782 -0.000288527 0)
(0.412806 -0.000348317 0)
(0.412828 -0.000423002 0)
(0.412847 -0.000514699 0)
(0.412862 -0.000625827 0)
(0.412871 -0.000759603 0)
(0.412873 -0.000920509 0)
(0.412867 -0.00111468 0)
(0.412848 -0.00135013 0)
(0.412813 -0.00163698 0)
(0.412756 -0.00198752 0)
(0.412669 -0.00241667 0)
(0.41254 -0.0029424 0)
(0.412351 -0.00358686 0)
(0.412079 -0.00438061 0)
(0.411679 -0.00535064 0)
(0.411121 -0.00660786 0)
(0.412462 -5.86988e-06 0)
(0.412468 -1.7722e-05 0)
(0.412483 -3.08588e-05 0)
(0.412504 -4.58438e-05 0)
(0.412529 -6.29162e-05 0)
(0.412556 -8.1902e-05 0)
(0.412583 -0.000102103 0)
(0.412611 -0.000122702 0)
(0.412638 -0.000143454 0)
(0.412665 -0.000165071 0)
(0.412692 -0.000189166 0)
(0.412717 -0.000217989 0)
(0.412741 -0.000254123 0)
(0.412762 -0.00030018 0)
(0.412781 -0.000358567 0)
(0.412796 -0.000431419 0)
(0.412806 -0.000520761 0)
(0.41281 -0.000628892 0)
(0.412806 -0.000758851 0)
(0.412792 -0.000914864 0)
(0.412766 -0.00110268 0)
(0.412724 -0.00132979 0)
(0.41266 -0.00160551 0)
(0.412568 -0.00194103 0)
(0.412439 -0.00234962 0)
(0.412258 -0.00284688 0)
(0.412005 -0.00345134 0)
(0.411652 -0.00418799 0)
(0.411157 -0.00507609 0)
(0.410445 -0.00620564 0)
(0.412462 -8.04413e-06 0)
(0.412469 -2.40514e-05 0)
(0.412485 -4.04854e-05 0)
(0.412507 -5.76135e-05 0)
(0.412532 -7.58552e-05 0)
(0.412559 -9.54326e-05 0)
(0.412585 -0.000115886 0)
(0.412612 -0.000136463 0)
(0.412638 -0.00015696 0)
(0.412663 -0.000178143 0)
(0.412687 -0.000201636 0)
(0.412709 -0.000229636 0)
(0.412729 -0.000264645 0)
(0.412746 -0.000309181 0)
(0.412759 -0.000365561 0)
(0.412767 -0.000435828 0)
(0.412769 -0.000521901 0)
(0.412762 -0.000625937 0)
(0.412746 -0.000750776 0)
(0.412717 -0.000900351 0)
(0.412672 -0.00107998 0)
(0.412607 -0.00129654 0)
(0.412517 -0.00155846 0)
(0.412393 -0.00187571 0)
(0.412225 -0.00225975 0)
(0.411996 -0.00272358 0)
(0.411688 -0.00328183 0)
(0.411265 -0.0039532 0)
(0.410692 -0.00474925 0)
(0.409858 -0.00573273 0)
(0.412462 -1.04236e-05 0)
(0.41247 -3.094e-05 0)
(0.412487 -5.07592e-05 0)
(0.412511 -6.98218e-05 0)
(0.412537 -8.8929e-05 0)
(0.412564 -0.000108831 0)
(0.41259 -0.000129284 0)
(0.412615 -0.000149572 0)
(0.41264 -0.000169551 0)
(0.412663 -0.000190053 0)
(0.412685 -0.000212692 0)
(0.412704 -0.000239581 0)
(0.41272 -0.000273103 0)
(0.412733 -0.000315658 0)
(0.412741 -0.000369447 0)
(0.412742 -0.0004364 0)
(0.412736 -0.000518307 0)
(0.412719 -0.000617168 0)
(0.412691 -0.000735605 0)
(0.412647 -0.000877229 0)
(0.412585 -0.00104689 0)
(0.4125 -0.0012508 0)
(0.412385 -0.00149646 0)
(0.412231 -0.00179252 0)
(0.412028 -0.00214858 0)
(0.411759 -0.00257497 0)
(0.411403 -0.00308235 0)
(0.410923 -0.00368279 0)
(0.410289 -0.00438075 0)
(0.409369 -0.00520773 0)
(0.412462 -1.31237e-05 0)
(0.412471 -3.86597e-05 0)
(0.412491 -6.19552e-05 0)
(0.412517 -8.26489e-05 0)
(0.412544 -0.00010226 0)
(0.412571 -0.000122211 0)
(0.412597 -0.000142408 0)
(0.412621 -0.00016212 0)
(0.412645 -0.000181293 0)
(0.412666 -0.000200846 0)
(0.412685 -0.00022237 0)
(0.412702 -0.000247867 0)
(0.412715 -0.000279579 0)
(0.412723 -0.000319759 0)
(0.412726 -0.000370474 0)
(0.412722 -0.000433525 0)
(0.412708 -0.000510559 0)
(0.412682 -0.000603408 0)
(0.412642 -0.000714462 0)
(0.412585 -0.000846984 0)
(0.412507 -0.00100532 0)
(0.412403 -0.00119499 0)
(0.412265 -0.00142253 0)
(0.412085 -0.00169524 0)
(0.411852 -0.00202087 0)
(0.411548 -0.00240706 0)
(0.411153 -0.00286072 0)
(0.410628 -0.00338744 0)
(0.409953 -0.00398559 0)
(0.408981 -0.0046544 0)
(0.412462 -1.6305e-05 0)
(0.412473 -4.75732e-05 0)
(0.412496 -7.44034e-05 0)
(0.412525 -9.62777e-05 0)
(0.412554 -0.000115955 0)
(0.412581 -0.000135672 0)
(0.412606 -0.000155361 0)
(0.412631 -0.000174236 0)
(0.412653 -0.000192357 0)
(0.412673 -0.000210713 0)
(0.41269 -0.000230828 0)
(0.412703 -0.000254562 0)
(0.412713 -0.000284 0)
(0.412718 -0.000321219 0)
(0.412716 -0.000368129 0)
(0.412706 -0.000426403 0)
(0.412685 -0.000497537 0)
(0.412651 -0.00058318 0)
(0.412601 -0.000685492 0)
(0.412532 -0.000807394 0)
(0.412439 -0.000952725 0)
(0.412317 -0.0011263 0)
(0.412159 -0.00133373 0)
(0.411957 -0.00158098 0)
(0.411697 -0.00187401 0)
(0.411363 -0.002218 0)
(0.410937 -0.00261644 0)
(0.410382 -0.00306902 0)
(0.40968 -0.00356962 0)
(0.408691 -0.00408729 0)
(0.412463 -2.02293e-05 0)
(0.412476 -5.82123e-05 0)
(0.412503 -8.84817e-05 0)
(0.412535 -0.000110894 0)
(0.412566 -0.000130151 0)
(0.412594 -0.000149289 0)
(0.41262 -0.000168087 0)
(0.412643 -0.000185789 0)
(0.412665 -0.000202683 0)
(0.412683 -0.000219829 0)
(0.412698 -0.000238622 0)
(0.41271 -0.000260718 0)
(0.412717 -0.000287995 0)
(0.412718 -0.000322359 0)
(0.412712 -0.000365529 0)
(0.412697 -0.00041898 0)
(0.412669 -0.000484066 0)
(0.412627 -0.00056227 0)
(0.412568 -0.000655501 0)
(0.412488 -0.000766299 0)
(0.412382 -0.000897973 0)
(0.412245 -0.00105466 0)
(0.412069 -0.00124103 0)
(0.411847 -0.0014618 0)
(0.411565 -0.00172127 0)
(0.411208 -0.00202238 0)
(0.410759 -0.00236578 0)
(0.410182 -0.00274616 0)
(0.40947 -0.00315504 0)
(0.408493 -0.003536 0)
(0.412464 -2.52983e-05 0)
(0.412481 -7.13221e-05 0)
(0.412513 -0.000104535 0)
(0.412551 -0.000126625 0)
(0.412583 -0.000145186 0)
(0.412612 -0.000163572 0)
(0.412637 -0.000180982 0)
(0.412661 -0.000196739 0)
(0.412681 -0.000211491 0)
(0.412698 -0.000226411 0)
(0.412712 -0.000242792 0)
(0.412721 -0.000262104 0)
(0.412726 -0.00028602 0)
(0.412724 -0.00031626 0)
(0.412714 -0.000354347 0)
(0.412694 -0.000401549 0)
(0.412661 -0.000459077 0)
(0.412612 -0.000528258 0)
(0.412544 -0.000610768 0)
(0.412454 -0.000708792 0)
(0.412336 -0.000825124 0)
(0.412186 -0.000963276 0)
(0.411995 -0.00112706 0)
(0.411756 -0.00132001 0)
(0.411456 -0.00154496 0)
(0.411081 -0.0018029 0)
(0.410615 -0.0020923 0)
(0.410028 -0.00240388 0)
(0.409316 -0.00272945 0)
(0.40837 -0.00299409 0)
(0.412465 -3.22368e-05 0)
(0.412488 -8.80274e-05 0)
(0.412529 -0.00012274 0)
(0.412571 -0.000142996 0)
(0.412606 -0.000160648 0)
(0.412635 -0.000178797 0)
(0.412661 -0.000195724 0)
(0.412685 -0.000210801 0)
(0.412705 -0.000224892 0)
(0.412721 -0.000239108 0)
(0.412733 -0.000254547 0)
(0.41274 -0.000272439 0)
(0.412742 -0.000294233 0)
(0.412738 -0.000321417 0)
(0.412725 -0.00035531 0)
(0.4127 -0.000397028 0)
(0.412662 -0.000447622 0)
(0.412608 -0.000508225 0)
(0.412533 -0.000580299 0)
(0.412434 -0.00066565 0)
(0.412306 -0.000766542 0)
(0.412144 -0.00088591 0)
(0.411941 -0.00102676 0)
(0.411688 -0.00119156 0)
(0.411374 -0.00138196 0)
(0.410985 -0.00159733 0)
(0.410509 -0.00183468 0)
(0.409917 -0.00208168 0)
(0.409213 -0.00233365 0)
(0.408311 -0.00250396 0)
(0.412468 -4.23732e-05 0)
(0.4125 -0.00011033 0)
(0.412552 -0.000144378 0)
(0.4126 -0.000160167 0)
(0.412635 -0.000173962 0)
(0.412665 -0.000188122 0)
(0.412692 -0.000200705 0)
(0.412715 -0.00021168 0)
(0.412735 -0.000222086 0)
(0.41275 -0.000232832 0)
(0.41276 -0.000244862 0)
(0.412766 -0.000259164 0)
(0.412767 -0.000276886 0)
(0.41276 -0.000299207 0)
(0.412744 -0.000327199 0)
(0.412716 -0.000361761 0)
(0.412674 -0.000403774 0)
(0.412614 -0.000454196 0)
(0.412533 -0.000514355 0)
(0.412427 -0.00058562 0)
(0.412291 -0.000669786 0)
(0.41212 -0.000769482 0)
(0.411906 -0.000886878 0)
(0.411642 -0.00102335 0)
(0.411317 -0.00117956 0)
(0.410919 -0.0013535 0)
(0.410437 -0.00154135 0)
(0.409846 -0.00172759 0)
(0.409155 -0.00191766 0)
(0.408291 -0.00201436 0)
(0.412472 -5.75477e-05 0)
(0.41252 -0.000139081 0)
(0.412588 -0.000173034 0)
(0.412643 -0.000190499 0)
(0.412679 -0.000207365 0)
(0.41271 -0.000222632 0)
(0.412737 -0.0002348 0)
(0.412761 -0.000245063 0)
(0.41278 -0.000254781 0)
(0.412794 -0.000264662 0)
(0.412803 -0.000275277 0)
(0.412808 -0.000287508 0)
(0.412807 -0.000302354 0)
(0.412798 -0.000320739 0)
(0.41278 -0.000343565 0)
(0.412749 -0.000371573 0)
(0.412703 -0.000405474 0)
(0.412639 -0.000445944 0)
(0.412553 -0.000494339 0)
(0.412441 -0.000551565 0)
(0.412299 -0.000618352 0)
(0.412119 -0.000697182 0)
(0.411898 -0.000790128 0)
(0.411625 -0.000897756 0)
(0.411293 -0.00101991 0)
(0.41089 -0.00115359 0)
(0.410408 -0.00129433 0)
(0.409821 -0.00142172 0)
(0.409147 -0.00155293 0)
(0.408299 -0.00159335 0)
(0.412479 -8.53069e-05 0)
(0.412551 -0.000157376 0)
(0.412638 -0.000169204 0)
(0.412696 -0.000177533 0)
(0.412733 -0.000189453 0)
(0.412765 -0.000200014 0)
(0.412795 -0.000208134 0)
(0.412819 -0.000215122 0)
(0.412838 -0.000221801 0)
(0.412851 -0.000228763 0)
(0.41286 -0.000237123 0)
(0.412864 -0.000246851 0)
(0.412862 -0.000258539 0)
(0.412852 -0.000272784 0)
(0.412832 -0.000290072 0)
(0.412799 -0.000310961 0)
(0.412751 -0.000336117 0)
(0.412683 -0.00036633 0)
(0.412593 -0.000402218 0)
(0.412477 -0.000445094 0)
(0.41233 -0.000496553 0)
(0.412145 -0.000556853 0)
(0.411916 -0.000626464 0)
(0.411638 -0.000706313 0)
(0.411301 -0.00079607 0)
(0.410894 -0.000892441 0)
(0.410417 -0.000990372 0)
(0.409834 -0.00106331 0)
(0.409186 -0.00113479 0)
(0.408261 -0.0010405 0)
(0.41249 -0.000156433 0)
(0.41264 -0.000287362 0)
(0.412765 -0.000270921 0)
(0.412802 -0.000267258 0)
(0.41283 -0.00027354 0)
(0.412858 -0.000279198 0)
(0.412883 -0.000282734 0)
(0.412902 -0.000285735 0)
(0.412915 -0.000288996 0)
(0.412923 -0.000292718 0)
(0.412925 -0.000297087 0)
(0.412921 -0.00030249 0)
(0.412908 -0.000309231 0)
(0.412885 -0.000317596 0)
(0.412851 -0.000328257 0)
(0.412801 -0.000341242 0)
(0.412735 -0.000357112 0)
(0.412647 -0.000375163 0)
(0.412534 -0.000399367 0)
(0.412392 -0.000426281 0)
(0.412214 -0.00045463 0)
(0.411996 -0.000491605 0)
(0.411729 -0.000536984 0)
(0.411407 -0.000588356 0)
(0.411022 -0.000645575 0)
(0.410567 -0.000706274 0)
(0.410039 -0.000766953 0)
(0.409421 -0.000792524 0)
(0.408708 -0.000824576 0)
(0.4071 -0.00023693 0)
(0.412112 -0.000109576 0)
(0.411837 -0.000182224 0)
(0.411416 -0.000193128 0)
(0.410932 -0.000197635 0)
(0.410447 -0.000203601 0)
(0.409966 -0.000208259 0)
(0.40948 -0.000211805 0)
(0.408987 -0.000215033 0)
(0.408488 -0.000218091 0)
(0.407983 -0.000220956 0)
(0.407472 -0.000223801 0)
(0.406954 -0.000226782 0)
(0.406428 -0.000230059 0)
(0.405891 -0.00023378 0)
(0.405341 -0.00023799 0)
(0.404775 -0.000242876 0)
(0.40419 -0.000248655 0)
(0.403583 -0.000255691 0)
(0.402948 -0.000263551 0)
(0.402279 -0.000273178 0)
(0.401572 -0.000285908 0)
(0.40082 -0.000300509 0)
(0.400012 -0.000316661 0)
(0.399141 -0.000334905 0)
(0.398197 -0.000355539 0)
(0.397175 -0.000376657 0)
(0.396073 -0.000400886 0)
(0.394917 -0.000392963 0)
(0.393806 -0.000455662 0)
(0.391345 0.000291248 0)
(0.412343 -0.00161826 -1.45342e-18)
(0.41741 -0.00207038 -1.13159e-20)
(0.421074 -0.00238434 1.51033e-18)
(0.422912 -0.00287397 3.04356e-18)
(0.423894 -0.00357491 1.55864e-18)
(0.424546 -0.00445815 -1.54908e-18)
(0.425045 -0.005487 1.5868e-18)
(0.425433 -0.00664535 0)
(0.425768 -0.00793631 1.61948e-18)
(0.426079 -0.00936275 -3.35285e-21)
(0.42636 -0.0109282 1.14385e-19)
(0.426593 -0.0126436 0)
(0.426765 -0.014528 -1.94449e-18)
(0.426866 -0.0166065 0)
(0.426888 -0.0189109 0)
(0.42682 -0.0214812 -2.16032e-18)
(0.426646 -0.024369 -2.09281e-18)
(0.426346 -0.027642 2.74422e-22)
(0.425895 -0.0313902 2.11204e-18)
(0.425258 -0.0357349 3.15428e-19)
(0.424391 -0.0408415 -2.95911e-18)
(0.423235 -0.0469555 3.45068e-19)
(0.421719 -0.0543753 -1.80567e-19)
(0.419709 -0.0638028 2.83313e-18)
(0.41717 -0.0753617 3.98822e-19)
(0.413653 -0.092709 -2.08447e-19)
(0.409619 -0.11121 0)
(0.403567 -0.154676 -3.4204e-18)
(0.397591 -0.18429 -3.57021e-18)
(0.390946 -0.336147 0)
(0.421621 -0.00215724 1.45806e-18)
(0.423173 -0.00240378 -3.45323e-20)
(0.424027 -0.00293809 2.68445e-20)
(0.42405 -0.00370348 -1.53839e-18)
(0.424117 -0.00462175 -4.93715e-20)
(0.424317 -0.00564251 1.67003e-18)
(0.424545 -0.00676073 1.56091e-18)
(0.424823 -0.00798417 2.13615e-19)
(0.425098 -0.00932034 -1.09834e-19)
(0.425346 -0.0107758 1.80582e-18)
(0.425546 -0.012362 1.98232e-18)
(0.425684 -0.0140969 1.80483e-18)
(0.425749 -0.0160026 2.11246e-18)
(0.425737 -0.0181052 1.92835e-18)
(0.425637 -0.0204364 2.13021e-18)
(0.425434 -0.0230365 4.54688e-18)
(0.425107 -0.0259582 2.15331e-18)
(0.424632 -0.0292699 -2.53964e-18)
(0.423975 -0.0330624 2.64844e-18)
(0.423094 -0.0374577 -1.62609e-19)
(0.421931 -0.0426231 1.69567e-19)
(0.420409 -0.0487993 2.86675e-18)
(0.418421 -0.0563068 0)
(0.415816 -0.0657677 -1.98309e-19)
(0.412407 -0.0775555 3.57338e-18)
(0.407773 -0.0946043 0)
(0.401841 -0.114008 3.77102e-18)
(0.392988 -0.155612 -3.65607e-18)
(0.381698 -0.187452 -2.22601e-20)
(0.36652 -0.332572 2.49845e-18)
(0.421297 -0.00228564 -1.13797e-20)
(0.421881 -0.00273213 -1.15951e-20)
(0.422348 -0.00358825 -1.499e-18)
(0.422679 -0.00457603 -4.88092e-20)
(0.422962 -0.00558502 5.00784e-20)
(0.423314 -0.00662044 -5.13769e-20)
(0.423669 -0.00772383 -1.63465e-18)
(0.423965 -0.00892631 0)
(0.424189 -0.0102391 0)
(0.424348 -0.0116723 0)
(0.424446 -0.0132405 -1.89436e-18)
(0.424478 -0.0149612 -1.15813e-19)
(0.424436 -0.0168539 -1.76784e-18)
(0.424311 -0.0189427 -2.09133e-18)
(0.424087 -0.0212593 -2.30341e-18)
(0.423743 -0.0238446 -2.25033e-18)
(0.423258 -0.0267511 1.59949e-19)
(0.422599 -0.0300475 2.28541e-18)
(0.421728 -0.0338241 -2.38525e-18)
(0.420593 -0.0382024 -1.66699e-19)
(0.419123 -0.0433497 0)
(0.417222 -0.0495018 -6.08713e-18)
(0.414756 -0.0569946 1.93826e-19)
(0.411525 -0.0663781 -3.31568e-18)
(0.407278 -0.0782619 5.75215e-20)
(0.40144 -0.0948149 0)
(0.393756 -0.115116 -8.01735e-18)
(0.38194 -0.154135 8.16021e-18)
(0.365653 -0.189276 -4.48233e-18)
(0.341115 -0.325575 -2.75437e-18)
(0.421245 -0.00336382 0)
(0.421683 -0.00403166 -1.53259e-18)
(0.422078 -0.00488259 1.05771e-23)
(0.422359 -0.00576464 2.47542e-20)
(0.422594 -0.00666166 0)
(0.422823 -0.00763136 0)
(0.42302 -0.00870914 -1.71709e-18)
(0.423167 -0.00990296 0)
(0.423265 -0.0112126 1.13565e-19)
(0.423318 -0.0126438 -2.34095e-19)
(0.423318 -0.0142085 -8.60644e-23)
(0.423252 -0.0159224 -1.86845e-18)
(0.423104 -0.0178051 1.29224e-19)
(0.422861 -0.0198822 2.01203e-18)
(0.422503 -0.0221861 1.39021e-19)
(0.422011 -0.0247581 2.17201e-18)
(0.421355 -0.0276505 -2.39867e-18)
(0.420502 -0.0309312 -2.51958e-18)
(0.419403 -0.03469 0)
(0.417997 -0.0390473 2.59388e-18)
(0.416199 -0.0441688 1.805e-19)
(0.413894 -0.0502873 3.23129e-18)
(0.410913 -0.0577379 -2.01217e-19)
(0.407022 -0.0670405 3.4089e-18)
(0.40186 -0.0788909 -3.6277e-18)
(0.394801 -0.0950381 0)
(0.385154 -0.115725 4.26978e-18)
(0.370505 -0.152403 -4.41696e-18)
(0.348824 -0.189611 4.56089e-18)
(0.315118 -0.315882 1.31104e-19)
(0.420873 -0.00429784 0)
(0.421159 -0.00493225 1.52657e-18)
(0.421394 -0.00570132 0)
(0.42159 -0.00654658 0)
(0.421761 -0.00746092 0)
(0.421918 -0.00846499 0)
(0.422048 -0.00956892 1.74043e-18)
(0.422134 -0.0107723 5.60636e-20)
(0.42217 -0.0120781 -5.77445e-20)
(0.422148 -0.0134972 0)
(0.422059 -0.0150453 0)
(0.421889 -0.0167402 1.27389e-19)
(0.421626 -0.0186029 2.25312e-22)
(0.421256 -0.0206589 -2.3195e-18)
(0.420758 -0.0229401 0)
(0.420109 -0.0254869 -2.35972e-18)
(0.419275 -0.0283508 0)
(0.418216 -0.0315988 2.733e-18)
(0.416876 -0.0353194 -3.38088e-19)
(0.415183 -0.0396311 -2.65226e-18)
(0.413039 -0.0446965 1.50536e-18)
(0.410307 -0.0507435 0)
(0.406787 -0.0581016 0)
(0.402199 -0.067266 0)
(0.396088 -0.0789653 1.93911e-18)
(0.387757 -0.0946584 -2.08953e-18)
(0.37609 -0.115355 0)
(0.358646 -0.149662 -2.43003e-18)
(0.331451 -0.188179 -2.68395e-18)
(0.289255 -0.303367 2.39732e-18)
(0.420353 -0.00511257 7.43598e-19)
(0.420546 -0.00577136 7.86434e-19)
(0.420695 -0.00654924 8.19263e-19)
(0.420837 -0.00740443 7.64624e-19)
(0.420959 -0.00832662 9.16258e-19)
(0.421049 -0.00932497 8.07665e-19)
(0.421097 -0.0104101 8.86581e-19)
(0.421094 -0.0115895 -9.13399e-19)
(0.421035 -0.0128718 5.88091e-20)
(0.420912 -0.0142692 8.51381e-19)
(0.420716 -0.0157961 1.00567e-18)
(0.420434 -0.0174688 9.76192e-19)
(0.420052 -0.0193068 1.34523e-19)
(0.419551 -0.0213349 -1.12146e-18)
(0.418909 -0.0235842 1.45699e-19)
(0.418096 -0.0260944 -3.03265e-19)
(0.417075 -0.0289163 -1.11321e-18)
(0.4158 -0.0321155 -1.33163e-18)
(0.414208 -0.0357783 0)
(0.412215 -0.0400203 -1.84144e-19)
(0.409708 -0.0449996 1.441e-20)
(0.406528 -0.0509369 2.04513e-19)
(0.402445 -0.0581512 1.54382e-18)
(0.397131 -0.0671145 3.51175e-19)
(0.39004 -0.0785476 -8.67745e-20)
(0.380397 -0.0937134 2.30247e-18)
(0.366677 -0.114042 -1.47317e-19)
(0.346483 -0.145948 2.54275e-18)
(0.313787 -0.184844 3.00022e-18)
(0.263806 -0.288016 -2.75258e-18)
(0.419717 -0.00588217 -7.63918e-19)
(0.419836 -0.00654475 -7.71094e-19)
(0.419907 -0.0073112 -8.16554e-19)
(0.41998 -0.00815105 2.76589e-20)
(0.420033 -0.0090594 -1.67243e-18)
(0.420045 -0.0100442 -8.72746e-19)
(0.420009 -0.011115 -1.91237e-18)
(0.419921 -0.0122794 1.13051e-19)
(0.419774 -0.013545 -5.9806e-20)
(0.419559 -0.0149222 -1.9786e-18)
(0.419263 -0.0164243 4.14586e-21)
(0.418872 -0.0180673 -9.91896e-19)
(0.418369 -0.0198708 1.03461e-18)
(0.417734 -0.0218596 -6.00681e-21)
(0.416941 -0.0240644 1.49263e-19)
(0.415958 -0.0265239 -1.55178e-19)
(0.414744 -0.0292872 1.29687e-18)
(0.413244 -0.0324178 1.35982e-18)
(0.41139 -0.035999 1.80226e-19)
(0.409085 -0.0401421 1.14396e-18)