/*--------------------------------*- C++ -*----------------------------------*\
  =========                 |
  \\      /  F ield         | OpenFOAM: The Open Source CFD Toolbox
   \\    /   O peration     | Website:  https://openfoam.org
    \\  /    A nd           | Version:  11
     \\/     M anipulation  |
\*---------------------------------------------------------------------------*/
FoamFile
{
    format      ascii;
    class       volVectorField;
    location    "8";
    object      U;
}
// * * * * * * * * * * * * * * * * * * * * * * * * * * * * * * * * * * * * * //

dimensions      [0 1 -1 0 0 0 0];

internalField   nonuniform List<vector> 
12600
(
(0.399655 0.000103185 0)
(0.399397 0.000175888 0)
(0.399007 0.000182995 0)
(0.398572 0.000182317 0)
(0.398155 0.000182644 0)
(0.397766 0.000180343 0)
(0.397402 0.000175417 0)
(0.397067 0.000168843 0)
(0.39677 0.000159553 0)
(0.396518 0.000146941 0)
(0.396324 0.000131355 0)
(0.396199 0.000114715 0)
(0.396157 9.26664e-05 0)
(0.396215 6.3182e-05 0)
(0.396398 2.08005e-05 0)
(0.396733 -2.97488e-05 0)
(0.397256 -8.6701e-05 0)
(0.398008 -0.000153154 0)
(0.399042 -0.000239004 0)
(0.40043 -0.00035154 0)
(0.402242 -0.000482452 0)
(0.404559 -0.000634666 0)
(0.407508 -0.000823089 0)
(0.411258 -0.00105894 0)
(0.415997 -0.00135381 0)
(0.421953 -0.00171509 0)
(0.429371 -0.0021686 0)
(0.438569 -0.0026492 0)
(0.449894 -0.00353793 0)
(0.465887 -0.00313166 0)
(0.400035 0.000149633 0)
(0.40018 0.000264297 0)
(0.400343 0.000240388 0)
(0.40043 0.000223227 0)
(0.400522 0.000211421 0)
(0.400637 0.000196222 0)
(0.400776 0.000174415 0)
(0.400941 0.000145896 0)
(0.40114 0.000114727 0)
(0.401381 7.72206e-05 0)
(0.401672 3.00719e-05 0)
(0.402025 -2.75834e-05 0)
(0.40245 -9.77674e-05 0)
(0.402964 -0.000181576 0)
(0.403579 -0.000281437 0)
(0.404321 -0.000402278 0)
(0.405217 -0.000550729 0)
(0.406258 -0.000735165 0)
(0.407592 -0.000962886 0)
(0.409076 -0.00124122 0)
(0.410936 -0.00158697 0)
(0.413329 -0.00202035 0)
(0.41628 -0.00255751 0)
(0.419914 -0.00321826 0)
(0.42439 -0.00402971 0)
(0.429903 -0.00502069 0)
(0.436687 -0.00623878 0)
(0.445075 -0.00765721 0)
(0.455351 -0.0096947 0)
(0.468211 -0.0104433 0)
(0.400022 7.82183e-05 0)
(0.400105 0.000133405 0)
(0.400213 0.000119452 0)
(0.400307 0.00010414 0)
(0.400397 9.19467e-05 0)
(0.400502 7.32689e-05 0)
(0.400628 4.39541e-05 0)
(0.400779 2.63968e-06 0)
(0.400961 -4.98466e-05 0)
(0.401183 -0.000113331 0)
(0.401454 -0.000188367 0)
(0.401785 -0.000277639 0)
(0.402187 -0.0003847 0)
(0.402676 -0.000513786 0)
(0.403267 -0.00067068 0)
(0.403983 -0.000862573 0)
(0.404854 -0.00109346 0)
(0.405912 -0.00137973 0)
(0.407201 -0.00172679 0)
(0.408781 -0.00214447 0)
(0.410716 -0.00268294 0)
(0.413065 -0.00337191 0)
(0.415926 -0.00421882 0)
(0.419435 -0.00525235 0)
(0.423753 -0.00652052 0)
(0.429087 -0.00807778 0)
(0.435637 -0.0100023 0)
(0.443853 -0.0122991 0)
(0.453653 -0.0153879 0)
(0.467102 -0.0176771 0)
(0.400014 4.62635e-05 0)
(0.400072 0.000103167 0)
(0.400163 0.000110839 0)
(0.400252 9.85403e-05 0)
(0.40034 8.06845e-05 0)
(0.40044 5.27689e-05 0)
(0.400561 1.25716e-05 0)
(0.400707 -4.04564e-05 0)
(0.400884 -0.0001078 0)
(0.401099 -0.000190809 0)
(0.401361 -0.000292246 0)
(0.401681 -0.000414864 0)
(0.40207 -0.000562618 0)
(0.402542 -0.000741034 0)
(0.403113 -0.000957198 0)
(0.403806 -0.00121972 0)
(0.404647 -0.00153831 0)
(0.405669 -0.00192965 0)
(0.406913 -0.00240904 0)
(0.408431 -0.00299999 0)
(0.410287 -0.00374323 0)
(0.412549 -0.00466856 0)
(0.415307 -0.00580382 0)
(0.418689 -0.00719923 0)
(0.422845 -0.00892333 0)
(0.427983 -0.0110511 0)
(0.434289 -0.0136908 0)
(0.442234 -0.016867 0)
(0.451674 -0.0210586 0)
(0.464854 -0.0247903 0)
(0.40001 2.79394e-05 0)
(0.400051 6.62043e-05 0)
(0.400124 6.73735e-05 0)
(0.400206 4.54392e-05 0)
(0.400289 1.49554e-05 0)
(0.400385 -2.51429e-05 0)
(0.400502 -7.81333e-05 0)
(0.400643 -0.00014709 0)
(0.400813 -0.000233557 0)
(0.401019 -0.000339845 0)
(0.401271 -0.000468862 0)
(0.401577 -0.000623881 0)
(0.401949 -0.000809869 0)
(0.402401 -0.00103378 0)
(0.402947 -0.00130448 0)
(0.403609 -0.00163328 0)
(0.404411 -0.0020338 0)
(0.405385 -0.00252481 0)
(0.406569 -0.00312816 0)
(0.408013 -0.00387091 0)
(0.409776 -0.00479218 0)
(0.411924 -0.00593538 0)
(0.414544 -0.00734792 0)
(0.417755 -0.00909261 0)
(0.4217 -0.0112514 0)
(0.426579 -0.0139198 0)
(0.432565 -0.0172325 0)
(0.440138 -0.021258 0)
(0.44909 -0.0264767 0)
(0.461835 -0.0316866 0)
(0.400007 1.50375e-05 0)
(0.400038 3.58629e-05 0)
(0.400099 3.22916e-05 0)
(0.400173 8.74684e-06 0)
(0.400254 -2.49338e-05 0)
(0.400345 -6.94921e-05 0)
(0.400456 -0.000130245 0)
(0.40059 -0.000210538 0)
(0.400751 -0.000312126 0)
(0.400947 -0.000437579 0)
(0.401186 -0.000590199 0)
(0.401475 -0.000774094 0)
(0.401827 -0.000995149 0)
(0.402253 -0.00126154 0)
(0.402768 -0.00158393 0)
(0.403391 -0.00197586 0)
(0.404146 -0.00245391 0)
(0.405062 -0.00303947 0)
(0.406174 -0.0037587 0)
(0.407528 -0.00464391 0)
(0.409177 -0.0057389 0)
(0.411187 -0.00709599 0)
(0.413638 -0.00877417 0)
(0.416641 -0.0108483 0)
(0.420326 -0.0134164 0)
(0.424886 -0.0165966 0)
(0.430474 -0.0205501 0)
(0.437574 -0.0253908 0)
(0.445921 -0.0315956 0)
(0.45806 -0.038246 0)
(0.400006 5.4789e-06 0)
(0.40003 1.15274e-05 0)
(0.400081 1.31127e-06 0)
(0.400148 -2.66322e-05 0)
(0.400223 -6.80354e-05 0)
(0.40031 -0.000122541 0)
(0.400414 -0.000194836 0)
(0.400539 -0.000288825 0)
(0.400691 -0.000407154 0)
(0.400874 -0.000552787 0)
(0.401097 -0.00072947 0)
(0.401368 -0.000942075 0)
(0.401696 -0.00119737 0)
(0.402092 -0.00150469 0)
(0.402571 -0.00187626 0)
(0.403149 -0.00232756 0)
(0.403848 -0.00287782 0)
(0.404696 -0.00355122 0)
(0.405724 -0.00437778 0)
(0.406972 -0.00539476 0)
(0.408492 -0.00665021 0)
(0.410341 -0.00820297 0)
(0.412595 -0.010123 0)
(0.415354 -0.0124984 0)
(0.418735 -0.0154428 0)
(0.422918 -0.019095 0)
(0.428036 -0.0236403 0)
(0.434565 -0.02924 0)
(0.442194 -0.0363635 0)
(0.45355 -0.0443961 0)
(0.400005 -1.8413e-06 0)
(0.400025 -8.39258e-06 0)
(0.400069 -2.64695e-05 0)
(0.400128 -5.99706e-05 0)
(0.400198 -0.000107748 0)
(0.400279 -0.000170076 0)
(0.400375 -0.00025115 0)
(0.400491 -0.000355685 0)
(0.400632 -0.000487405 0)
(0.400801 -0.000649843 0)
(0.401007 -0.000847165 0)
(0.401256 -0.00108476 0)
(0.401557 -0.00137012 0)
(0.401919 -0.00171358 0)
(0.402357 -0.00212885 0)
(0.402885 -0.00263329 0)
(0.403522 -0.00324847 0)
(0.404292 -0.00400121 0)
(0.405224 -0.0049248 0)
(0.406355 -0.00606064 0)
(0.407728 -0.00746114 0)
(0.409396 -0.00919145 0)
(0.411427 -0.0113312 0)
(0.413909 -0.0139802 0)
(0.416944 -0.0172659 0)
(0.420696 -0.0213458 0)
(0.425276 -0.0264288 0)
(0.431141 -0.0327229 0)
(0.437943 -0.0406903 0)
(0.448328 -0.0500319 0)
(0.400004 -7.92429e-06 0)
(0.400021 -2.51433e-05 0)
(0.400059 -5.11252e-05 0)
(0.400112 -9.02988e-05 0)
(0.400175 -0.000143821 0)
(0.400249 -0.00021332 0)
(0.400338 -0.000303117 0)
(0.400444 -0.000418354 0)
(0.400572 -0.00056336 0)
(0.400727 -0.00074205 0)
(0.400913 -0.000958903 0)
(0.401138 -0.00121981 0)
(0.401409 -0.00153297 0)
(0.401734 -0.00190975 0)
(0.402126 -0.00236509 0)
(0.402598 -0.00291795 0)
(0.403166 -0.00359185 0)
(0.403851 -0.00441588 0)
(0.404678 -0.00542617 0)
(0.405679 -0.00666764 0)
(0.406891 -0.00819682 0)
(0.408361 -0.0100843 0)
(0.410146 -0.0124177 0)
(0.412321 -0.0153065 0)
(0.414975 -0.0188908 0)
(0.418247 -0.0233451 0)
(0.422228 -0.0288996 0)
(0.427341 -0.0358068 0)
(0.433212 -0.0445228 0)
(0.442431 -0.0550687 0)
(0.400003 -1.28573e-05 0)
(0.400018 -3.94816e-05 0)
(0.40005 -7.28891e-05 0)
(0.400097 -0.000117804 0)
(0.400155 -0.000176961 0)
(0.400222 -0.00025311 0)
(0.400302 -0.000350775 0)
(0.400398 -0.000475354 0)
(0.400513 -0.000631721 0)
(0.400651 -0.000824262 0)
(0.400816 -0.00105782 0)
(0.401015 -0.0013387 0)
(0.401253 -0.00167574 0)
(0.401539 -0.0020811 0)
(0.401881 -0.0025708 0)
(0.402292 -0.00316519 0)
(0.402785 -0.00388944 0)
(0.403378 -0.00477463 0)
(0.404092 -0.00585925 0)
(0.404953 -0.00719116 0)
(0.405992 -0.00883038 0)
(0.407248 -0.0108521 0)
(0.408767 -0.0133501 0)
(0.410611 -0.0164423 0)
(0.412851 -0.0202792 0)
(0.415603 -0.0250497 0)
(0.418931 -0.0310023 0)
(0.423212 -0.0384301 0)
(0.428059 -0.0477836 0)
(0.435918 -0.0593963 0)
(0.400003 -1.71033e-05 0)
(0.400015 -5.18557e-05 0)
(0.400043 -9.20441e-05 0)
(0.400085 -0.000142431 0)
(0.400136 -0.000206739 0)
(0.400196 -0.000288691 0)
(0.400268 -0.000393208 0)
(0.400352 -0.000525941 0)
(0.400453 -0.000692159 0)
(0.400573 -0.000896634 0)
(0.400716 -0.00114452 0)
(0.400887 -0.0014425 0)
(0.401091 -0.00179992 0)
(0.401334 -0.00222963 0)
(0.401624 -0.00274855 0)
(0.40197 -0.00337813 0)
(0.402383 -0.00414489 0)
(0.402878 -0.00508147 0)
(0.403472 -0.00622819 0)
(0.404184 -0.00763521 0)
(0.40504 -0.0093653 0)
(0.406069 -0.0114971 0)
(0.407306 -0.0141293 0)
(0.4088 -0.0173858 0)
(0.4106 -0.0214251 0)
(0.412798 -0.0264475 0)
(0.415429 -0.0327158 0)
(0.418811 -0.0405577 0)
(0.422552 -0.0504172 0)
(0.428866 -0.0629205 0)
(0.400002 -2.07348e-05 0)
(0.400013 -6.24994e-05 0)
(0.400038 -0.000108749 0)
(0.400074 -0.000164198 0)
(0.400119 -0.000233197 0)
(0.400172 -0.0003202 0)
(0.400234 -0.000430521 0)
(0.400307 -0.000570041 0)
(0.400393 -0.000744345 0)
(0.400495 -0.000958542 0)
(0.400615 -0.00121806 0)
(0.400756 -0.00152988 0)
(0.400924 -0.00190372 0)
(0.401122 -0.00235297 0)
(0.401356 -0.00289526 0)
(0.401634 -0.00355286 0)
(0.401964 -0.00435331 0)
(0.402357 -0.00533041 0)
(0.402824 -0.00652583 0)
(0.403382 -0.00799136 0)
(0.404046 -0.00979168 0)
(0.404838 -0.0120078 0)
(0.405782 -0.0147416 0)
(0.40691 -0.018121 0)
(0.408252 -0.0223098 0)
(0.40987 -0.0275153 0)
(0.411772 -0.0340106 0)
(0.414201 -0.0421492 0)
(0.416774 -0.0523662 0)
(0.421382 -0.0655458 0)
(0.400002 -2.38502e-05 0)
(0.400011 -7.16724e-05 0)
(0.400032 -0.000123278 0)
(0.400064 -0.000183257 0)
(0.400103 -0.000256319 0)
(0.400148 -0.000347472 0)
(0.400201 -0.000462421 0)
(0.400263 -0.000607281 0)
(0.400334 -0.000787863 0)
(0.400416 -0.00100951 0)
(0.400511 -0.00127787 0)
(0.400623 -0.00160014 0)
(0.400752 -0.00198633 0)
(0.400903 -0.00245021 0)
(0.401081 -0.00300992 0)
(0.401288 -0.0036883 0)
(0.401532 -0.00451356 0)
(0.401819 -0.00552023 0)
(0.402157 -0.00675085 0)
(0.402554 -0.0082581 0)
(0.403022 -0.0101077 0)
(0.403571 -0.012382 0)
(0.404214 -0.0151841 0)
(0.404966 -0.0186439 0)
(0.405839 -0.0229271 0)
(0.406862 -0.0282443 0)
(0.408014 -0.0348723 0)
(0.409455 -0.0431812 0)
(0.410819 -0.0535917 0)
(0.413594 -0.0671965 0)
(0.400002 -2.65245e-05 0)
(0.40001 -7.95548e-05 0)
(0.400028 -0.000135799 0)
(0.400054 -0.000199671 0)
(0.400088 -0.000276087 0)
(0.400126 -0.000370471 0)
(0.40017 -0.000488858 0)
(0.400219 -0.000637547 0)
(0.400274 -0.000822498 0)
(0.400337 -0.00104923 0)
(0.400407 -0.00132353 0)
(0.400488 -0.00165276 0)
(0.400578 -0.0020471 0)
(0.400682 -0.00252058 0)
(0.4008 -0.00309156 0)
(0.400936 -0.00378325 0)
(0.401092 -0.00462415 0)
(0.401271 -0.00564916 0)
(0.401476 -0.00690107 0)
(0.401711 -0.00843284 0)
(0.401979 -0.0103104 0)
(0.402281 -0.0126159 0)
(0.40262 -0.0154525 0)
(0.402993 -0.0189495 0)
(0.403392 -0.0232712 0)
(0.403815 -0.0286271 0)
(0.404212 -0.035291 0)
(0.404652 -0.043638 0)
(0.404792 -0.0540672 0)
(0.405656 -0.0678172 0)
(0.400002 -2.88195e-05 0)
(0.400008 -8.62907e-05 0)
(0.400024 -0.000146478 0)
(0.400046 -0.000213566 0)
(0.400074 -0.000292571 0)
(0.400105 -0.000389214 0)
(0.400139 -0.000509789 0)
(0.400176 -0.000660728 0)
(0.400216 -0.000848082 0)
(0.400259 -0.00107746 0)
(0.400304 -0.00135476 0)
(0.400353 -0.0016874 0)
(0.400404 -0.00208564 0)
(0.40046 -0.00256356 0)
(0.400519 -0.00313962 0)
(0.400581 -0.00383704 0)
(0.400648 -0.00468437 0)
(0.400718 -0.00571639 0)
(0.40079 -0.00697569 0)
(0.400862 -0.00851482 0)
(0.400929 -0.0103989 0)
(0.400985 -0.0127092 0)
(0.401019 -0.0155467 0)
(0.401015 -0.0190379 0)
(0.400944 -0.023343 0)
(0.400773 -0.028665 0)
(0.400424 -0.035268 0)
(0.399872 -0.0435195 0)
(0.398804 -0.0537879 0)
(0.397741 -0.0673844 0)
(0.400001 -3.07785e-05 0)
(0.400007 -9.20233e-05 0)
(0.40002 -0.000155485 0)
(0.400039 -0.000225083 0)
(0.400061 -0.000305857 0)
(0.400085 -0.000403744 0)
(0.40011 -0.000525227 0)
(0.400135 -0.000676813 0)
(0.400159 -0.000864574 0)
(0.400182 -0.00109415 0)
(0.400202 -0.00137147 0)
(0.400219 -0.00170394 0)
(0.400231 -0.00210178 0)
(0.400238 -0.00257898 0)
(0.400238 -0.00315388 0)
(0.400228 -0.0038495 0)
(0.400206 -0.00469404 0)
(0.400167 -0.00572182 0)
(0.400106 -0.00697472 0)
(0.400016 -0.00850421 0)
(0.399885 -0.0103739 0)
(0.399697 -0.0126627 0)
(0.399432 -0.0154682 0)
(0.399057 -0.0189121 0)
(0.398527 -0.0231469 0)
(0.397778 -0.0283649 0)
(0.396707 -0.0348133 0)
(0.395198 -0.0428393 0)
(0.392968 -0.0527701 0)
(0.390034 -0.065911 0)
(0.400001 -3.24537e-05 0)
(0.400006 -9.68939e-05 0)
(0.400017 -0.000163004 0)
(0.400032 -0.000234389 0)
(0.40005 -0.000316071 0)
(0.400067 -0.000414159 0)
(0.400083 -0.000535256 0)
(0.400096 -0.000685867 0)
(0.400105 -0.000872022 0)
(0.400108 -0.00109934 0)
(0.400103 -0.00137369 0)
(0.400088 -0.00170242 0)
(0.400062 -0.00209559 0)
(0.40002 -0.00256696 0)
(0.399961 -0.00313452 0)
(0.399879 -0.00382086 0)
(0.399769 -0.00465355 0)
(0.399624 -0.00566603 0)
(0.399432 -0.006899 0)
(0.399183 -0.00840229 0)
(0.398857 -0.0102372 0)
(0.398432 -0.0124792 0)
(0.397876 -0.0152214 0)
(0.397144 -0.0185783 0)
(0.396172 -0.0226922 0)
(0.394872 -0.0277404 0)
(0.393117 -0.0339469 0)
(0.390709 -0.0416261 0)
(0.387394 -0.0510541 0)
(0.382717 -0.0634514 0)
(0.400001 -3.39027e-05 0)
(0.400005 -0.000101061 0)
(0.400014 -0.000169239 0)
(0.400027 -0.000241674 0)
(0.40004 -0.000323371 0)
(0.400051 -0.000420595 0)
(0.400058 -0.000540012 0)
(0.400059 -0.000688037 0)
(0.400053 -0.000870581 0)
(0.400036 -0.00109318 0)
(0.400007 -0.00136163 0)
(0.399962 -0.0016831 0)
(0.399897 -0.00206739 0)
(0.399809 -0.00252789 0)
(0.399692 -0.00308208 0)
(0.39954 -0.00375184 0)
(0.399344 -0.00456382 0)
(0.399094 -0.00555027 0)
(0.398776 -0.00675025 0)
(0.398371 -0.0082114 0)
(0.397858 -0.00999202 0)
(0.397204 -0.0121634 0)
(0.396369 -0.0148126 0)
(0.395296 -0.0180456 0)
(0.393908 -0.0219921 0)
(0.392092 -0.026811 0)
(0.389703 -0.0326974 0)
(0.386476 -0.0399226 0)
(0.382182 -0.0487027 0)
(0.375963 -0.060101 0)
(0.400001 -3.51949e-05 0)
(0.400005 -0.000104713 0)
(0.400013 -0.000174428 0)
(0.400023 -0.000247161 0)
(0.400032 -0.000327947 0)
(0.400036 -0.000423237 0)
(0.400035 -0.000539685 0)
(0.400025 -0.000683521 0)
(0.400005 -0.000860484 0)
(0.399969 -0.00107598 0)
(0.399916 -0.00133566 0)
(0.399841 -0.00164643 0)
(0.399739 -0.00201774 0)
(0.399606 -0.00246248 0)
(0.399433 -0.00299743 0)
(0.399213 -0.00364355 0)
(0.398934 -0.0044263 0)
(0.398583 -0.0053764 0)
(0.398143 -0.0065309 0)
(0.39759 -0.00793479 0)
(0.396897 -0.00964274 0)
(0.396026 -0.0117211 0)
(0.394927 -0.01425 0)
(0.393534 -0.0173257 0)
(0.391758 -0.0210634 0)
(0.38947 -0.0256011 0)
(0.386509 -0.0311011 0)
(0.38256 -0.0377837 0)
(0.377419 -0.0457989 0)
(0.369915 -0.0559933 0)
(0.400001 -3.64205e-05 0)
(0.400004 -0.00010809 0)
(0.400012 -0.000178857 0)
(0.40002 -0.000251096 0)
(0.400026 -0.000330021 0)
(0.400025 -0.000422314 0)
(0.400016 -0.000534535 0)
(0.399995 -0.000672623 0)
(0.399961 -0.000842075 0)
(0.399908 -0.00104813 0)
(0.399832 -0.00129625 0)
(0.399728 -0.00159302 0)
(0.399591 -0.00194743 0)
(0.399413 -0.00237173 0)
(0.399187 -0.00288183 0)
(0.398902 -0.00349756 0)
(0.398544 -0.00424296 0)
(0.398098 -0.00514692 0)
(0.397541 -0.00624416 0)
(0.396848 -0.00757658 0)
(0.395985 -0.00919479 0)
(0.39491 -0.0111596 0)
(0.393565 -0.0135436 0)
(0.391876 -0.0164324 0)
(0.389747 -0.0199257 0)
(0.387034 -0.024139 0)
(0.383569 -0.0292002 0)
(0.379009 -0.0352733 0)
(0.373169 -0.0424407 0)
(0.364679 -0.0512914 0)
(0.400001 -3.77013e-05 0)
(0.400005 -0.000111501 0)
(0.400012 -0.000182878 0)
(0.40002 -0.000253747 0)
(0.400022 -0.000329817 0)
(0.400016 -0.000418116 0)
(0.4 -0.00052488 0)
(0.399969 -0.000655655 0)
(0.399922 -0.000815729 0)
(0.399852 -0.00101015 0)
(0.399754 -0.00124406 0)
(0.399624 -0.00152366 0)
(0.399453 -0.0018574 0)
(0.399234 -0.0022568 0)
(0.398958 -0.00273677 0)
(0.398611 -0.0033158 0)
(0.398179 -0.00401628 0)
(0.397642 -0.00486502 0)
(0.396976 -0.00589409 0)
(0.396152 -0.00714199 0)
(0.395132 -0.00865488 0)
(0.393866 -0.0104877 0)
(0.392295 -0.0127049 0)
(0.390338 -0.0153812 0)
(0.387891 -0.0186005 0)
(0.384805 -0.0224555 0)
(0.38091 -0.0270401 0)
(0.375852 -0.032461 0)
(0.369471 -0.0387356 0)
(0.360316 -0.0461765 0)
(0.400001 -3.92108e-05 0)
(0.400006 -0.000115368 0)
(0.400015 -0.000186902 0)
(0.400022 -0.000255426 0)
(0.400022 -0.000327571 0)
(0.400011 -0.00041083 0)
(0.399988 -0.000511025 0)
(0.399949 -0.000633134 0)
(0.399889 -0.000782113 0)
(0.399803 -0.000962778 0)
(0.399686 -0.00117993 0)
(0.39953 -0.00143931 0)
(0.399328 -0.00174879 0)
(0.399071 -0.00211902 0)
(0.398747 -0.00256376 0)
(0.398343 -0.00310001 0)
(0.397842 -0.00374834 0)
(0.397221 -0.00453326 0)
(0.396455 -0.00548398 0)
(0.39551 -0.00663535 0)
(0.394344 -0.00802884 0)
(0.392906 -0.00971324 0)
(0.39113 -0.0117449 0)
(0.388932 -0.0141875 0)
(0.386205 -0.0171095 0)
(0.382799 -0.0205821 0)
(0.378547 -0.0246671 0)
(0.373106 -0.0294172 0)
(0.36634 -0.0347926 0)
(0.356832 -0.0408339 0)
(0.400001 -4.12103e-05 0)
(0.400008 -0.000120269 0)
(0.400019 -0.000191401 0)
(0.400028 -0.000256449 0)
(0.400026 -0.000323645 0)
(0.400011 -0.00040086 0)
(0.399982 -0.000493291 0)
(0.399934 -0.000605331 0)
(0.399864 -0.000741611 0)
(0.399764 -0.000906683 0)
(0.399627 -0.00110494 0)
(0.399448 -0.00134158 0)
(0.399217 -0.00162383 0)
(0.398925 -0.00196142 0)
(0.398558 -0.00236676 0)
(0.398102 -0.00285518 0)
(0.397537 -0.00344522 0)
(0.396841 -0.00415891 0)
(0.395982 -0.00502239 0)
(0.394927 -0.00606666 0)
(0.393631 -0.00732833 0)
(0.392038 -0.00884995 0)
(0.390079 -0.0106798 0)
(0.387669 -0.012871 0)
(0.3847 -0.0154779 0)
(0.381026 -0.0185517 0)
(0.376486 -0.0221274 0)
(0.370767 -0.0262098 0)
(0.363761 -0.0307144 0)
(0.354183 -0.0354379 0)
(0.400002 -4.41282e-05 0)
(0.400012 -0.000127014 0)
(0.400027 -0.000196838 0)
(0.400038 -0.000257087 0)
(0.400035 -0.00031858 0)
(0.400017 -0.000389005 0)
(0.399982 -0.000472358 0)
(0.399927 -0.00057254 0)
(0.399847 -0.00069407 0)
(0.399734 -0.000841247 0)
(0.399581 -0.00101793 0)
(0.399381 -0.00122868 0)
(0.399124 -0.00148005 0)
(0.3988 -0.00178074 0)
(0.398394 -0.00214181 0)
(0.397891 -0.00257687 0)
(0.397269 -0.0031023 0)
(0.396504 -0.00373749 0)
(0.395564 -0.00450541 0)
(0.394411 -0.00543311 0)
(0.392998 -0.00655227 0)
(0.391268 -0.00789929 0)
(0.389151 -0.00951472 0)
(0.386558 -0.0114417 0)
(0.383384 -0.0137217 0)
(0.379488 -0.0163895 0)
(0.374725 -0.019459 0)
(0.36882 -0.0228971 0)
(0.361695 -0.0265898 0)
(0.352276 -0.0301377 0)
(0.400003 -4.87272e-05 0)
(0.400018 -0.000136845 0)
(0.400041 -0.000203501 0)
(0.400055 -0.000257019 0)
(0.400051 -0.000312188 0)
(0.400029 -0.000375813 0)
(0.399991 -0.000450228 0)
(0.39993 -0.000538726 0)
(0.399841 -0.000645478 0)
(0.399716 -0.000774376 0)
(0.399549 -0.000928716 0)
(0.39933 -0.00111259 0)
(0.399051 -0.00133178 0)
(0.398698 -0.00159372 0)
(0.398259 -0.00190786 0)
(0.397714 -0.002286 0)
(0.397043 -0.00274228 0)
(0.396218 -0.00329334 0)
(0.395206 -0.00395878 0)
(0.393967 -0.00476165 0)
(0.392454 -0.00572866 0)
(0.390606 -0.00689018 0)
(0.388352 -0.00827943 0)
(0.385604 -0.00993056 0)
(0.38226 -0.0118742 0)
(0.378186 -0.0141311 0)
(0.373252 -0.016703 0)
(0.367236 -0.0195303 0)
(0.360086 -0.0224903 0)
(0.350993 -0.0250487 0)
(0.400006 -5.6306e-05 0)
(0.400029 -0.000151921 0)
(0.400063 -0.000212961 0)
(0.40008 -0.00025656 0)
(0.400075 -0.000301914 0)
(0.40005 -0.00035469 0)
(0.400008 -0.000416187 0)
(0.399943 -0.000489425 0)
(0.399846 -0.000578113 0)
(0.399712 -0.000685612 0)
(0.399532 -0.000814023 0)
(0.399298 -0.000966994 0)
(0.398998 -0.00115006 0)
(0.398622 -0.00136936 0)
(0.398154 -0.00163258 0)
(0.397574 -0.00194949 0)
(0.39686 -0.00233185 0)
(0.395984 -0.0027935 0)
(0.394912 -0.00335071 0)
(0.393601 -0.00402246 0)
(0.392003 -0.0048306 0)
(0.390056 -0.00579964 0)
(0.387689 -0.006956 0)
(0.384816 -0.008326 0)
(0.381336 -0.00993112 0)
(0.377125 -0.0117816 0)
(0.372068 -0.0138744 0)
(0.366002 -0.0161332 0)
(0.358908 -0.0184553 0)
(0.350267 -0.0202421 0)
(0.40001 -6.86799e-05 0)
(0.400049 -0.000172588 0)
(0.400098 -0.000229069 0)
(0.400121 -0.000269105 0)
(0.400114 -0.000310859 0)
(0.400088 -0.000356648 0)
(0.400043 -0.000407753 0)
(0.399973 -0.000467584 0)
(0.399871 -0.000539215 0)
(0.399728 -0.00062633 0)
(0.399539 -0.00073002 0)
(0.399292 -0.000852443 0)
(0.398977 -0.000998419 0)
(0.398581 -0.00117322 0)
(0.398089 -0.0013831 0)
(0.397481 -0.00163575 0)
(0.396733 -0.00194043 0)
(0.395817 -0.00230804 0)
(0.394696 -0.00275139 0)
(0.393329 -0.0032854 0)
(0.391665 -0.00392714 0)
(0.389643 -0.00469553 0)
(0.387191 -0.00561068 0)
(0.384226 -0.00669182 0)
(0.380655 -0.00795309 0)
(0.376361 -0.00939993 0)
(0.371258 -0.0110397 0)
(0.365232 -0.0127782 0)
(0.358306 -0.0145544 0)
(0.350186 -0.0157633 0)
(0.400017 -9.45656e-05 0)
(0.40008 -0.000182981 0)
(0.400145 -0.000210643 0)
(0.400171 -0.000235657 0)
(0.400165 -0.000267492 0)
(0.400138 -0.000301931 0)
(0.400092 -0.000339662 0)
(0.40002 -0.000383862 0)
(0.399913 -0.000436903 0)
(0.399764 -0.000499716 0)
(0.399567 -0.000575189 0)
(0.399311 -0.000666234 0)
(0.398984 -0.000774828 0)
(0.398574 -0.000904404 0)
(0.398064 -0.00105981 0)
(0.397435 -0.00124676 0)
(0.396663 -0.00147198 0)
(0.395717 -0.0017435 0)
(0.394563 -0.00207072 0)
(0.393159 -0.00246458 0)
(0.391453 -0.00293751 0)
(0.389387 -0.00350327 0)
(0.386892 -0.00417677 0)
(0.383892 -0.00497197 0)
(0.380301 -0.00589534 0)
(0.376022 -0.0069498 0)
(0.371005 -0.00817229 0)
(0.365097 -0.00946497 0)
(0.358403 -0.0107999 0)
(0.350389 -0.0114564 0)
(0.400027 -0.000159694 0)
(0.400179 -0.000307418 0)
(0.400262 -0.000298441 0)
(0.400259 -0.00030516 0)
(0.400234 -0.00032364 0)
(0.400192 -0.000344441 0)
(0.400127 -0.000367309 0)
(0.40003 -0.000394402 0)
(0.399896 -0.000425791 0)
(0.399717 -0.000470368 0)
(0.399485 -0.000515244 0)
(0.399191 -0.000568124 0)
(0.398824 -0.000635253 0)
(0.398368 -0.000716238 0)
(0.397806 -0.000814132 0)
(0.397119 -0.000932715 0)
(0.396282 -0.00107633 0)
(0.395264 -0.00125025 0)
(0.394032 -0.00146081 0)
(0.392541 -0.00171547 0)
(0.390743 -0.00202278 0)
(0.388579 -0.00239221 0)
(0.38598 -0.00283392 0)
(0.382868 -0.00335756 0)
(0.379154 -0.00396867 0)
(0.374748 -0.00466651 0)
(0.369571 -0.00545123 0)
(0.363131 -0.00623768 0)
(0.356006 -0.00712549 0)
(0.346193 -0.00687689 0)
(0.399647 -0.000109572 0)
(0.399357 -0.000185158 0)
(0.39891 -0.000200978 0)
(0.398388 -0.000209276 0)
(0.397848 -0.000219203 0)
(0.397292 -0.00022871 0)
(0.396711 -0.000238254 0)
(0.396094 -0.000248995 0)
(0.395438 -0.000261619 0)
(0.394732 -0.000274944 0)
(0.393968 -0.000291765 0)
(0.393137 -0.000313815 0)
(0.392223 -0.000339959 0)
(0.391211 -0.000370431 0)
(0.390078 -0.000406646 0)
(0.388799 -0.000450282 0)
(0.387345 -0.000503252 0)
(0.385676 -0.000567809 0)
(0.383746 -0.000646578 0)
(0.381501 -0.000742607 0)
(0.378873 -0.000859465 0)
(0.375782 -0.00100126 0)
(0.372135 -0.00117219 0)
(0.367824 -0.00137644 0)
(0.36273 -0.00161979 0)
(0.35673 -0.00190012 0)
(0.349737 -0.00218878 0)
(0.3417 -0.00243155 0)
(0.332807 -0.00279785 0)
(0.31944 -0.00216582 0)
(0.471823 -0.00712865 8.11669e-21)
(0.477869 -0.0109641 -1.44421e-17)
(0.483344 -0.0153607 1.45251e-17)
(0.487795 -0.0202306 7.30879e-18)
(0.491671 -0.0255046 5.5248e-18)
(0.495239 -0.0311641 1.11515e-17)
(0.498578 -0.0372404 5.6125e-18)
(0.501742 -0.0437883 1.51236e-17)
(0.504795 -0.0508551 7.6405e-18)
(0.507779 -0.0584744 3.84539e-18)
(0.510702 -0.0666756 -3.89203e-18)
(0.513554 -0.075494 7.83952e-18)
(0.516318 -0.0849748 3.98749e-18)
(0.51898 -0.0951757 4.01733e-18)
(0.521536 -0.106169 8.11189e-18)
(0.523985 -0.118042 4.11785e-18)
(0.526333 -0.130905 1.24232e-17)
(0.528586 -0.144889 0)
(0.530752 -0.160157 0)
(0.532842 -0.176911 4.2431e-18)
(0.534869 -0.195403 -2.95951e-20)
(0.536851 -0.215952 4.34595e-18)
(0.538815 -0.238957 0)
(0.54076 -0.264968 8.71263e-18)
(0.542838 -0.294539 4.3531e-18)
(0.544552 -0.329061 -4.42053e-18)
(0.548032 -0.367453 4.34099e-18)
(0.545368 -0.421327 4.34119e-18)
(0.560899 -0.455266 1.26137e-17)
(0.526134 -0.583336 -4.0304e-18)
(0.477727 -0.0153798 -7.25658e-18)
(0.481558 -0.0193106 8.21992e-18)
(0.484766 -0.0240558 -8.28922e-18)
(0.487425 -0.0292138 0)
(0.489918 -0.0346944 -7.51919e-18)
(0.492421 -0.0405395 -7.57702e-18)
(0.494934 -0.0468154 -1.91305e-18)
(0.497434 -0.0535644 -1.35363e-17)
(0.499909 -0.0608065 -7.8039e-18)
(0.502336 -0.0685596 -7.90906e-18)
(0.504677 -0.0768532 3.98581e-18)
(0.506901 -0.0857297 -4.03853e-18)
(0.508986 -0.0952428 -8.14032e-18)
(0.510921 -0.105457 -8.2315e-18)
(0.512701 -0.116447 -8.32532e-18)
(0.514319 -0.128303 -8.42145e-18)
(0.515769 -0.141135 -1.70888e-17)
(0.51704 -0.155072 4.31439e-18)
(0.518117 -0.170277 -4.3832e-18)
(0.518985 -0.186947 -1.32981e-17)
(0.519626 -0.20533 2.61449e-20)
(0.520012 -0.225734 -4.61775e-20)
(0.520112 -0.248545 -3.84425e-20)
(0.519867 -0.274275 -1.38936e-17)
(0.519265 -0.303478 -9.33527e-18)
(0.517909 -0.337331 -4.60726e-18)
(0.516968 -0.375362 1.06143e-19)
(0.510525 -0.425815 -1.13897e-19)
(0.518536 -0.463249 -1.36984e-17)
(0.478769 -0.580666 0)
(0.475354 -0.0230445 0)
(0.477976 -0.0269697 0)
(0.480326 -0.03173 0)
(0.482599 -0.0369384 -9.49505e-19)
(0.484897 -0.042491 8.63419e-18)
(0.487209 -0.0484116 -1.93807e-18)
(0.489471 -0.0547376 1.96187e-18)
(0.491637 -0.0614907 7.91579e-18)
(0.493683 -0.068693 -2.00154e-18)
(0.495593 -0.0763791 1.01204e-17)
(0.497351 -0.0845948 4.09572e-18)
(0.498945 -0.093391 -4.1531e-18)
(0.500368 -0.102823 4.19544e-18)
(0.501611 -0.112953 -4.25761e-18)
(0.50266 -0.123855 -8.63881e-18)
(0.503494 -0.135616 8.75407e-18)
(0.504091 -0.148343 8.81939e-18)
(0.504421 -0.162165 0)
(0.50445 -0.177239 0)
(0.504138 -0.19376 9.17477e-18)
(0.503432 -0.211963 0)
(0.502265 -0.232146 1.42056e-17)
(0.500548 -0.254675 4.80448e-18)
(0.498161 -0.280024 9.63476e-18)
(0.494964 -0.30874 1.45984e-17)
(0.490573 -0.341796 4.99688e-18)
(0.48549 -0.379179 0)
(0.475397 -0.426608 1.99196e-17)
(0.475138 -0.466708 0)
(0.432269 -0.572709 9.78369e-18)
(0.472751 -0.0309674 0)
(0.47488 -0.0350711 0)
(0.476781 -0.0399164 0)
(0.47872 -0.0451582 -7.77465e-18)
(0.480651 -0.0507173 0)
(0.482483 -0.0566227 0)
(0.484184 -0.0629168 0)
(0.485749 -0.0696301 8.13921e-18)
(0.487177 -0.0767927 0)
(0.48846 -0.0844405 0)
(0.489584 -0.0926139 0)
(0.490532 -0.101357 -8.56503e-18)
(0.491284 -0.110719 -8.68243e-18)
(0.491816 -0.12076 -4.38631e-18)
(0.4921 -0.131554 -4.06495e-20)
(0.492104 -0.143187 -8.99975e-18)
(0.491793 -0.155763 1.09233e-20)
(0.491123 -0.169409 1.40049e-17)
(0.490041 -0.184276 4.71958e-18)
(0.488482 -0.200545 -4.80913e-18)
(0.486364 -0.218443 -4.86731e-18)
(0.48358 -0.238243 -4.89571e-18)
(0.47999 -0.260288 -5.01911e-18)
(0.47542 -0.285004 1.54268e-17)
(0.469622 -0.312909 0)
(0.462221 -0.344786 -1.58395e-17)
(0.453183 -0.380899 -5.37164e-18)
(0.439492 -0.425245 2.60081e-19)
(0.431365 -0.465886 -1.64027e-17)
(0.386526 -0.560397 5.56494e-19)
(0.469225 -0.0384981 0)
(0.470839 -0.0426476 7.76749e-18)
(0.472204 -0.0474682 -9.80641e-19)
(0.473668 -0.0526763 1.68777e-17)
(0.475126 -0.0582162 0)
(0.476451 -0.0641119 0)
(0.477627 -0.0703951 8.25014e-18)
(0.478665 -0.0770886 -8.32797e-18)
(0.479558 -0.084216 0)
(0.480285 -0.0918086 0)
(0.48082 -0.0999045 0)
(0.481139 -0.108548 8.7915e-18)
(0.481217 -0.11779 8.91988e-18)
(0.481023 -0.127693 -4.53542e-18)
(0.480524 -0.138327 1.3807e-17)
(0.479681 -0.149778 0)
(0.478446 -0.162143 9.55752e-18)
(0.47676 -0.175541 -1.45362e-17)
(0.474553 -0.190114 -4.93274e-18)
(0.471736 -0.206031 0)
(0.468197 -0.2235 0)
(0.463797 -0.24277 0)
(0.458352 -0.264151 0)
(0.451637 -0.28802 -5.35568e-18)
(0.443321 -0.314844 -5.53375e-18)
(0.433023 -0.345247 5.56097e-18)
(0.420295 -0.379658 5.76978e-18)
(0.403172 -0.420749 -1.15647e-17)
(0.387761 -0.460623 1.17954e-17)
(0.341769 -0.543954 -1.1723e-17)
(0.464871 -0.0456434 -7.84169e-18)
(0.466009 -0.0498438 -7.42356e-18)
(0.46688 -0.054673 -1.50505e-18)
(0.4679 -0.0598785 -6.08611e-18)
(0.468916 -0.0654092 -1.02846e-21)
(0.469768 -0.0712806 -3.12775e-18)
(0.470441 -0.0775181 3.29991e-20)
(0.470952 -0.0841439 -8.58854e-18)
(0.471292 -0.091184 -6.53981e-18)
(0.471432 -0.0986715 8.84436e-18)
(0.471346 -0.106645 0)
(0.471007 -0.115149 1.13949e-17)
(0.470387 -0.124233 -1.15824e-17)
(0.469449 -0.133953 -9.42611e-18)
(0.468152 -0.144378 1.43662e-17)
(0.466446 -0.155584 -1.46285e-17)
(0.46427 -0.167664 -4.92128e-18)
(0.461553 -0.180728 -5.12941e-18)
(0.458205 -0.194904 -5.14097e-18)
(0.454117 -0.210348 1.58039e-17)
(0.449155 -0.227244 0)
(0.443147 -0.245816 5.46963e-18)
(0.435875 -0.266333 -1.12017e-17)
(0.427069 -0.289119 1.15701e-17)
(0.416337 -0.314579 5.88842e-18)
(0.403282 -0.343198 1.21581e-17)
(0.387155 -0.375467 0)
(0.366812 -0.413056 1.2869e-17)
(0.344891 -0.451 0)
(0.298528 -0.52352 -1.35744e-17)
(0.459702 -0.0523266 7.99449e-18)
(0.460376 -0.0565542 4.06084e-18)
(0.460762 -0.0613636 -4.1168e-18)
(0.46133 -0.0665285 3.13193e-18)
(0.461891 -0.0720044 8.17138e-22)
(0.462258 -0.0778064 7.58403e-22)
(0.462415 -0.0839589 -7.58684e-18)
(0.462388 -0.0904844 2.17796e-18)
(0.462169 -0.0974085 1.34155e-17)
(0.461723 -0.104762 -1.13534e-17)
(0.461019 -0.112582 2.31128e-18)
(0.460027 -0.120908 -1.17316e-17)
(0.458711 -0.129786 9.54183e-18)
(0.457029 -0.139268 9.71231e-18)
(0.454931 -0.149419 -4.91279e-18)
(0.452358 -0.160308 1.00812e-17)
(0.449239 -0.17202 0)
(0.445489 -0.184654 5.22803e-18)
(0.441005 -0.198325 5.38472e-18)
(0.435661 -0.213169 -1.09581e-17)
(0.4293 -0.229347 0)
(0.421726 -0.24705 -5.77084e-18)
(0.412691 -0.266507 1.15701e-20)
(0.401893 -0.287984 -1.20861e-17)
(0.388893 -0.311817 1.25384e-17)
(0.373278 -0.338369 -1.93053e-17)
(0.354097 -0.368112 0)
(0.330823 -0.401977 -1.35956e-17)
(0.30329 -0.43707 9.36745e-20)
(0.25726 -0.49927 1.47168e-17)
(0.453733 -0.0584424 4.10045e-18)
(0.453955 -0.0626738 -3.6264e-18)
(0.453867 -0.0674383 3.67881e-18)
(0.453987 -0.0725361 -8.54715e-18)
(0.454096 -0.0779306 -4.34472e-18)
(0.453982 -0.0836361 -1.10018e-18)
(0.453631 -0.0896745 4.48128e-18)
(0.453075 -0.0960667 1.02221e-17)