/*--------------------------------*- C++ -*----------------------------------*\
  =========                 |
  \\      /  F ield         | OpenFOAM: The Open Source CFD Toolbox
   \\    /   O peration     | Website:  https://openfoam.org
    \\  /    A nd           | Version:  11
     \\/     M anipulation  |
\*---------------------------------------------------------------------------*/
FoamFile
{
    format      ascii;
    class       surfaceScalarField;
    location    "8.3";
    object      phi;
}
// * * * * * * * * * * * * * * * * * * * * * * * * * * * * * * * * * * * * * //

dimensions      [0 3 -1 0 0 0 0];

internalField   nonuniform List<scalar> 
24840
(
1.92413e-05
6.85892e-09
1.92344e-05
6.83203e-09
1.923e-05
4.43516e-09
1.92282e-05
1.82052e-09
1.92293e-05
-1.13704e-09
1.92339e-05
-4.5395e-09
1.92421e-05
-8.26564e-09
1.92544e-05
-1.22492e-08
1.92709e-05
-1.65396e-08
1.92921e-05
-2.12091e-08
1.93185e-05
-2.63338e-08
1.93505e-05
-3.20252e-08
1.93889e-05
-3.84173e-08
1.94346e-05
-4.56707e-08
1.94886e-05
-5.3978e-08
1.95521e-05
-6.35658e-08
1.96268e-05
-7.46954e-08
1.97145e-05
-8.76651e-08
1.98173e-05
-1.02812e-07
1.99378e-05
-1.20511e-07
2.0079e-05
-1.41168e-07
2.02442e-05
-1.65196e-07
2.04372e-05
-1.93006e-07
2.06622e-05
-2.25037e-07
2.09239e-05
-2.61742e-07
2.1227e-05
-3.03077e-07
2.15771e-05
-3.50028e-07
2.19737e-05
-3.96618e-07
2.24391e-05
-4.65466e-07
-4.38114e-07
2.28773e-05
1.92527e-05
2.32227e-09
1.92581e-05
1.37949e-09
1.92652e-05
-2.67132e-09
1.92749e-05
-7.86754e-09
1.92876e-05
-1.37931e-08
1.93035e-05
-2.04978e-08
1.93232e-05
-2.79311e-08
1.9347e-05
-3.60153e-08
1.93752e-05
-4.47777e-08
1.94083e-05
-5.43e-08
1.94466e-05
-6.46647e-08
1.94906e-05
-7.5968e-08
1.95405e-05
-8.83751e-08
1.9597e-05
-1.02179e-07
1.96609e-05
-1.17808e-07
1.97331e-05
-1.35785e-07
1.98151e-05
-1.56685e-07
1.99085e-05
-1.81113e-07
2.00154e-05
-2.09718e-07
2.01381e-05
-2.43214e-07
2.02793e-05
-2.82382e-07
2.04422e-05
-3.28065e-07
2.06304e-05
-3.81148e-07
2.08478e-05
-4.42526e-07
2.10992e-05
-5.13059e-07
2.13892e-05
-5.93127e-07
2.17232e-05
-6.84005e-07
2.21059e-05
-7.79385e-07
2.25454e-05
-9.04901e-07
-9.299e-07
2.30372e-05
1.92509e-05
-3.98801e-10
1.92557e-05
-3.43576e-09
1.92624e-05
-9.42872e-09
1.92718e-05
-1.72173e-08
1.92841e-05
-2.61249e-08
1.92997e-05
-3.60962e-08
1.93189e-05
-4.71301e-08
1.93421e-05
-5.91619e-08
1.93695e-05
-7.21838e-08
1.94014e-05
-8.6269e-08
1.94383e-05
-1.01539e-07
1.94805e-05
-1.18171e-07
1.95286e-05
-1.36444e-07
1.95832e-05
-1.56787e-07
1.96452e-05
-1.79789e-07
1.97155e-05
-2.0617e-07
1.97956e-05
-2.36738e-07
1.98869e-05
-2.72381e-07
1.99912e-05
-3.1407e-07
2.01109e-05
-3.62885e-07
2.02485e-05
-4.2002e-07
2.04072e-05
-4.86782e-07
2.05907e-05
-5.64566e-07
2.08029e-05
-6.54797e-07
2.10488e-05
-7.58893e-07
2.13333e-05
-8.77699e-07
2.16625e-05
-1.01318e-06
2.20418e-05
-1.1587e-06
2.24783e-05
-1.34139e-06
-1.43171e-06
2.29801e-05
1.92499e-05
-2.1771e-09
1.92541e-05
-7.66555e-09
1.92605e-05
-1.58185e-08
1.92694e-05
-2.60906e-08
1.92812e-05
-3.79062e-08
1.92962e-05
-5.11038e-08
1.93147e-05
-6.56616e-08
1.93371e-05
-8.15257e-08
1.93636e-05
-9.86666e-08
1.93944e-05
-1.17139e-07
1.943e-05
-1.37098e-07
1.94706e-05
-1.58807e-07
1.95169e-05
-1.82678e-07
1.95694e-05
-2.09288e-07
1.9629e-05
-2.39379e-07
1.96966e-05
-2.73848e-07
1.97736e-05
-3.13717e-07
1.98614e-05
-3.60138e-07
1.99617e-05
-4.144e-07
2.00768e-05
-4.77949e-07
2.02092e-05
-5.52405e-07
2.03619e-05
-6.39555e-07
2.05387e-05
-7.41338e-07
2.07437e-05
-8.59767e-07
2.09817e-05
-9.96901e-07
2.12582e-05
-1.15425e-06
2.15795e-05
-1.33446e-06
2.19525e-05
-1.5317e-06
2.23834e-05
-1.77229e-06
-1.93504e-06
2.28867e-05
1.92494e-05
-3.44768e-09
1.9253e-05
-1.13083e-08
1.92589e-05
-2.17144e-08
1.92673e-05
-3.4427e-08
1.92784e-05
-4.90504e-08
1.92927e-05
-6.53677e-08
1.93103e-05
-8.33041e-08
1.93316e-05
-1.02805e-07
1.93568e-05
-1.23844e-07
1.93861e-05
-1.46487e-07
1.942e-05
-1.70919e-07
1.94586e-05
-1.97476e-07
1.95026e-05
-2.2667e-07
1.95525e-05
-2.59202e-07
1.96091e-05
-2.95971e-07
1.96733e-05
-3.3805e-07
1.97463e-05
-3.86684e-07
1.98294e-05
-4.43282e-07
1.99245e-05
-5.09442e-07
2.00335e-05
-5.8697e-07
2.0159e-05
-6.77902e-07
2.0304e-05
-7.84515e-07
2.04719e-05
-9.09311e-07
2.06671e-05
-1.05495e-06
2.08945e-05
-1.22424e-06
2.11598e-05
-1.41955e-06
2.14696e-05
-1.64431e-06
2.18322e-05
-1.89424e-06
2.22539e-05
-2.19407e-06
-2.43344e-06
2.27523e-05
1.92492e-05
-4.4706e-09
1.92524e-05
-1.45065e-08
1.92578e-05
-2.71243e-08
1.92655e-05
-4.22034e-08
1.9276e-05
-5.94835e-08
1.92893e-05
-7.8743e-08
1.93059e-05
-9.98659e-08
1.93259e-05
-1.22788e-07
1.93495e-05
-1.47488e-07
1.93771e-05
-1.74037e-07
1.94088e-05
-2.02648e-07
1.94451e-05
-2.33719e-07
1.94862e-05
-2.67855e-07
1.95329e-05
-3.05883e-07
1.95858e-05
-3.48844e-07
1.96457e-05
-3.97986e-07
1.97138e-05
-4.54756e-07
1.97913e-05
-5.20809e-07
1.98799e-05
-5.98028e-07
1.99815e-05
-6.88565e-07
2.00985e-05
-7.94868e-07
2.02337e-05
-9.19707e-07
2.03905e-05
-1.06617e-06
2.05732e-05
-1.23764e-06
2.07867e-05
-1.43775e-06
2.10371e-05
-1.66991e-06
2.13314e-05
-1.9386e-06
2.16787e-05
-2.24159e-06
2.20867e-05
-2.60205e-06
-2.92315e-06
2.25764e-05
1.9249e-05
-5.35687e-09
1.92518e-05
-1.73271e-08
1.92567e-05
-3.20244e-08
1.92639e-05
-4.93419e-08
1.92735e-05
-6.90973e-08
1.92858e-05
-9.10852e-08
1.93011e-05
-1.15162e-07
1.93196e-05
-1.41247e-07
1.93414e-05
-1.69318e-07
1.93668e-05
-1.99457e-07
1.93961e-05
-2.31907e-07
1.94295e-05
-2.67119e-07
1.94674e-05
-3.05779e-07
1.95104e-05
-3.4882e-07
1.95589e-05
-3.97415e-07
1.96139e-05
-4.52973e-07
1.96763e-05
-5.17129e-07
1.97472e-05
-5.91763e-07
1.98282e-05
-6.79031e-07
1.99211e-05
-7.81407e-07
2.0028e-05
-9.01737e-07
2.01515e-05
-1.04328e-06
2.02951e-05
-1.20971e-06
2.04626e-05
-1.40517e-06
2.06591e-05
-1.63421e-06
2.08906e-05
-1.90147e-06
2.11647e-05
-2.21269e-06
2.14914e-05
-2.56827e-06
2.18794e-05
-2.99011e-06
-3.39804e-06
2.23543e-05
1.92489e-05
-6.1363e-09
1.92514e-05
-1.98105e-08
1.92558e-05
-3.64059e-08
1.92622e-05
-5.57894e-08
1.92709e-05
-7.78117e-08
1.92821e-05
-1.02283e-07
1.9296e-05
-1.29045e-07
1.93128e-05
-1.57998e-07
1.93326e-05
-1.89119e-07
1.93556e-05
-2.22497e-07
1.93821e-05
-2.584e-07
1.94123e-05
-2.97323e-07
1.94465e-05
-3.40022e-07
1.94853e-05
-3.87523e-07
1.9529e-05
-4.41119e-07
1.95783e-05
-5.0236e-07
1.96343e-05
-5.73052e-07
1.96978e-05
-6.55277e-07
1.97702e-05
-7.51429e-07
1.98531e-05
-8.64281e-07
1.99484e-05
-9.97042e-07
2.00585e-05
-1.15343e-06
2.01865e-05
-1.33773e-06
2.03362e-05
-1.55483e-06
2.05122e-05
-1.81026e-06
2.07208e-05
-2.11001e-06
2.09695e-05
-2.46135e-06
2.1269e-05
-2.86785e-06
2.16294e-05
-3.35047e-06
-3.84921e-06
2.20806e-05
1.92488e-05
-6.81653e-09
1.9251e-05
-2.19782e-08
1.92548e-05
-4.02619e-08
1.92605e-05
-6.15001e-08
1.92683e-05
-8.55509e-08
1.92782e-05
-1.12233e-07
1.92906e-05
-1.41377e-07
1.93054e-05
-1.7287e-07
1.9323e-05
-2.06681e-07
1.93434e-05
-2.42906e-07
1.93668e-05
-2.81833e-07
1.93935e-05
-3.23994e-07
1.94237e-05
-3.70203e-07
1.94577e-05
-4.21563e-07
1.94961e-05
-4.79468e-07
1.95393e-05
-5.45589e-07
1.95881e-05
-6.21876e-07
1.96434e-05
-7.10582e-07
1.97063e-05
-8.1431e-07
1.97781e-05
-9.36087e-07
1.98605e-05
-1.07945e-06
1.99556e-05
-1.24854e-06
2.00661e-05
-1.44819e-06
2.01953e-05
-1.68402e-06
2.03476e-05
-1.96257e-06
2.05288e-05
-2.29123e-06
2.07465e-05
-2.67899e-06
2.10116e-05
-3.13298e-06
2.13348e-05
-3.6737e-06
-4.26461e-06
2.17502e-05
1.92487e-05
-7.39969e-09
1.92506e-05
-2.38373e-08
1.92539e-05
-4.35819e-08
1.92588e-05
-6.64352e-08
1.92655e-05
-9.22495e-08
1.92741e-05
-1.20844e-07
1.92848e-05
-1.52042e-07
1.92977e-05
-1.85717e-07
1.93128e-05
-2.2183e-07
1.93304e-05
-2.6048e-07
1.93505e-05
-3.0197e-07
1.93734e-05
-3.4686e-07
1.93992e-05
-3.96008e-07
1.94282e-05
-4.5058e-07
1.94608e-05
-5.12049e-07
1.94974e-05
-5.82183e-07
1.95385e-05
-6.63047e-07
1.9585e-05
-7.5703e-07
1.96376e-05
-8.66901e-07
1.96974e-05
-9.95892e-07
1.97657e-05
-1.14781e-06
1.98444e-05
-1.32715e-06
1.99354e-05
-1.53923e-06
2.00417e-05
-1.79033e-06
2.01671e-05
-2.08794e-06
2.03167e-05
-2.44081e-06
2.04974e-05
-2.85974e-06
2.07201e-05
-3.35566e-06
2.09953e-05
-3.94896e-06
-4.6291e-06
2.13598e-05
1.92486e-05
-7.88593e-09
1.92502e-05
-2.53875e-08
1.92529e-05
-4.63546e-08
1.92571e-05
-7.05627e-08
1.92627e-05
-9.78539e-08
1.92699e-05
-1.28042e-07
1.92788e-05
-1.60943e-07
1.92895e-05
-1.96417e-07
1.93021e-05
-2.34419e-07
1.93166e-05
-2.75047e-07
1.93333e-05
-3.18611e-07
1.93521e-05
-3.65691e-07
1.93733e-05
-4.17176e-07
1.9397e-05
-4.74279e-07
1.94234e-05
-5.38527e-07
1.9453e-05
-6.1176e-07
1.94861e-05
-6.96125e-07
1.95232e-05
-7.94106e-07
1.95649e-05
-9.08586e-07
1.96119e-05
-1.04295e-06
1.96653e-05
-1.20119e-06
1.97262e-05
-1.38807e-06
1.97963e-05
-1.60929e-06
1.98776e-05
-1.87168e-06
1.99732e-05
-2.1835e-06
2.00871e-05
-2.55474e-06
2.02253e-05
-2.99791e-06
2.03972e-05
-3.52762e-06
2.06128e-05
-4.16451e-06
-4.92492e-06
2.09086e-05
1.92485e-05
-8.27476e-09
1.92498e-05
-2.66266e-08
1.9252e-05
-4.85698e-08
1.92553e-05
-7.38583e-08
1.92597e-05
-1.02322e-07
1.92655e-05
-1.33768e-07
1.92725e-05
-1.68002e-07
1.9281e-05
-2.04877e-07
1.92909e-05
-2.44335e-07
1.93023e-05
-2.86472e-07
1.93153e-05
-3.316e-07
1.93299e-05
-3.80311e-07
1.93463e-05
-4.33512e-07
1.93644e-05
-4.92439e-07
1.93846e-05
-5.58657e-07
1.94068e-05
-6.34043e-07
1.94315e-05
-7.20793e-07
1.94588e-05
-8.21442e-07
1.94892e-05
-9.38933e-07
1.9523e-05
-1.07672e-06
1.95607e-05
-1.23892e-06
1.96031e-05
-1.43045e-06
1.9651e-05
-1.65722e-06
1.97058e-05
-1.92643e-06
1.97692e-05
-2.24692e-06
1.98441e-05
-2.62961e-06
1.99345e-05
-3.08839e-06
2.0048e-05
-3.64106e-06
2.01921e-05
-4.30865e-06
-5.13294e-06
2.04001e-05
1.92484e-05
-8.56576e-09
1.92493e-05
-2.75524e-08
1.9251e-05
-5.022e-08
1.92534e-05
-7.63047e-08
1.92567e-05
-1.05625e-07
1.9261e-05
-1.3798e-07
1.92661e-05
-1.73166e-07
1.92723e-05
-2.11026e-07
1.92794e-05
-2.51494e-07
1.92876e-05
-2.94659e-07
1.92968e-05
-3.4083e-07
1.93071e-05
-3.906e-07
1.93185e-05
-4.44881e-07
1.9331e-05
-5.04917e-07
1.93446e-05
-5.72281e-07
1.93594e-05
-6.48864e-07
1.93755e-05
-7.36867e-07
1.93929e-05
-8.3883e-07
1.94117e-05
-9.577e-07
1.94319e-05
-1.09693e-06
1.94536e-05
-1.26065e-06
1.94769e-05
-1.45379e-06
1.9502e-05
-1.68233e-06
1.95292e-05
-1.95359e-06
1.95589e-05
-2.27666e-06
1.95923e-05
-2.66295e-06
1.96311e-05
-3.12722e-06
1.96796e-05
-3.68955e-06
1.9742e-05
-4.37103e-06
-5.23476e-06
1.98438e-05
1.92483e-05
-8.75907e-09
1.92489e-05
-2.81647e-08
1.925e-05
-5.13023e-08
1.92516e-05
-7.78932e-08
1.92537e-05
-1.07746e-07
1.92564e-05
-1.40652e-07
1.92596e-05
-1.76399e-07
1.92634e-05
-2.14823e-07
1.92678e-05
-2.55847e-07
1.92727e-05
-2.99552e-07
1.92781e-05
-3.46239e-07
1.9284e-05
-3.96492e-07
1.92903e-05
-4.51216e-07
1.9297e-05
-5.11644e-07
1.93041e-05
-5.79335e-07
1.93114e-05
-6.56161e-07
1.93188e-05
-7.44293e-07
1.93262e-05
-8.46228e-07
1.93334e-05
-9.64854e-07
1.934e-05
-1.10355e-06
1.93457e-05
-1.26634e-06
1.93499e-05
-1.45804e-06
1.93521e-05
-1.6845e-06
1.93514e-05
-1.95288e-06
1.93469e-05
-2.27214e-06
1.93376e-05
-2.65365e-06
1.93226e-05
-3.11223e-06
1.9302e-05
-3.66894e-06
1.92752e-05
-4.34428e-06
-5.21558e-06
1.9256e-05
1.92482e-05
-8.85489e-09
1.92485e-05
-2.84657e-08
1.9249e-05
-5.18186e-08
1.92498e-05
-7.86239e-08
1.92507e-05
-1.08682e-07
1.92518e-05
-1.41777e-07
1.92531e-05
-1.77692e-07
1.92546e-05
-2.16254e-07
1.92561e-05
-2.57379e-07
1.92577e-05
-3.01134e-07
1.92592e-05
-3.47811e-07
1.92607e-05
-3.97976e-07
1.9262e-05
-4.52514e-07
1.9263e-05
-5.12629e-07
1.92635e-05
-5.79846e-07
1.92633e-05
-6.55985e-07
1.92622e-05
-7.43152e-07
1.92597e-05
-8.43755e-07
1.92554e-05
-9.60564e-07
1.92487e-05
-1.09681e-06
1.92387e-05
-1.2563e-06
1.92242e-05
-1.44359e-06
1.92039e-05
-1.6642e-06
1.91759e-05
-1.92485e-06
1.91377e-05
-2.23393e-06
1.90862e-05
-2.60217e-06
1.90175e-05
-3.04352e-06
1.8927e-05
-3.57841e-06
1.88083e-05
-4.22566e-06
-5.06751e-06
1.86603e-05
1.92481e-05
-8.85703e-09
1.92481e-05
-2.8461e-08
1.92481e-05
-5.17764e-08
1.9248e-05
-7.85052e-08
1.92477e-05
-1.08441e-07
1.92473e-05
-1.41364e-07
1.92467e-05
-1.77054e-07
1.92458e-05
-2.15331e-07
1.92445e-05
-2.56104e-07
1.92428e-05
-2.99428e-07
1.92405e-05
-3.45577e-07
1.92377e-05
-3.95095e-07
1.9234e-05
-4.48834e-07
1.92293e-05
-5.07957e-07
1.92234e-05
-5.73927e-07
1.92159e-05
-6.48489e-07
1.92064e-05
-7.33651e-07
1.91943e-05
-8.31689e-07
1.9179e-05
-9.45202e-07
1.91593e-05
-1.07719e-06
1.91342e-05
-1.23117e-06
1.91019e-05
-1.41129e-06
1.90603e-05
-1.62254e-06
1.90063e-05
-1.87091e-06
1.89362e-05
-2.16384e-06
1.88448e-05
-2.51075e-06
1.87251e-05
-2.92382e-06
1.85678e-05
-3.42109e-06
1.83605e-05
-4.01837e-06
-4.79245e-06
1.80854e-05
1.9248e-05
-8.76602e-09
1.92477e-05
-2.81592e-08
1.92472e-05
-5.11907e-08
1.92462e-05
-7.7557e-08
1.92448e-05
-1.07048e-07
1.92429e-05
-1.39441e-07
1.92404e-05
-1.74517e-07
1.92371e-05
-2.12094e-07
1.92331e-05
-2.52071e-07
1.92281e-05
-2.94492e-07
1.92222e-05
-3.3961e-07
1.9215e-05
-3.87942e-07
1.92065e-05
-4.40296e-07
1.91963e-05
-4.97777e-07
1.91842e-05
-5.61773e-07
1.91696e-05
-6.33927e-07
1.91521e-05
-7.16118e-07
1.91308e-05
-8.10456e-07
1.91049e-05
-9.1932e-07
1.90732e-05
-1.04543e-06
1.90339e-05
-1.1919e-06
1.8985e-05
-1.3624e-06
1.89237e-05
-1.56118e-06
1.8846e-05
-1.79329e-06
1.8747e-05
-2.06484e-06
1.86197e-05
-2.3834e-06
1.84544e-05
-2.75851e-06
1.82376e-05
-3.20427e-06
1.79514e-05
-3.73217e-06
-4.4037e-06
1.75626e-05
1.9248e-05
-8.58727e-09
1.92474e-05
-2.75731e-08
1.92463e-05
-5.00823e-08
1.92445e-05
-7.58075e-08
1.9242e-05
-1.04537e-07
1.92386e-05
-1.36052e-07
1.92342e-05
-1.70136e-07
1.92287e-05
-2.06606e-07
1.9222e-05
-2.45357e-07
1.9214e-05
-2.86421e-07
1.92044e-05
-3.30027e-07
1.91931e-05
-3.76658e-07
1.91799e-05
-4.27072e-07
1.91644e-05
-4.82305e-07
1.91463e-05
-5.43653e-07
1.9125e-05
-6.12638e-07
1.90998e-05
-6.90984e-07
1.907e-05
-7.80607e-07
1.90343e-05
-8.83634e-07
1.89913e-05
-1.00245e-06
1.89392e-05
-1.13973e-06
1.88753e-05
-1.29853e-06
1.87964e-05
-1.48228e-06
1.8698e-05
-1.69491e-06
1.85741e-05
-1.94093e-06
1.84163e-05
-2.22565e-06
1.82132e-05
-2.55537e-06
1.79479e-05
-2.939e-06
1.75986e-05
-3.38286e-06
-3.92548e-06
1.71204e-05
1.92479e-05
-8.32612e-09
1.9247e-05
-2.67197e-08
1.92454e-05
-4.84795e-08
1.92429e-05
-7.32958e-08
1.92393e-05
-1.00958e-07
1.92345e-05
-1.31256e-07
1.92284e-05
-1.63982e-07
1.92207e-05
-1.98956e-07
1.92114e-05
-2.3607e-07
1.92004e-05
-2.75342e-07
1.91873e-05
-3.16979e-07
1.91721e-05
-3.61427e-07
1.91544e-05
-4.09386e-07
1.91339e-05
-4.61814e-07
1.91101e-05
-5.199e-07
1.90825e-05
-5.85033e-07
1.90503e-05
-6.58766e-07
1.90125e-05
-7.42799e-07
1.89679e-05
-8.38982e-07
1.89148e-05
-9.49335e-07
1.88511e-05
-1.07606e-06
1.87741e-05
-1.22156e-06
1.86802e-05
-1.38838e-06
1.85645e-05
-1.57921e-06
1.84204e-05
-1.79684e-06
1.82389e-05
-2.04414e-06
1.80074e-05
-2.32384e-06
1.77075e-05
-2.63911e-06
1.73154e-05
-2.99072e-06
-3.39019e-06
1.67801e-05
1.92478e-05
-7.98959e-09
1.92467e-05
-2.56214e-08
1.92446e-05
-4.64192e-08
1.92414e-05
-7.00712e-08
1.92368e-05
-9.63725e-08
1.92307e-05
-1.25129e-07
1.92229e-05
-1.56147e-07
1.92132e-05
-1.89254e-07
1.92014e-05
-2.2434e-07
1.91875e-05
-2.61412e-07
1.91712e-05
-3.00655e-07
1.91522e-05
-3.42473e-07
1.91303e-05
-3.87505e-07
1.91052e-05
-4.36622e-07
1.90762e-05
-4.90902e-07
1.90427e-05
-5.51587e-07
1.9004e-05
-6.20051e-07
1.8959e-05
-6.97766e-07
1.89063e-05
-7.86298e-07
1.88442e-05
-8.87293e-07
1.87706e-05
-1.00247e-06
1.86826e-05
-1.13355e-06
1.85765e-05
-1.28221e-06
1.84472e-05
-1.44991e-06
1.82881e-05
-1.63773e-06
1.809e-05
-1.84608e-06
1.78404e-05
-2.07427e-06
1.7521e-05
-2.31973e-06
1.71084e-05
-2.57809e-06
-2.8339e-06
1.65521e-05
1.92477e-05
-7.5867e-09
1.92464e-05
-2.43064e-08
1.92439e-05
-4.3947e-08
1.92401e-05
-6.61934e-08
1.92345e-05
-9.08536e-08
1.92272e-05
-1.1776e-07
1.92178e-05
-1.46741e-07
1.92061e-05
-1.77632e-07
1.91921e-05
-2.10323e-07
1.91755e-05
-2.44816e-07
1.91562e-05
-2.81273e-07
1.91337e-05
-3.20053e-07
1.9108e-05
-3.61732e-07
1.90784e-05
-4.0709e-07
1.90446e-05
-4.57088e-07
1.90058e-05
-5.12819e-07
1.89613e-05
-5.75472e-07
1.89098e-05
-6.46293e-07
1.88501e-05
-7.26563e-07
1.87803e-05
-8.17565e-07
1.86984e-05
-9.20542e-07
1.86015e-05
-1.0366e-06
1.84858e-05
-1.16657e-06
1.83467e-05
-1.31078e-06
1.81777e-05
-1.46874e-06
1.79703e-05
-1.63868e-06
1.77129e-05
-1.81685e-06
1.73888e-05
-1.99567e-06
1.69774e-05
-2.16665e-06
-2.29117e-06
1.64346e-05
1.92477e-05
-7.12896e-09
1.92462e-05
-2.28116e-08
1.92434e-05
-4.11202e-08
1.92389e-05
-6.1733e-08
1.92325e-05
-8.44851e-08
1.9224e-05
-1.09252e-07
1.92132e-05
-1.35887e-07
1.91998e-05
-1.64238e-07
1.91836e-05
-1.94197e-07
1.91646e-05
-2.25762e-07
1.91424e-05
-2.59074e-07
1.91168e-05
-2.94451e-07
1.90875e-05
-3.32399e-07
1.9054e-05
-3.73608e-07
1.90158e-05
-4.18919e-07
1.89723e-05
-4.69277e-07
1.89225e-05
-5.2569e-07
1.88654e-05
-5.89185e-07
1.87996e-05
-6.60771e-07
1.87234e-05
-7.41396e-07
1.86347e-05
-8.3187e-07
1.85309e-05
-9.32746e-07
1.84084e-05
-1.04412e-06
1.8263e-05
-1.16537e-06
1.8089e-05
-1.29468e-06
1.78788e-05
-1.42851e-06
1.76227e-05
-1.56075e-06
1.7307e-05
-1.67999e-06
1.69154e-05
-1.77502e-06
-1.79046e-06
1.64147e-05
1.92476e-05
-6.63146e-09
1.9246e-05
-2.11865e-08
1.92429e-05
-3.80097e-08
1.92379e-05
-5.67707e-08
1.92308e-05
-7.7361e-08
1.92213e-05
-9.97187e-08
1.92091e-05
-1.23725e-07
1.91941e-05
-1.49236e-07
1.91761e-05
-1.76155e-07
1.91548e-05
-2.04479e-07
1.913e-05
-2.34329e-07
1.91016e-05
-2.65977e-07
1.9069e-05
-2.99865e-07
1.9032e-05
-3.36591e-07
1.899e-05
-3.76876e-07
1.89422e-05
-4.21525e-07
1.88879e-05
-4.71373e-07
1.8826e-05
-5.27241e-07
1.87551e-05
-5.89893e-07
1.86737e-05
-6.59977e-07
1.85797e-05
-7.37937e-07
1.84709e-05
-8.23865e-07
1.8344e-05
-9.17278e-07
1.81954e-05
-1.0168e-06
1.80204e-05
-1.11968e-06
1.7813e-05
-1.22111e-06
1.75657e-05
-1.31344e-06
1.72686e-05
-1.3829e-06
1.69106e-05
-1.41702e-06
-1.3512e-06
1.64714e-05
1.92476e-05
-6.11568e-09
1.92459e-05
-1.95008e-08
1.92426e-05
-3.47027e-08
1.92373e-05
-5.13964e-08
1.92295e-05
-6.95851e-08
1.9219e-05
-8.92877e-08
1.92057e-05
-1.10406e-07
1.91893e-05
-1.32804e-07
1.91695e-05
-1.56403e-07
1.91463e-05
-1.81205e-07
1.91192e-05
-2.07312e-07
1.90882e-05
-2.34954e-07
1.90529e-05
-2.64502e-07
1.90127e-05
-2.96464e-07
1.89673e-05
-3.31451e-07
1.89159e-05
-3.70131e-07
1.88577e-05
-4.13181e-07
1.87917e-05
-4.61237e-07
1.87167e-05
-5.14846e-07
1.86311e-05
-5.74409e-07
1.85332e-05
-6.40077e-07
1.8421e-05
-7.11598e-07
1.82918e-05
-7.88077e-07
1.81426e-05
-8.67648e-07
1.79699e-05
-9.46995e-07
1.77695e-05
-1.02063e-06
1.75363e-05
-1.08024e-06
1.72645e-05
-1.11118e-06
1.69486e-05
-1.10112e-06
-9.83755e-07
1.65812e-05
1.92476e-05
-5.61779e-09
1.9246e-05
-1.78623e-08
1.92426e-05
-3.13008e-08
1.92369e-05
-4.57001e-08
1.92286e-05
-6.12658e-08
1.92174e-05
-7.80957e-08
1.92031e-05
-9.60931e-08
1.91854e-05
-1.15137e-07
1.91642e-05
-1.35173e-07
1.91392e-05
-1.5621e-07
1.91102e-05
-1.78332e-07
1.9077e-05
-2.01725e-07
1.90392e-05
-2.26696e-07
1.89964e-05
-2.53664e-07
1.8948e-05
-2.83134e-07
1.88936e-05
-3.15649e-07
1.88321e-05
-3.51747e-07
1.87628e-05
-3.919e-07
1.86844e-05
-4.36471e-07
1.85957e-05
-4.85665e-07
1.8495e-05
-5.39429e-07
1.83807e-05
-5.97287e-07
1.82507e-05
-6.58109e-07
1.81029e-05
-7.19803e-07
1.79348e-05
-7.78867e-07
1.77439e-05
-8.29709e-07
1.75278e-05
-8.64149e-07
1.72846e-05
-8.68055e-07
1.70139e-05
-8.30375e-07
-6.89452e-07
1.67196e-05
1.92477e-05
-5.20717e-09
1.92463e-05
-1.64514e-08
1.92429e-05
-2.79232e-08
1.9237e-05
-3.97733e-08
1.92283e-05
-5.25102e-08
1.92164e-05
-6.62664e-08
1.92013e-05
-8.09301e-08
1.91825e-05
-9.64081e-08
1.916e-05
-1.12675e-07
1.91336e-05
-1.29748e-07
1.91029e-05
-1.47688e-07
1.90678e-05
-1.66639e-07
1.9028e-05
-1.86842e-07
1.8983e-05
-2.08634e-07
1.89322e-05
-2.32417e-07
1.88752e-05
-2.58628e-07
1.88112e-05
-2.87684e-07
1.87392e-05
-3.19912e-07
1.86582e-05
-3.55524e-07
1.85671e-05
-3.94588e-07
1.84646e-05
-4.36929e-07
1.83493e-05
-4.81967e-07
1.82197e-05
-5.2851e-07
1.80744e-05
-5.74481e-07
1.79121e-05
-6.16549e-07
1.77319e-05
-6.4951e-07
1.75338e-05
-6.66022e-07
1.73192e-05
-6.53512e-07
1.7092e-05
-6.0312e-07
-4.62133e-07
1.68646e-05
1.9248e-05
-5.06129e-09
1.9247e-05
-1.54857e-08
1.92438e-05
-2.4699e-08
1.92378e-05
-3.37592e-08
1.92288e-05
-4.34942e-08
1.92165e-05
-5.39849e-08
1.92007e-05
-6.51136e-08
1.91811e-05
-7.6837e-08
1.91576e-05
-8.916e-08
1.91299e-05
-1.02099e-07
1.90979e-05
-1.15697e-07
1.90614e-05
-1.30051e-07
1.90198e-05
-1.45337e-07
1.8973e-05
-1.61807e-07
1.89204e-05
-1.79773e-07
1.88613e-05
-1.99585e-07
1.87952e-05
-2.21569e-07
1.87212e-05
-2.45917e-07
1.86384e-05
-2.72708e-07
1.85458e-05
-3.01936e-07
1.84422e-05
-3.33384e-07
1.83267e-05
-3.66471e-07
1.81983e-05
-4.00094e-07
1.80562e-05
-4.32406e-07
1.79002e-05
-4.6053e-07
1.77307e-05
-4.80031e-07
1.75496e-05
-4.84932e-07
1.73609e-05
-4.64823e-07
1.71722e-05
-4.14344e-07
-2.9061e-07
1.70006e-05
1.92487e-05
-5.67757e-09
1.92484e-05
-1.51186e-08
1.92453e-05
-2.16332e-08
1.92393e-05
-2.77032e-08
1.92301e-05
-3.43026e-08
1.92175e-05
-4.13727e-08
1.92012e-05
-4.88281e-08
1.9181e-05
-5.66783e-08
1.91568e-05
-6.49461e-08
1.91283e-05
-7.36459e-08
1.90954e-05
-8.27995e-08
1.90579e-05
-9.24604e-08
1.90153e-05
-1.02737e-07
1.89673e-05
-1.13801e-07
1.89134e-05
-1.2588e-07
1.88531e-05
-1.39278e-07
1.87857e-05
-1.5426e-07
1.87107e-05
-1.70834e-07
1.86269e-05
-1.88966e-07
1.85336e-05
-2.0866e-07
1.843e-05
-2.29705e-07
1.83151e-05
-2.51604e-07
1.81885e-05
-2.73469e-07
1.80499e-05
-2.93857e-07
1.79e-05
-3.1058e-07
1.77402e-05
-3.20248e-07
1.75738e-05
-3.18521e-07
1.74059e-05
-2.96945e-07
1.72468e-05
-2.55216e-07
-1.57361e-07
1.71135e-05
1.92516e-05
-9.13831e-09
1.92513e-05
-1.48088e-08
1.92475e-05
-1.78312e-08
1.9241e-05
-2.11798e-08
1.92313e-05
-2.46769e-08
1.92182e-05
-2.82606e-08
1.92014e-05
-3.19922e-08
1.91806e-05
-3.58929e-08
1.91556e-05
-3.99645e-08
1.91262e-05
-4.42323e-08
1.90922e-05
-4.87525e-08
1.90533e-05
-5.36012e-08
1.90094e-05
-5.88652e-08
1.89603e-05
-6.46341e-08
1.89054e-05
-7.09941e-08
1.88441e-05
-7.79703e-08
1.87754e-05
-8.55898e-08
1.86986e-05
-9.40223e-08
1.86129e-05
-1.03325e-07
1.85176e-05
-1.13358e-07
1.84119e-05
-1.23948e-07
1.82951e-05
-1.34787e-07
1.81669e-05
-1.45343e-07
1.80278e-05
-1.54765e-07
1.7879e-05
-1.61773e-07
1.77232e-05
-1.64451e-07
1.7565e-05
-1.60254e-07
1.74123e-05
-1.4429e-07
1.72722e-05
-1.15102e-07
-3.31505e-08
1.7148e-05
1.9239e-05
1.92242e-05
1.92064e-05
1.91852e-05
1.91605e-05
1.91322e-05
1.91002e-05
1.90644e-05
1.90244e-05
1.89802e-05
1.89314e-05
1.88778e-05
1.88189e-05
1.87543e-05
1.86833e-05
1.86053e-05
1.85197e-05
1.84257e-05
1.83224e-05
1.8209e-05
1.80851e-05
1.79503e-05
1.7805e-05
1.76502e-05
1.74884e-05
1.7324e-05
1.71637e-05
1.70194e-05
1.69043e-05
1.68712e-05
2.24226e-05
-1.06245e-05
1.10791e-05
2.19703e-05
-1.07582e-05
1.12106e-05
2.1491e-05
-1.08864e-05
1.13656e-05
2.09817e-05
-1.10048e-05
1.15141e-05
2.04481e-05
-1.11215e-05
1.16551e-05
1.98957e-05
-1.12401e-05
1.17925e-05
1.93283e-05
-1.13613e-05
1.19287e-05
1.87487e-05
-1.14862e-05
1.20658e-05
1.81588e-05
-1.1616e-05
1.22059e-05
1.75594e-05
-1.17518e-05
1.23511e-05
1.69507e-05
-1.18941e-05
1.25027e-05
1.63322e-05
-1.20433e-05
1.26619e-05
1.5703e-05
-1.22003e-05
1.28295e-05
1.50624e-05
-1.23661e-05
1.30067e-05
1.44096e-05
-1.25421e-05
1.3195e-05
1.37434e-05
-1.27301e-05
1.33962e-05
1.30626e-05
-1.2932e-05
1.36128e-05
1.23652e-05
-1.31502e-05
1.38476e-05
1.16489e-05
-1.33875e-05
1.41038e-05
1.09106e-05
-1.36473e-05
1.43857e-05
1.0146e-05
-1.39337e-05
1.46983e-05
9.34975e-06
-1.42518e-05
1.50481e-05
8.51452e-06
-1.46078e-05
1.5443e-05
7.63036e-06
-1.50098e-05
1.58939e-05
6.6834e-06
-1.54657e-05
1.64127e-05
5.65354e-06
-1.59896e-05
1.70195e-05
4.52218e-06
-1.65883e-05
1.77196e-05
3.20647e-06
-1.7295e-05
1.86107e-05
1.79313e-06
-1.8025e-05
1.94384e-05
-1.91799e-05
2.0973e-05
2.25639e-05
-1.01512e-05
2.20574e-05
-1.02518e-05
2.15254e-05
-1.03544e-05
2.09773e-05
-1.04568e-05
2.04178e-05
-1.0562e-05
1.98493e-05
-1.06716e-05
1.92734e-05
-1.07853e-05
1.86904e-05
-1.09032e-05
1.81e-05
-1.10256e-05
1.75014e-05
-1.11531e-05
1.68934e-05
-1.12861e-05
1.62752e-05
-1.14252e-05
1.56461e-05
-1.15712e-05
1.50054e-05
-1.17254e-05
1.43522e-05
-1.1889e-05
1.36854e-05
-1.20633e-05
1.30036e-05
-1.22501e-05
1.23046e-05
-1.24512e-05
1.1586e-05
-1.26689e-05
1.08445e-05
-1.29058e-05
1.0076e-05
-1.31651e-05
9.27487e-06
-1.34507e-05
8.43403e-06
-1.3767e-05
7.54377e-06
-1.41195e-05
6.59107e-06
-1.4513e-05
5.55873e-06
-1.49573e-05
4.42206e-06
-1.54516e-05
3.14323e-06
-1.60162e-05
1.72433e-06
-1.66061e-05
-1.74556e-05
2.24663e-05
-9.63734e-06
2.19384e-05
-9.7239e-06
2.13983e-05
-9.81429e-06
2.08507e-05
-9.90916e-06
2.02968e-05
-1.00081e-05
1.97358e-05
-1.01106e-05
1.91668e-05
-1.02163e-05
1.85892e-05
-1.03256e-05
1.80024e-05
-1.04388e-05
1.74058e-05
-1.05565e-05
1.6799e-05
-1.06793e-05
1.61817e-05
-1.08079e-05
1.55536e-05
-1.09431e-05
1.49139e-05
-1.10857e-05
1.42616e-05
-1.12367e-05
1.35955e-05
-1.13972e-05
1.29138e-05
-1.15685e-05
1.22145e-05
-1.1752e-05
1.1495e-05
-1.19494e-05
1.07521e-05
-1.21628e-05
9.98143e-06
-1.23945e-05
9.17771e-06
-1.2647e-05
8.33391e-06
-1.29232e-05
7.44079e-06
-1.32264e-05
6.48629e-06
-1.35585e-05
5.45447e-06
-1.39255e-05
4.32295e-06
-1.43201e-05
3.06658e-06
-1.47598e-05
1.65565e-06
-1.51952e-05
-1.57999e-05
2.23644e-05
-9.11506e-06
2.18335e-05
-9.19293e-06
2.12935e-05
-9.27432e-06
2.07459e-05
-9.36158e-06
2.01908e-05
-9.453e-06
1.96275e-05
-9.54721e-06
1.90554e-05
-9.64426e-06
1.84745e-05
-9.7447e-06
1.78848e-05
-9.84904e-06
1.7286e-05
-9.95771e-06
1.66778e-05
-1.00711e-05
1.60597e-05
-1.01898e-05
1.5431e-05
-1.03143e-05
1.47906e-05
-1.04453e-05
1.41375e-05
-1.05835e-05
1.34701e-05
-1.07298e-05
1.27868e-05
-1.08852e-05
1.20855e-05
-1.10507e-05
1.13637e-05
-1.12275e-05
1.06179e-05
-1.14171e-05
9.84421e-06
-1.16208e-05
9.03733e-06
-1.18401e-05
8.19063e-06
-1.20765e-05
7.29553e-06
-1.23313e-05
6.34111e-06
-1.26041e-05
5.31307e-06
-1.28974e-05
4.19281e-06
-1.31998e-05
2.95983e-06
-1.35269e-05
1.578e-06
-1.38134e-05
-1.42219e-05
2.22237e-05
-8.58641e-06
2.16876e-05
-8.65681e-06
2.11435e-05
-8.73026e-06
2.05921e-05
-8.81022e-06
2.00336e-05
-8.89442e-06
1.94674e-05
-8.98104e-06
1.88933e-05
-9.07018e-06
1.83112e-05
-9.16255e-06
1.77207e-05
-9.25856e-06
1.71214e-05
-9.35843e-06
1.65127e-05
-9.46246e-06
1.5894e-05
-9.57104e-06
1.52643e-05
-9.68462e-06
1.46227e-05
-9.80373e-06
1.3968e-05
-9.92891e-06
1.3299e-05
-1.00608e-05
1.26138e-05
-1.02e-05
1.19104e-05
-1.03473e-05
1.11863e-05
-1.05034e-05
1.04382e-05
-1.0669e-05
9.66224e-06
-1.08448e-05
8.85351e-06
-1.10314e-05
8.00586e-06
-1.12288e-05
7.11154e-06
-1.1437e-05
6.16092e-06
-1.16535e-05
5.14155e-06
-1.1878e-05
4.03837e-06
-1.20966e-05
2.83318e-06
-1.23217e-05
1.49445e-06
-1.24746e-05
-1.27275e-05
2.20427e-05
-8.05269e-06
2.15024e-05
-8.11646e-06
2.09549e-05
-8.18276e-06
2.04005e-05
-8.2559e-06
1.98394e-05
-8.33325e-06
1.9271e-05
-8.41263e-06
1.86949e-05
-8.49412e-06
1.81108e-05
-8.57849e-06
1.75184e-05
-8.66612e-06
1.69171e-05
-8.75712e-06
1.63063e-05
-8.8517e-06
1.56854e-05
-8.95014e-06
1.50536e-05
-9.0528e-06
1.44099e-05
-9.16001e-06
1.37531e-05
-9.27213e-06
1.30819e-05
-9.38955e-06
1.23945e-05
-9.51262e-06
1.16889e-05
-9.64173e-06
1.09627e-05
-9.77716e-06
1.02128e-05
-9.91913e-06
9.43563e-06
-1.00676e-05
8.6266e-06
-1.02224e-05
7.78025e-06
-1.03825e-05
6.88973e-06
-1.05465e-05
5.94684e-06
-1.07106e-05
4.94111e-06
-1.08723e-05
3.86062e-06
-1.10162e-05
2.68994e-06
-1.1151e-05
1.40601e-06
-1.11907e-05
-1.13215e-05
2.18158e-05
-7.51419e-06
2.12712e-05
-7.57187e-06
2.072e-05
-7.63153e-06
2.01623e-05
-7.69815e-06
1.95979e-05
-7.76887e-06
1.90265e-05
-7.84121e-06
1.84476e-05
-7.91525e-06
1.78609e-05
-7.99179e-06
1.72659e-05
-8.07117e-06
1.66622e-05
-8.15343e-06
1.60492e-05
-8.23866e-06
1.54261e-05
-8.32705e-06
1.47921e-05
-8.41883e-06
1.41463e-05
-8.51419e-06
1.34875e-05
-8.61331e-06
1.28143e-05
-8.71635e-06
1.21251e-05
-8.82344e-06
1.1418e-05
-8.93462e-06
1.06907e-05
-9.04984e-06
9.9404e-06
-9.16884e-06
9.16381e-06
-9.29105e-06
8.35693e-06
-9.41551e-06
7.51496e-06
-9.54051e-06
6.63211e-06
-9.66361e-06
5.70162e-06
-9.78011e-06
4.71501e-06
-9.88571e-06
3.66331e-06
-9.96447e-06
2.53412e-06
-1.00218e-05
1.31299e-06
-9.96957e-06
-1.00085e-05
2.15374e-05
-6.97101e-06
2.09886e-05
-7.02306e-06
2.04336e-05
-7.07652e-06
1.98723e-05
-7.13687e-06
1.93046e-05
-7.20114e-06
1.873e-05
-7.26666e-06
1.81482e-05
-7.33346e-06
1.75588e-05
-7.40234e-06
1.69612e-05
-7.47362e-06
1.63551e-05
-7.54726e-06
1.57397e-05
-7.62326e-06
1.51144e-05
-7.70173e-06
1.44783e-05
-7.78277e-06
1.38306e-05
-7.86646e-06
1.31701e-05
-7.95281e-06
1.24955e-05
-8.0418e-06
1.18054e-05
-8.13334e-06
1.1098e-05
-8.22721e-06
1.03712e-05
-8.32302e-06
9.62246e-06
-8.42014e-06
8.84899e-06
-8.51757e-06
8.0473e-06
-8.61383e-06
7.21341e-06
-8.70662e-06
6.34259e-06
-8.79279e-06
5.42951e-06
-8.86704e-06
4.4677e-06
-8.9239e-06
3.45095e-06
-8.94772e-06
2.36997e-06
-8.94081e-06
1.21841e-06
-8.81801e-06
-8.79008e-06
2.12025e-05
-6.42327e-06
2.06495e-05
-6.47011e-06
2.00908e-05
-6.5178e-06
1.95261e-05
-6.57213e-06
1.8955e-05
-6.63012e-06
1.83774e-05
-6.68901e-06
1.77927e-05
-6.74878e-06
1.72006e-05
-6.81022e-06
1.66006e-05
-6.87361e-06
1.59921e-05
-6.93885e-06
1.53747e-05
-7.00585e-06
1.47477e-05
-7.07466e-06
1.41102e-05
-7.14529e-06
1.34614e-05
-7.21768e-06
1.28003e-05
-7.29172e-06
1.21258e-05
-7.36723e-06
1.14364e-05
-7.44394e-06
1.07305e-05
-7.52139e-06
1.00065e-05
-7.59896e-06
9.26208e-06
-7.67573e-06
8.49488e-06
-7.75037e-06
7.70207e-06
-7.82102e-06
6.88047e-06
-7.88501e-06
6.02643e-06
-7.93876e-06
5.13605e-06
-7.97666e-06
4.20474e-06
-7.99258e-06
3.22875e-06
-7.97173e-06
2.20183e-06
-7.91389e-06
1.12435e-06
-7.74054e-06
-7.66573e-06
2.08078e-05
-5.87125e-06
2.0251e-05
-5.91331e-06
1.96889e-05
-5.9557e-06
1.9121e-05
-6.00425e-06
1.85471e-05
-6.05615e-06
1.79667e-05
-6.10865e-06
1.73796e-05
-6.16167e-06
1.67854e-05
-6.21597e-06
1.61835e-05
-6.27178e-06
1.55736e-05
-6.32896e-06
1.49551e-05
-6.38735e-06
1.43274e-05
-6.44693e-06
1.36898e-05
-6.50763e-06
1.30414e-05
-6.56929e-06
1.23813e-05
-6.6317e-06
1.17087e-05
-6.69455e-06
1.10221e-05
-6.75741e-06
1.03204e-05
-6.81968e-06
9.602e-06
-6.88053e-06
8.86512e-06
-6.93885e-06