/*--------------------------------*- C++ -*----------------------------------*\
  =========                 |
  \\      /  F ield         | OpenFOAM: The Open Source CFD Toolbox
   \\    /   O peration     | Website:  https://openfoam.org
    \\  /    A nd           | Version:  11
     \\/     M anipulation  |
\*---------------------------------------------------------------------------*/
FoamFile
{
    format      ascii;
    class       volVectorField;
    location    "8.3";
    object      U;
}
// * * * * * * * * * * * * * * * * * * * * * * * * * * * * * * * * * * * * * //

dimensions      [0 1 -1 0 0 0 0];

internalField   nonuniform List<vector> 
12600
(
(0.412286 4.96462e-05 0)
(0.412213 9.82891e-05 0)
(0.412122 8.60735e-05 0)
(0.412047 7.08887e-05 0)
(0.41203 5.04164e-05 0)
(0.412087 2.18419e-05 0)
(0.412223 -8.66549e-06 0)
(0.412443 -3.71533e-05 0)
(0.41275 -6.65912e-05 0)
(0.413153 -9.98165e-05 0)
(0.41366 -0.000137381 0)
(0.414282 -0.000180433 0)
(0.415034 -0.000230596 0)
(0.41593 -0.000289538 0)
(0.416993 -0.000358699 0)
(0.418246 -0.000439383 0)
(0.41972 -0.000533115 0)
(0.42145 -0.000641971 0)
(0.42348 -0.000768666 0)
(0.425861 -0.000916427 0)
(0.42865 -0.00108877 0)
(0.431916 -0.00128919 0)
(0.435737 -0.00152109 0)
(0.440194 -0.00178761 0)
(0.445387 -0.00209366 0)
(0.451416 -0.0024371 0)
(0.458389 -0.00283472 0)
(0.466382 -0.00319913 0)
(0.47551 -0.00388027 0)
(0.487193 -0.00319922 0)
(0.412481 9.26542e-05 0)
(0.412592 8.63552e-05 0)
(0.412742 4.42449e-05 0)
(0.412923 -1.75624e-05 0)
(0.413155 -9.09721e-05 0)
(0.413458 -0.000172288 0)
(0.413838 -0.00026164 0)
(0.414303 -0.00035927 0)
(0.414858 -0.000465169 0)
(0.415513 -0.000579873 0)
(0.416277 -0.000704857 0)
(0.417157 -0.000842115 0)
(0.418162 -0.000994208 0)
(0.4193 -0.00116473 0)
(0.420585 -0.00135856 0)
(0.422038 -0.0015817 0)
(0.423683 -0.00184094 0)
(0.425554 -0.00214363 0)
(0.427691 -0.00249777 0)
(0.43014 -0.00291211 0)
(0.432955 -0.0033962 0)
(0.436198 -0.00396017 0)
(0.439942 -0.00461428 0)
(0.444268 -0.00536896 0)
(0.449269 -0.00623416 0)
(0.455045 -0.00721198 0)
(0.461707 -0.00832046 0)
(0.469365 -0.00945354 0)
(0.478123 -0.0110372 0)
(0.488242 -0.0108684 0)
(0.412478 6.57913e-06 0)
(0.41255 -2.97107e-05 0)
(0.412679 -0.000113575 0)
(0.412855 -0.000220453 0)
(0.413085 -0.000340231 0)
(0.413381 -0.000473634 0)
(0.413752 -0.000621553 0)
(0.414205 -0.000783196 0)
(0.414745 -0.000958657 0)
(0.41538 -0.00114928 0)
(0.416116 -0.00135651 0)
(0.416961 -0.0015818 0)
(0.417926 -0.00182797 0)
(0.419023 -0.00210062 0)
(0.420268 -0.00240834 0)
(0.421682 -0.00276174 0)
(0.423287 -0.00317242 0)
(0.425115 -0.00365251 0)
(0.427202 -0.00421497 0)
(0.429592 -0.00487396 0)
(0.432336 -0.00564504 0)
(0.435496 -0.00654509 0)
(0.439145 -0.00759208 0)
(0.443364 -0.00880446 0)
(0.448249 -0.0102002 0)
(0.453911 -0.011789 0)
(0.460444 -0.013596 0)
(0.468064 -0.015518 0)
(0.476603 -0.0179712 0)
(0.487354 -0.0188978 0)
(0.412473 -2.13489e-05 0)
(0.412527 -9.02811e-05 0)
(0.412641 -0.000200569 0)
(0.412807 -0.000342126 0)
(0.413028 -0.00050617 0)
(0.413313 -0.000690619 0)
(0.41367 -0.000894938 0)
(0.414107 -0.00111792 0)
(0.414629 -0.00135892 0)
(0.415243 -0.00161874 0)
(0.415953 -0.00189971 0)
(0.416768 -0.00220588 0)
(0.417696 -0.00254327 0)
(0.418751 -0.00292014 0)
(0.419948 -0.00334699 0)
(0.421307 -0.00383632 0)
(0.422851 -0.00440252 0)
(0.424609 -0.00506174 0)
(0.426615 -0.0058321 0)
(0.428913 -0.0067339 0)
(0.431552 -0.00778983 0)
(0.434592 -0.00902482 0)
(0.438106 -0.0104657 0)
(0.442176 -0.0121399 0)
(0.446898 -0.0140751 0)
(0.45239 -0.0162893 0)
(0.458748 -0.0188197 0)
(0.466221 -0.0215624 0)
(0.474605 -0.024949 0)
(0.485403 -0.0269602 0)
(0.41247 -4.44859e-05 0)
(0.412513 -0.000153011 0)
(0.412612 -0.000302513 0)
(0.412767 -0.000487092 0)
(0.412976 -0.000699967 0)
(0.413246 -0.000937741 0)
(0.413586 -0.0011992 0)
(0.414002 -0.00148355 0)
(0.414499 -0.0017906 0)
(0.415082 -0.00212142 0)
(0.415758 -0.00247869 0)
(0.416533 -0.00286701 0)
(0.417416 -0.00329354 0)
(0.418419 -0.00376838 0)
(0.419557 -0.00430473 0)
(0.420847 -0.00491853 0)
(0.422311 -0.00562812 0)
(0.423977 -0.00645419 0)
(0.425878 -0.00741993 0)
(0.428054 -0.00855144 0)
(0.430555 -0.00987791 0)
(0.433439 -0.0114318 0)
(0.436775 -0.0132484 0)
(0.440646 -0.0153652 0)
(0.445149 -0.0178205 0)
(0.450406 -0.020645 0)
(0.456516 -0.0238869 0)
(0.463761 -0.0274635 0)
(0.471901 -0.0317828 0)
(0.482655 -0.0349856 0)
(0.412468 -6.26727e-05 0)
(0.412505 -0.000207665 0)
(0.412593 -0.000392747 0)
(0.412735 -0.000615252 0)
(0.412931 -0.000870669 0)
(0.413185 -0.0011556 0)
(0.413504 -0.00146842 0)
(0.413895 -0.00180818 0)
(0.414361 -0.00217451 0)
(0.414909 -0.00256841 0)
(0.415543 -0.00299305 0)
(0.41627 -0.00345444 0)
(0.417097 -0.00396169 0)
(0.418036 -0.0045272 0)
(0.419099 -0.00516654 0)
(0.420304 -0.00589829 0)
(0.42167 -0.00674393 0)
(0.423224 -0.00772794 0)
(0.424996 -0.00887821 0)
(0.427025 -0.0102265 0)
(0.429355 -0.0118087 0)
(0.432044 -0.0136654 0)
(0.435157 -0.0158413 0)
(0.438776 -0.0183849 0)
(0.442996 -0.0213473 0)
(0.447946 -0.0247744 0)
(0.453724 -0.0287291 0)
(0.460646 -0.0331571 0)
(0.46844 -0.0384416 0)
(0.479056 -0.0429141 0)
(0.412467 -7.81059e-05 0)
(0.412499 -0.000255357 0)
(0.412578 -0.000474738 0)
(0.412707 -0.00073446 0)
(0.412888 -0.00103138 0)
(0.413122 -0.00136225 0)
(0.413417 -0.00172491 0)
(0.413777 -0.00211812 0)
(0.414208 -0.00254158 0)
(0.414714 -0.00299655 0)
(0.415299 -0.00348672 0)
(0.415969 -0.00401888 0)
(0.416731 -0.00460332 0)
(0.417595 -0.00525408 0)
(0.418573 -0.00598888 0)
(0.419678 -0.00682904 0)
(0.420931 -0.0077993 0)
(0.422354 -0.00892806 0)
(0.423975 -0.0102478 0)
(0.425829 -0.0117956 0)
(0.427959 -0.013614 0)
(0.430416 -0.0157511 0)
(0.433263 -0.0182613 0)
(0.436578 -0.0212046 0)
(0.440453 -0.0246463 0)
(0.44502 -0.0286507 0)
(0.450376 -0.0332988 0)
(0.456869 -0.0385745 0)
(0.464191 -0.0448385 0)
(0.474531 -0.0506613 0)
(0.412466 -9.14922e-05 0)
(0.412494 -0.000297586 0)
(0.412565 -0.000548867 0)
(0.412681 -0.000843301 0)
(0.412843 -0.00117836 0)
(0.413056 -0.00155098 0)
(0.413324 -0.00195875 0)
(0.413651 -0.00240018 0)
(0.414042 -0.0028749 0)
(0.4145 -0.00338427 0)
(0.41503 -0.00393238 0)
(0.415636 -0.00452681 0)
(0.416325 -0.00517916 0)
(0.417105 -0.00590521 0)
(0.417985 -0.00672476 0)
(0.41898 -0.00766158 0)
(0.420104 -0.00874326 0)
(0.421379 -0.0100016 0)
(0.422829 -0.0114731 0)
(0.424485 -0.0131998 0)
(0.426385 -0.0152304 0)
(0.428576 -0.0176207 0)
(0.431114 -0.0204349 0)
(0.434073 -0.023745 0)
(0.43754 -0.0276319 0)
(0.441643 -0.0321804 0)
(0.446478 -0.0374944 0)
(0.452416 -0.0436041 0)
(0.45912 -0.0508529 0)
(0.468991 -0.0581048 0)
(0.412465 -0.000103184 0)
(0.41249 -0.000334733 0)
(0.412551 -0.00061472 0)
(0.412654 -0.000940631 0)
(0.412798 -0.00131016 0)
(0.412987 -0.00172043 0)
(0.413225 -0.00216884 0)
(0.413516 -0.00265366 0)
(0.413863 -0.00317444 0)
(0.414269 -0.00373272 0)
(0.414738 -0.00433295 0)
(0.415274 -0.0049834 0)
(0.415882 -0.00569665 0)
(0.416568 -0.00648982 0)
(0.417342 -0.0073844 0)
(0.418213 -0.00840625 0)
(0.419196 -0.0095855 0)
(0.420308 -0.0109569 0)
(0.421569 -0.0125607 0)
(0.423006 -0.0144434 0)
(0.424651 -0.0166591 0)
(0.426543 -0.019271 0)
(0.428734 -0.0223522 0)
(0.431288 -0.025987 0)
(0.434283 -0.0302723 0)
(0.437843 -0.035315 0)
(0.442052 -0.0412455 0)
(0.447296 -0.0481486 0)
(0.453213 -0.0563563 0)
(0.46236 -0.0650841 0)
(0.412465 -0.00011329 0)
(0.412486 -0.000366926 0)
(0.412539 -0.000672111 0)
(0.412627 -0.00102585 0)
(0.412752 -0.00142582 0)
(0.412915 -0.00186918 0)
(0.413121 -0.00235318 0)
(0.413372 -0.00287588 0)
(0.413672 -0.00343672 0)
(0.414022 -0.00403729 0)
(0.414426 -0.0046823 0)
(0.414886 -0.00538053 0)
(0.415406 -0.00614538 0)
(0.415992 -0.00699507 0)
(0.416651 -0.00795261 0)
(0.41739 -0.0090456 0)
(0.41822 -0.0103063 0)
(0.419156 -0.0117719 0)
(0.420213 -0.0134857 0)
(0.421413 -0.0154978 0)
(0.42278 -0.0178672 0)
(0.424348 -0.0206633 0)
(0.426156 -0.0239677 0)
(0.42826 -0.0278761 0)
(0.430725 -0.032501 0)
(0.433661 -0.0379721 0)
(0.43714 -0.0444483 0)
(0.44154 -0.0520742 0)
(0.446485 -0.0611775 0)
(0.454591 -0.0713742 0)
(0.412464 -0.00012184 0)
(0.412482 -0.000394192 0)
(0.412526 -0.000720856 0)
(0.412599 -0.0010984 0)
(0.412704 -0.00152438 0)
(0.412841 -0.00199587 0)
(0.413012 -0.00250999 0)
(0.413222 -0.00306462 0)
(0.413471 -0.00365907 0)
(0.413762 -0.00429493 0)
(0.414096 -0.00497712 0)
(0.414476 -0.00571479 0)
(0.414903 -0.00652197 0)
(0.415383 -0.00741775 0)
(0.41592 -0.00842621 0)
(0.416519 -0.0095763 0)
(0.417188 -0.0109018 0)
(0.417938 -0.012442 0)
(0.418779 -0.0142421 0)
(0.419727 -0.0163552 0)
(0.420799 -0.0188442 0)
(0.422019 -0.0217834 0)
(0.423416 -0.0252614 0)
(0.425031 -0.0293836 0)
(0.426914 -0.0342767 0)
(0.429154 -0.0400916 0)
(0.431803 -0.0470157 0)
(0.435208 -0.0552548 0)
(0.43899 -0.0651379 0)
(0.445688 -0.0767126 0)
(0.412463 -0.000128834 0)
(0.412477 -0.000416503 0)
(0.412512 -0.000760769 0)
(0.412571 -0.00115783 0)
(0.412655 -0.00160506 0)
(0.412764 -0.00209942 0)
(0.4129 -0.00263789 0)
(0.413066 -0.00321818 0)
(0.413263 -0.00383945 0)
(0.413491 -0.00450327 0)
(0.413753 -0.00521463 0)
(0.414048 -0.00598294 0)
(0.41438 -0.00682261 0)
(0.414749 -0.00775328 0)
(0.415158 -0.00879978 0)
(0.415612 -0.00999194 0)
(0.416114 -0.0113646 0)
(0.41667 -0.0129581 0)
(0.417287 -0.0148193 0)
(0.417972 -0.017003 0)
(0.418737 -0.0195745 0)
(0.419593 -0.0226115 0)
(0.420558 -0.0262076 0)
(0.421655 -0.0304755 0)
(0.422915 -0.0355532 0)
(0.424398 -0.0416091 0)
(0.426131 -0.048856 0)
(0.428398 -0.0575562 0)
(0.430837 -0.0680434 0)
(0.435737 -0.0807957 0)
(0.412462 -0.000134269 0)
(0.412473 -0.000433821 0)
(0.412499 -0.000791698 0)
(0.412543 -0.0012038 0)
(0.412605 -0.00166729 0)
(0.412685 -0.00217903 0)
(0.412785 -0.00273582 0)
(0.412906 -0.00333523 0)
(0.413049 -0.00397628 0)
(0.413213 -0.00466044 0)
(0.4134 -0.0053927 0)
(0.413609 -0.00618255 0)
(0.413841 -0.0070446 0)
(0.414096 -0.00799877 0)
(0.414376 -0.00907021 0)
(0.414681 -0.0102892 0)
(0.415011 -0.011691 0)
(0.41537 -0.0133164 0)
(0.415757 -0.0152127 0)
(0.416175 -0.0174355 0)
(0.416625 -0.0200508 0)
(0.417108 -0.023138 0)
(0.417628 -0.026793 0)
(0.41819 -0.0311324 0)
(0.4188 -0.0363009 0)
(0.419485 -0.0424788 0)
(0.420238 -0.0498971 0)
(0.421253 -0.0588635 0)
(0.422198 -0.0697151 0)
(0.424926 -0.0833165 0)
(0.412462 -0.000138142 0)
(0.412469 -0.000446124 0)
(0.412486 -0.000813558 0)
(0.412514 -0.00123608 0)
(0.412554 -0.00171071 0)
(0.412606 -0.00223414 0)
(0.412669 -0.00280307 0)
(0.412744 -0.0034149 0)
(0.412832 -0.0040685 0)
(0.412931 -0.00476521 0)
(0.413041 -0.00550995 0)
(0.413163 -0.00631216 0)
(0.413294 -0.00718639 0)
(0.413434 -0.00815254 0)
(0.413582 -0.00923575 0)
(0.413736 -0.0104662 0)
(0.413895 -0.011879 0)
(0.414055 -0.0135146 0)
(0.414212 -0.0154199 0)
(0.414361 -0.0176498 0)
(0.414496 -0.0202696 0)
(0.414606 -0.0233581 0)
(0.414679 -0.0270103 0)
(0.414702 -0.0313429 0)
(0.414653 -0.0365015 0)
(0.414521 -0.0426703 0)
(0.414262 -0.050088 0)
(0.413955 -0.059089 0)
(0.413307 -0.0700065 0)
(0.41357 -0.0839997 0)
(0.412461 -0.000140461 0)
(0.412464 -0.000453419 0)
(0.412473 -0.000826328 0)
(0.412486 -0.00125462 0)
(0.412504 -0.00173515 0)
(0.412526 -0.00226451 0)
(0.412552 -0.00283929 0)
(0.412582 -0.00345673 0)
(0.412614 -0.00411558 0)
(0.412647 -0.00481702 0)
(0.412681 -0.00556579 0)
(0.412715 -0.00637113 0)
(0.412745 -0.00724738 0)
(0.41277 -0.00821412 0)
(0.412787 -0.00929608 0)
(0.412791 -0.0105229 0)
(0.412779 -0.0119289 0)
(0.412742 -0.0135534 0)
(0.412672 -0.015442 0)
(0.412557 -0.0176476 0)
(0.412382 -0.0202333 0)
(0.412126 -0.0232745 0)
(0.411762 -0.0268627 0)
(0.411256 -0.0311096 0)
(0.410562 -0.0361554 0)
(0.409624 -0.0421785 0)
(0.40836 -0.0494115 0)
(0.40672 -0.0581918 0)
(0.404455 -0.0688343 0)
(0.402099 -0.0826567 0)
(0.41246 -0.000141253 0)
(0.41246 -0.00045578 0)
(0.41246 -0.000830092 0)
(0.412458 -0.00125947 0)
(0.412454 -0.00174065 0)
(0.412448 -0.00227015 0)
(0.412437 -0.00284445 0)
(0.41242 -0.00346071 0)
(0.412397 -0.00411753 0)
(0.412366 -0.0048159 0)
(0.412324 -0.00556033 0)
(0.41227 -0.00635975 0)
(0.4122 -0.00722806 0)
(0.412112 -0.00818426 0)
(0.411999 -0.00925234 0)
(0.411857 -0.0104609 0)
(0.411677 -0.0118429 0)
(0.411449 -0.013436 0)
(0.411159 -0.0152833 0)
(0.410789 -0.0174348 0)
(0.410316 -0.0199495 0)
(0.40971 -0.0228973 0)
(0.408929 -0.0263627 0)
(0.407921 -0.0304481 0)
(0.406614 -0.0352813 0)
(0.404913 -0.041025 0)
(0.402697 -0.0478903 0)
(0.399785 -0.05619 0)
(0.395969 -0.0662012 0)
(0.391037 -0.0792361 0)
(0.412459 -0.000140554 0)
(0.412456 -0.000453316 0)
(0.412447 -0.000825026 0)
(0.412431 -0.00125086 0)
(0.412406 -0.00172748 0)
(0.412371 -0.00225134 0)
(0.412324 -0.0028189 0)
(0.412262 -0.00342725 0)
(0.412185 -0.00407486 0)
(0.412089 -0.0047625 0)
(0.411973 -0.00549441 0)
(0.411833 -0.00627909 0)
(0.411666 -0.00712985 0)
(0.411467 -0.00806486 0)
(0.411229 -0.00910702 0)
(0.410945 -0.0102835 0)
(0.410604 -0.0116255 0)
(0.410192 -0.0131681 0)
(0.409692 -0.0149514 0)
(0.409081 -0.0170213 0)
(0.408328 -0.019431 0)
(0.407394 -0.0222434 0)
(0.406227 -0.0255327 0)
(0.404758 -0.0293879 0)
(0.402893 -0.033918 0)
(0.400502 -0.0392604 0)
(0.39743 -0.0455902 0)
(0.393385 -0.0531682 0)
(0.388182 -0.062213 0)
(0.380942 -0.073862 0)
(0.412459 -0.000138418 0)
(0.412452 -0.000446188 0)
(0.412435 -0.000811405 0)
(0.412405 -0.00122917 0)
(0.412359 -0.0016961 0)
(0.412297 -0.00220867 0)
(0.412214 -0.00276335 0)
(0.412109 -0.0033572 0)
(0.411979 -0.00398858 0)
(0.411821 -0.00465807 0)
(0.411632 -0.00536956 0)
(0.41141 -0.00613105 0)
(0.411148 -0.00695509 0)
(0.410842 -0.00785886 0)
(0.410484 -0.00886385 0)
(0.410065 -0.00999548 0)
(0.409571 -0.0112826 0)
(0.408986 -0.0127576 0)
(0.408289 -0.0144565 0)
(0.407454 -0.0164202 0)
(0.406444 -0.0186955 0)
(0.405213 -0.021336 0)
(0.4037 -0.0244036 0)
(0.401822 -0.0279705 0)
(0.399472 -0.0321219 0)
(0.396492 -0.0369619 0)
(0.3927 -0.0426178 0)
(0.387724 -0.0492758 0)
(0.381392 -0.057078 0)
(0.372322 -0.0668429 0)
(0.412458 -0.000134925 0)
(0.412448 -0.000434645 0)
(0.412424 -0.00078963 0)
(0.41238 -0.00119494 0)
(0.412315 -0.0016472 0)
(0.412226 -0.00214295 0)
(0.412109 -0.00267878 0)
(0.411962 -0.00325175 0)
(0.411781 -0.00386016 0)
(0.411564 -0.00450438 0)
(0.411306 -0.00518794 0)
(0.411004 -0.00591824 0)
(0.410653 -0.00670699 0)
(0.410245 -0.00757017 0)
(0.409774 -0.00852769 0)
(0.409226 -0.0096029 0)
(0.408589 -0.0108221 0)
(0.407844 -0.0122141 0)
(0.406966 -0.013811 0)
(0.405927 -0.015648 0)
(0.404686 -0.0177643 0)
(0.403193 -0.0202034 0)
(0.40138 -0.0230135 0)
(0.399158 -0.0262475 0)
(0.396408 -0.0299639 0)
(0.392959 -0.0342283 0)
(0.388613 -0.0391132 0)
(0.382957 -0.0447154 0)
(0.375825 -0.0510906 0)
(0.365557 -0.0586435 0)
(0.412457 -0.000130178 0)
(0.412445 -0.000418995 0)
(0.412413 -0.000760212 0)
(0.412357 -0.00114887 0)
(0.412274 -0.00158165 0)
(0.41216 -0.00205529 0)
(0.412011 -0.00256652 0)
(0.411824 -0.00311252 0)
(0.411595 -0.00369151 0)
(0.411321 -0.00430372 0)
(0.410998 -0.00495228 0)
(0.410621 -0.00564396 0)
(0.410185 -0.00638951 0)
(0.409682 -0.00720359 0)
(0.409104 -0.00810436 0)
(0.408438 -0.00911289 0)
(0.407669 -0.0102526 0)
(0.406777 -0.011549 0)
(0.405737 -0.0130293 0)
(0.404516 -0.014723 0)
(0.403073 -0.0166614 0)
(0.401356 -0.0188774 0)
(0.399294 -0.0214048 0)
(0.396795 -0.0242767 0)
(0.393738 -0.0275237 0)
(0.389951 -0.0311718 0)
(0.385231 -0.0352368 0)
(0.379169 -0.0397219 0)
(0.371603 -0.0445975 0)
(0.360837 -0.0498232 0)
(0.412457 -0.000124307 0)
(0.412442 -0.000399639 0)
(0.412404 -0.000723804 0)
(0.412337 -0.00109183 0)
(0.412237 -0.00150054 0)
(0.412099 -0.00194699 0)
(0.411921 -0.0024282 0)
(0.411696 -0.00294145 0)
(0.411422 -0.00348497 0)
(0.411095 -0.00405883 0)
(0.41071 -0.0046658 0)
(0.410264 -0.00531199 0)
(0.409749 -0.00600715 0)
(0.409158 -0.00676451 0)
(0.408482 -0.00760036 0)
(0.407708 -0.00853344 0)
(0.406819 -0.00958422 0)
(0.405795 -0.0107745 0)
(0.404611 -0.012127 0)
(0.403232 -0.0136651 0)
(0.401618 -0.0154124 0)
(0.399716 -0.0173916 0)
(0.397456 -0.0196224 0)
(0.394749 -0.0221189 0)
(0.391479 -0.024885 0)
(0.387483 -0.0279093 0)
(0.382572 -0.031155 0)
(0.376373 -0.0345384 0)
(0.368734 -0.0379556 0)
(0.358137 -0.0409556 0)
(0.412456 -0.000117481 0)
(0.41244 -0.000377091 0)
(0.412396 -0.000681218 0)
(0.412319 -0.00102485 0)
(0.412204 -0.00140512 0)
(0.412045 -0.00181959 0)
(0.411839 -0.00226565 0)
(0.41158 -0.00274077 0)
(0.411265 -0.00324322 0)
(0.410888 -0.00377294 0)
(0.410447 -0.00433235 0)
(0.409937 -0.00492685 0)
(0.40935 -0.00556513 0)
(0.408679 -0.00625897 0)
(0.407914 -0.00702278 0)
(0.407042 -0.00787288 0)
(0.406046 -0.00882685 0)
(0.404906 -0.00990287 0)
(0.403596 -0.0111192 0)
(0.402084 -0.0124936 0)
(0.400328 -0.0140425 0)
(0.398279 -0.0157788 0)
(0.395871 -0.0177097 0)
(0.393022 -0.0198322 0)
(0.389627 -0.0221275 0)
(0.385543 -0.0245515 0)
(0.380604 -0.027024 0)
(0.374506 -0.0293897 0)
(0.367117 -0.03149 0)
(0.357238 -0.0325494 0)
(0.412456 -0.000109922 0)
(0.412438 -0.000352019 0)
(0.41239 -0.000633445 0)
(0.412305 -0.000949154 0)
(0.412177 -0.00129685 0)
(0.411999 -0.00167485 0)
(0.411768 -0.00208098 0)
(0.411478 -0.0025129 0)
(0.411125 -0.00296903 0)
(0.410704 -0.00344931 0)
(0.410212 -0.00395583 0)
(0.409643 -0.00449328 0)
(0.408991 -0.00506925 0)
(0.408248 -0.00569403 0)
(0.407403 -0.00638012 0)
(0.406445 -0.00714148 0)
(0.405356 -0.00799285 0)
(0.404115 -0.00894897 0)
(0.402699 -0.010024 0)
(0.401075 -0.0112305 0)
(0.399206 -0.0125785 0)
(0.397046 -0.0140727 0)
(0.394535 -0.0157098 0)
(0.391603 -0.0174731 0)
(0.388159 -0.0193253 0)
(0.38409 -0.0211981 0)
(0.37926 -0.0229798 0)
(0.373452 -0.0244651 0)
(0.366561 -0.0254638 0)
(0.357787 -0.0249904 0)
(0.412456 -0.000101946 0)
(0.412437 -0.000325334 0)
(0.412387 -0.000581676 0)
(0.412296 -0.000866051 0)
(0.412156 -0.00117733 0)
(0.411962 -0.00151484 0)
(0.411709 -0.00187679 0)
(0.411391 -0.00226096 0)
(0.411004 -0.00266591 0)
(0.410544 -0.00309165 0)
(0.410006 -0.00353999 0)
(0.409386 -0.004015 0)
(0.408676 -0.00452319 0)
(0.407869 -0.00507343 0)
(0.406955 -0.00567639 0)
(0.405921 -0.00634382 0)
(0.404752 -0.00708779 0)
(0.403426 -0.00791991 0)
(0.401921 -0.00885059 0)
(0.400208 -0.00988808 0)
(0.398252 -0.011037 0)
(0.396011 -0.0122957 0)
(0.393437 -0.0136527 0)
(0.39047 -0.0150815 0)
(0.38704 -0.0165326 0)
(0.383063 -0.0179221 0)
(0.378444 -0.0191206 0)
(0.373055 -0.019897 0)
(0.366825 -0.0200521 0)
(0.359361 -0.0185148 0)
(0.412456 -9.40515e-05 0)
(0.412438 -0.000298397 0)
(0.412387 -0.0005274 0)
(0.412293 -0.000776842 0)
(0.412144 -0.00104784 0)
(0.411936 -0.00134113 0)
(0.411664 -0.00165526 0)
(0.411322 -0.00198821 0)
(0.410906 -0.00233878 0)
(0.410412 -0.00270695 0)
(0.409835 -0.00309417 0)
(0.409169 -0.00350374 0)
(0.40841 -0.0039411 0)
(0.407548 -0.00441369 0)
(0.406575 -0.00493038 0)
(0.405477 -0.00550087 0)
(0.404239 -0.0061348 0)
(0.402843 -0.00684101 0)
(0.401266 -0.00762674 0)
(0.399483 -0.00849671 0)
(0.397462 -0.00945152 0)
(0.395168 -0.010485 0)
(0.392561 -0.0115806 0)
(0.389597 -0.0127059 0)
(0.386224 -0.0138055 0)
(0.382392 -0.0147895 0)
(0.378044 -0.015524 0)
(0.373139 -0.0157758 0)
(0.367646 -0.0153564 0)
(0.361526 -0.013223 0)
(0.412456 -8.70882e-05 0)
(0.412441 -0.000273288 0)
(0.412394 -0.000472984 0)
(0.412299 -0.000683971 0)
(0.412144 -0.000910587 0)
(0.411924 -0.00115488 0)
(0.411635 -0.00141571 0)
(0.411273 -0.00169153 0)
(0.410832 -0.00198173 0)
(0.410309 -0.00228652 0)
(0.409698 -0.0026071 0)
(0.408994 -0.00294605 0)
(0.408193 -0.00330776 0)
(0.407286 -0.00369824 0)
(0.406263 -0.00412475 0)
(0.405112 -0.0045951 0)
(0.403818 -0.00511682 0)
(0.402365 -0.00569626 0)
(0.400732 -0.00633792 0)
(0.398896 -0.0070439 0)
(0.396829 -0.0078121 0)
(0.394503 -0.00863375 0)
(0.391887 -0.00948989 0)
(0.388951 -0.0103466 0)
(0.385662 -0.0111482 0)
(0.382001 -0.0118073 0)
(0.377948 -0.0121981 0)
(0.373535 -0.0121049 0)
(0.368772 -0.0113673 0)
(0.363887 -0.00905471 0)
(0.412459 -8.24209e-05 0)
(0.412449 -0.000251262 0)
(0.412411 -0.000419408 0)
(0.412319 -0.000591174 0)
(0.41216 -0.000774452 0)
(0.411931 -0.000971248 0)
(0.41163 -0.00118001 0)
(0.411252 -0.00139953 0)
(0.410792 -0.00162966 0)
(0.410244 -0.00187081 0)
(0.409606 -0.00212394 0)
(0.408872 -0.00239104 0)
(0.408037 -0.0026755 0)
(0.407093 -0.00298209 0)
(0.40603 -0.00331654 0)
(0.404836 -0.0036851 0)
(0.403499 -0.00409355 0)
(0.402002 -0.00454587 0)
(0.400327 -0.00504439 0)
(0.398453 -0.00558969 0)
(0.396357 -0.00617852 0)
(0.394017 -0.00680131 0)
(0.39141 -0.00743937 0)
(0.388518 -0.00806079 0)
(0.385327 -0.00861518 0)
(0.381843 -0.00902451 0)
(0.378078 -0.00918055 0)
(0.374117 -0.00889845 0)
(0.370015 -0.00806375 0)
(0.366164 -0.00592226 0)
(0.412463 -8.75497e-05 0)
(0.412468 -0.000234035 0)
(0.412443 -0.000355842 0)
(0.412354 -0.000474704 0)
(0.412191 -0.000603236 0)
(0.411956 -0.000742626 0)
(0.411646 -0.000891139 0)
(0.411257 -0.00104801 0)
(0.410783 -0.00121322 0)
(0.410219 -0.001387 0)
(0.409563 -0.0015698 0)
(0.408809 -0.00176272 0)
(0.407951 -0.00196788 0)
(0.406982 -0.00218857 0)
(0.405893 -0.00242907 0)
(0.404673 -0.00269471 0)
(0.403309 -0.00299068 0)
(0.401787 -0.00331888 0)
(0.40009 -0.00367916 0)
(0.398199 -0.00407092 0)
(0.396094 -0.00449069 0)
(0.393758 -0.00492979 0)
(0.391176 -0.00537204 0)
(0.388338 -0.00579065 0)
(0.385247 -0.00614463 0)
(0.381926 -0.00637044 0)
(0.378417 -0.00638519 0)
(0.374826 -0.00603434 0)
(0.371263 -0.00526285 0)
(0.368107 -0.00346819 0)
(0.412476 -0.000122958 0)
(0.412534 -0.000271947 0)
(0.412503 -0.000357955 0)
(0.412399 -0.000432301 0)
(0.412223 -0.000511713 0)
(0.411977 -0.000596033 0)
(0.411657 -0.000684359 0)
(0.411256 -0.000777237 0)
(0.410767 -0.000875219 0)
(0.410185 -0.000978565 0)
(0.409505 -0.00108764 0)
(0.408725 -0.00120328 0)
(0.407839 -0.00132697 0)
(0.406844 -0.00146093 0)
(0.405731 -0.00160787 0)
(0.404492 -0.00177061 0)
(0.403105 -0.00195161 0)
(0.401548 -0.00215238 0)
(0.399812 -0.00237315 0)
(0.397879 -0.00261269 0)
(0.39573 -0.00286749 0)
(0.39335 -0.00313061 0)
(0.390729 -0.00339016 0)
(0.387867 -0.00362703 0)
(0.38478 -0.00381241 0)
(0.381505 -0.00390276 0)
(0.378128 -0.00384 0)
(0.374732 -0.00352151 0)
(0.371646 -0.00290349 0)
(0.368384 -0.00141997 0)
(0.412267 -7.61152e-05 0)
(0.4121 -0.000158594 0)
(0.411793 -0.000198394 0)
(0.411368 -0.000229982 0)
(0.410866 -0.000262595 0)
(0.410296 -0.000295611 0)
(0.409652 -0.000328388 0)
(0.408926 -0.000361055 0)
(0.408114 -0.000393924 0)
(0.407213 -0.000427642 0)
(0.406218 -0.000463363 0)
(0.405123 -0.000502491 0)
(0.40392 -0.000546234 0)
(0.402599 -0.000595333 0)
(0.401149 -0.000650153 0)
(0.399557 -0.000710368 0)
(0.397808 -0.000775225 0)
(0.395888 -0.000845262 0)
(0.393779 -0.000921265 0)
(0.391462 -0.00100268 0)
(0.388923 -0.00108806 0)
(0.386154 -0.00117481 0)
(0.383152 -0.00125848 0)
(0.379934 -0.00133186 0)
(0.376533 -0.00138413 0)
(0.373019 -0.00139837 0)
(0.36951 -0.00135618 0)
(0.366196 -0.00119595 0)
(0.363358 -0.00100809 0)
(0.360618 2.42867e-05 0)
(0.491075 -0.00672569 -1.06252e-19)
(0.495446 -0.0101656 -1.0596e-19)
(0.499252 -0.0143521 -1.50901e-18)
(0.502266 -0.0189382 -4.33562e-19)
(0.504912 -0.0238114 4.39627e-19)
(0.507363 -0.0289304 0)
(0.509648 -0.0343065 0)
(0.511812 -0.0399763 4.49474e-19)
(0.513929 -0.0459771 -4.56769e-19)
(0.516053 -0.0523413 -9.15994e-19)
(0.518212 -0.0591022 9.31522e-19)
(0.520413 -0.0663009 0)
(0.522658 -0.0739909 -9.40805e-19)
(0.52495 -0.0822399 9.57757e-19)
(0.527298 -0.0911308 0)
(0.529716 -0.100769 1.92747e-18)
(0.532218 -0.111281 9.65653e-19)
(0.534816 -0.122824 9.59487e-19)
(0.537524 -0.135591 9.68507e-19)
(0.54035 -0.149823 9.53652e-19)
(0.543298 -0.16583 -9.57814e-19)
(0.546369 -0.184006 2.88306e-18)
(0.549534 -0.20487 0)
(0.552777 -0.229087 -1.80937e-18)
(0.555928 -0.257586 8.42891e-19)
(0.558933 -0.291576 -1.68606e-18)
(0.561386 -0.332217 -2.21735e-18)
(0.561253 -0.386012 0)
(0.564946 -0.434597 0)
(0.540656 -0.560778 -4.28774e-20)
(0.49506 -0.0153993 -1.73685e-18)
(0.497897 -0.0192131 0)
(0.500223 -0.023706 0)
(0.502105 -0.0284681 -1.78474e-18)
(0.503855 -0.0334208 1.80368e-18)
(0.505608 -0.0385998 1.82281e-18)
(0.507369 -0.0440578 -4.58072e-19)
(0.509142 -0.0498312 4.6567e-19)
(0.510944 -0.0559432 1.41572e-18)
(0.51278 -0.0624184 2.38041e-18)
(0.514635 -0.0692921 -9.55475e-19)
(0.516492 -0.0766138 1.95427e-18)
(0.518346 -0.0844456 9.83191e-19)
(0.520196 -0.0928621 1.00434e-18)
(0.522049 -0.101952 1.00354e-18)
(0.523908 -0.111821 2.02803e-18)
(0.525772 -0.122597 0)
(0.527634 -0.134437 -1.01412e-18)
(0.529481 -0.147532 -1.03698e-18)
(0.531291 -0.162122 0)
(0.533028 -0.178512 1.01512e-18)
(0.534642 -0.197082 1.03768e-18)
(0.536034 -0.21833 -2.05885e-18)
(0.5371 -0.242877 0)
(0.537533 -0.27159 9.30258e-19)
(0.537186 -0.305495 9.44779e-19)
(0.535149 -0.345996 -1.78133e-18)
(0.530198 -0.396894 6.80347e-19)
(0.52635 -0.447529 -7.03999e-19)
(0.495245 -0.561452 1.47435e-19)
(0.493419 -0.0237154 1.76823e-18)
(0.495333 -0.0274286 0)
(0.496995 -0.0318143 -2.25226e-19)
(0.4986 -0.0365288 3.88376e-18)
(0.50024 -0.0414947 -1.38281e-18)
(0.501911 -0.0467269 -2.79772e-18)
(0.503573 -0.0522505 2.37072e-18)
(0.505204 -0.058083 -4.76744e-19)
(0.506801 -0.064247 -1.4437e-18)
(0.50836 -0.0707787 -4.71567e-19)
(0.509874 -0.0777269 4.97139e-19)
(0.511341 -0.0851483 -2.99777e-18)
(0.512765 -0.0931072 2.0306e-18)
(0.514146 -0.101677 -3.07609e-18)
(0.515479 -0.110943 0)
(0.516752 -0.12101 -2.08891e-18)
(0.517946 -0.132003 0)
(0.519034 -0.144079 0)
(0.51998 -0.157425 2.14271e-18)
(0.520732 -0.172277 0)
(0.521218 -0.188925 0)
(0.521339 -0.207735 -2.1578e-18)
(0.520933 -0.229172 2.14561e-18)
(0.519812 -0.253811 0)
(0.517561 -0.282445 0)
(0.513924 -0.315957 -1.99997e-18)
(0.507648 -0.355761 7.62659e-19)
(0.498145 -0.404042 -5.42748e-19)
(0.48641 -0.455822 -4.37551e-19)
(0.449818 -0.557432 0)
(0.491358 -0.0322897 -5.64337e-20)
(0.492924 -0.0361013 -5.68993e-20)
(0.494276 -0.0405449 1.74444e-18)
(0.495689 -0.0453052 -3.75272e-18)
(0.497131 -0.0503092 2.37936e-19)
(0.498526 -0.05557 4.79817e-19)
(0.499845 -0.061118 -4.71903e-19)
(0.501096 -0.0669829 0)
(0.502287 -0.0731989 2.50998e-18)
(0.503423 -0.0798075 -4.56586e-18)
(0.504499 -0.0868559 2.06816e-18)
(0.505509 -0.0943961 1.03894e-18)
(0.506445 -0.102488 -3.18805e-18)
(0.50729 -0.111201 0)
(0.508024 -0.120623 0)
(0.50862 -0.130857 2.22126e-18)
(0.509042 -0.142027 2.25247e-18)
(0.509247 -0.154284 1.1227e-18)
(0.509175 -0.167811 -1.47331e-20)
(0.508747 -0.18283 -1.16328e-18)
(0.507855 -0.199615 0)
(0.506353 -0.218505 0)
(0.504023 -0.239925 -1.24482e-18)
(0.500604 -0.264388 -3.61851e-18)
(0.495588 -0.2926 0)
(0.488633 -0.325289 -1.27962e-18)
(0.478219 -0.363757 2.10055e-18)
(0.464323 -0.409245 -3.95992e-18)
(0.444939 -0.459959 5.40952e-19)
(0.404601 -0.549067 0)
(0.488417 -0.0407981 0)
(0.489622 -0.0446515 1.88681e-18)
(0.490591 -0.0490934 -1.66185e-18)
(0.491679 -0.0538511 1.6832e-18)
(0.492802 -0.0588698 2.44306e-19)
(0.493851 -0.0641656 -2.48644e-19)
(0.494809 -0.0697679 -2.00515e-18)
(0.495694 -0.075704 0)
(0.49651 -0.0820038 2.34744e-20)
(0.497248 -0.088704 2.09432e-18)
(0.497891 -0.0958484 -2.6592e-18)
(0.498423 -0.103488 2.73299e-18)
(0.498825 -0.111684 2.74185e-18)
(0.499073 -0.120507 -5.62154e-19)
(0.499137 -0.130044 3.43594e-18)
(0.498979 -0.140394 -2.27143e-18)
(0.498552 -0.151679 -2.35864e-18)
(0.497794 -0.164039 -1.20105e-18)
(0.496623 -0.177647 0)
(0.494934 -0.192709 0)
(0.492584 -0.209476 0)
(0.489387 -0.228252 1.25938e-18)
(0.485077 -0.249416 3.85786e-18)
(0.479331 -0.273413 1.26119e-18)
(0.471575 -0.300845 2.62247e-18)
(0.46139 -0.332294 -1.5207e-18)
(0.44709 -0.368915 2.75178e-18)
(0.429034 -0.41126 -2.74865e-19)
(0.402737 -0.459477 2.13496e-18)
(0.360081 -0.536462 3.21837e-18)
(0.484579 -0.049233 -1.91596e-18)
(0.485437 -0.0531438 -1.92812e-18)
(0.486034 -0.057619 -1.97607e-18)
(0.486794 -0.0624138 0)
(0.487598 -0.0674788 0)
(0.488302 -0.0728266 -2.0683e-18)
(0.488887 -0.0784828 0)
(0.489376 -0.0844732 1.60738e-18)
(0.489768 -0.0908282 -3.77771e-18)
(0.490042 -0.0975854 2.21155e-18)
(0.490176 -0.104789 1.69413e-18)
(0.490151 -0.112492 -4.54576e-18)
(0.489941 -0.120753 2.48268e-21)
(0.489516 -0.129642 -1.79036e-18)
(0.488837 -0.139238 4.85925e-20)
(0.487853 -0.149637 -2.42365e-18)
(0.486501 -0.16095 -5.93241e-20)
(0.484703 -0.173309 2.58254e-18)
(0.482357 -0.186871 -1.34464e-18)
(0.479331 -0.201823 -1.33194e-18)
(0.475457 -0.218387 2.7598e-18)
(0.470512 -0.23683 0)
(0.464194 -0.257474 -2.76803e-18)
(0.456128 -0.280692 0)
(0.445698 -0.306977 -3.03894e-18)
(0.432424 -0.336768 2.91291e-18)
(0.414532 -0.371039 2.48096e-19)
(0.39264 -0.409824 2.97341e-18)
(0.360409 -0.45434 -3.72554e-18)
(0.316675 -0.51974 1.35531e-18)
(0.479741 -0.0575159 1.8975e-18)
(0.480237 -0.0614861 -6.23827e-20)
(0.480439 -0.0659927 2.40448e-18)
(0.480839 -0.0708137 7.8157e-19)
(0.481284 -0.0759047 0)
(0.481598 -0.0812788 2.12286e-18)
(0.48176 -0.0869616 1.63759e-18)
(0.481799 -0.0929801 -2.75113e-18)
(0.481712 -0.0993646 1.10075e-18)
(0.481472 -0.106152 -1.12003e-18)
(0.48105 -0.113385 -2.32179e-18)
(0.480419 -0.121111 2.36719e-18)
(0.47955 -0.129387 -6.23557e-19)
(0.478401 -0.138278 1.84137e-18)
(0.476922 -0.147857 -5.94282e-19)
(0.475053 -0.158213 -6.51591e-19)
(0.472718 -0.169447 3.98058e-18)
(0.469823 -0.181678 -4.07603e-18)
(0.466248 -0.195045 2.7554e-18)
(0.461844 -0.209712 7.45933e-19)
(0.456416 -0.225868 -2.15657e-18)
(0.449716 -0.243738 1.54968e-18)
(0.441412 -0.263584 0)
(0.431097 -0.285705 -8.00708e-19)
(0.41813 -0.31048 4.07118e-18)
(0.401986 -0.338216 0)
(0.380886 -0.369681 -6.18404e-18)
(0.355599 -0.404526 9.41215e-19)
(0.318565 -0.444467 0)
(0.274588 -0.499067 -3.73793e-18)
(0.473784 -0.0655167 -1.02468e-18)
(0.473895 -0.0695397 -1.29515e-19)
(0.473678 -0.0740649 -7.99655e-19)
(0.47369 -0.0788951 -1.20197e-18)
(0.473745 -0.0839924 2.73136e-19)
(0.473636 -0.0893704 -2.78676e-19)
(0.473341 -0.0950541 -1.12674e-18)
(0.472892 -0.101069 -1.16869e-18)
(0.472287 -0.107445 1.17164e-18)
(0.471489 -0.114216 -5.93035e-19)
(0.470466 -0.121421 -6.16881e-19)
(0.469183 -0.129105 0)
(0.467603 -0.137321 1.92095e-18)
(0.465678 -0.146126 -6.61241e-19)
(0.463351 -0.15559 -1.33841e-18)
(0.46055 -0.165791 -6.94481e-19)