/*--------------------------------*- C++ -*----------------------------------*\
  =========                 |
  \\      /  F ield         | OpenFOAM: The Open Source CFD Toolbox
   \\    /   O peration     | Website:  https://openfoam.org
    \\  /    A nd           | Version:  11
     \\/     M anipulation  |
\*---------------------------------------------------------------------------*/
FoamFile
{
    format      ascii;
    class       volScalarField;
    location    "7.1";
    object      p;
}
// * * * * * * * * * * * * * * * * * * * * * * * * * * * * * * * * * * * * * //

dimensions      [0 2 -2 0 0 0 0];

internalField   nonuniform List<scalar> 
12600
(
0.179843
0.179748
0.179682
0.179641
0.179596
0.179538
0.179469
0.179388
0.179293
0.179184
0.179056
0.178907
0.178733
0.178531
0.178294
0.178017
0.177691
0.177306
0.176852
0.176311
0.175672
0.174921
0.174029
0.172968
0.171704
0.170201
0.168417
0.166298
0.163808
0.160827
0.179778
0.179733
0.179683
0.179643
0.179598
0.179542
0.179474
0.179394
0.179301
0.179194
0.179068
0.178922
0.178752
0.178553
0.17832
0.178047
0.177727
0.177352
0.176907
0.176373
0.175742
0.175005
0.174131
0.173089
0.171847
0.170367
0.168605
0.166509
0.164034
0.16111
0.179757
0.179737
0.179697
0.179655
0.179609
0.179555
0.179489
0.179412
0.179322
0.179218
0.179096
0.178953
0.178787
0.178593
0.178367
0.178103
0.177792
0.177427
0.176995
0.176483
0.17588
0.175168
0.174322
0.173314
0.17211
0.170673
0.168955
0.166907
0.164458
0.161565
0.179751
0.179737
0.179704
0.179665
0.179621
0.17957
0.179507
0.179433
0.179346
0.179246
0.17913
0.178994
0.178835
0.178651
0.178435
0.178183
0.177888
0.177541
0.177132
0.176649
0.176077
0.175401
0.174599
0.173642
0.172498
0.171127
0.16948
0.167504
0.165113
0.16227
0.179754
0.179743
0.179718
0.179683
0.179642
0.179593
0.179535
0.179465
0.179385
0.179289
0.179178
0.17905
0.178901
0.178727
0.178525
0.178289
0.178013
0.17769
0.177309
0.176861
0.176331
0.175705
0.174961
0.174072
0.173006
0.171724
0.170174
0.168301
0.166005
0.163252
0.179765
0.179756
0.179735
0.179704
0.179666
0.17962
0.179566
0.179501
0.179426
0.179337
0.179235
0.179116
0.178978
0.178818
0.178632
0.178416
0.178164
0.177869
0.177523
0.177117
0.176638
0.176072
0.175399
0.174595
0.173628
0.172459
0.171037
0.169302
0.167143
0.164524
0.179782
0.179775
0.179757
0.179729
0.179695
0.179653
0.179604
0.179545
0.179476
0.179395
0.179301
0.179194
0.179069
0.178924
0.178757
0.178563
0.178339
0.178077
0.177771
0.177414
0.176993
0.176497
0.175909
0.175205
0.174357
0.173327
0.172063
0.170504
0.168531
0.166101
0.179805
0.179798
0.179783
0.179759
0.179728
0.179691
0.179646
0.179593
0.179531
0.179459
0.179376
0.17928
0.17917
0.179042
0.178896
0.178728
0.178533
0.178308
0.178047
0.177744
0.177389
0.176972
0.176479
0.17589
0.17518
0.174314
0.173241
0.171903
0.170169
0.167996
0.179832
0.179826
0.179813
0.179792
0.179765
0.179733
0.179693
0.179647
0.179592
0.17953
0.179457
0.179375
0.17928
0.179172
0.179048
0.178907
0.178745
0.17856
0.178347
0.178102
0.177819
0.177488
0.177101
0.17664
0.176085
0.175407
0.174558
0.173483
0.172053
0.170217
0.179863
0.179858
0.179847
0.179829
0.179806
0.179778
0.179744
0.179705
0.179659
0.179606
0.179545
0.179476
0.179398
0.179309
0.17921
0.179097
0.17897
0.178826
0.178664
0.178481
0.178273
0.178035
0.17776
0.177438
0.177054
0.176584
0.17599
0.175224
0.174162
0.172752
0.179897
0.179893
0.179884
0.179869
0.17985
0.179827
0.179799
0.179766
0.179728
0.179686
0.179637
0.179582
0.179521
0.179453
0.179378
0.179295
0.179203
0.179103
0.178993
0.178873
0.178742
0.1786
0.178442
0.178266
0.178063
0.17782
0.177507
0.17709
0.176461
0.175573
0.179933
0.17993
0.179923
0.179911
0.179896
0.179878
0.179856
0.17983
0.179801
0.179769
0.179732
0.179692
0.179649
0.179601
0.179551
0.179497
0.179441
0.179384
0.179326
0.17927
0.179217
0.179171
0.179133
0.179105
0.179089
0.179082
0.17907
0.179034
0.178896
0.178618
0.179972
0.17997
0.179965
0.179956
0.179944
0.179931
0.179915
0.179896
0.179876
0.179854
0.17983
0.179804
0.179778
0.179751
0.179725
0.179701
0.17968
0.179664
0.179658
0.179663
0.179687
0.179734
0.179814
0.179933
0.180104
0.180335
0.180631
0.180995
0.181388
0.181793
0.180013
0.180011
0.180008
0.180001
0.179994
0.179985
0.179975
0.179964
0.179952
0.17994
0.179928
0.179917
0.179907
0.179901
0.179898
0.179902
0.179914
0.179939
0.179981
0.180046
0.180142
0.180278
0.180468
0.180728
0.181077
0.181538
0.182136
0.182899
0.183839
0.184964
0.180054
0.180054
0.180051
0.180048
0.180044
0.18004
0.180035
0.180031
0.180028
0.180026
0.180025
0.180028
0.180035
0.180047
0.180067
0.180098
0.180142
0.180205
0.180292
0.180411
0.180572
0.18079
0.181081
0.181467
0.181979
0.182651
0.183529
0.184667
0.186131
0.187967
0.180097
0.180096
0.180096
0.180095
0.180094
0.180095
0.180096
0.180098
0.180103
0.18011
0.180121
0.180137
0.180159
0.18019
0.180231
0.180286
0.180359
0.180456
0.180583
0.18075
0.18097
0.181258
0.181636
0.182131
0.182781
0.183634
0.184753
0.186216
0.188141
0.190617
0.180139
0.180139
0.18014
0.180142
0.180145
0.180149
0.180155
0.180164
0.180176
0.180193
0.180214
0.180242
0.180279
0.180326
0.180386
0.180463
0.180562
0.180689
0.180851
0.181059
0.181327
0.181673
0.182121
0.182703
0.183461
0.184453
0.185757
0.18747
0.189754
0.192733
0.180181
0.180182
0.180184
0.180188
0.180194
0.180202
0.180213
0.180228
0.180248
0.180272
0.180303
0.180343
0.180393
0.180454
0.180532
0.180629
0.18075
0.180901
0.181092
0.181334
0.181639
0.182029
0.182528
0.18317
0.184001
0.185083
0.186504
0.188372
0.190874
0.194162
0.180222
0.180224
0.180227
0.180233
0.180242
0.180254
0.180269
0.18029
0.180316
0.180348
0.180388
0.180438
0.180499
0.180574
0.180667
0.18078
0.180919
0.181092
0.181305
0.181571
0.181903
0.182321
0.18285
0.183525
0.184391
0.18551
0.186971
0.188886
0.191446
0.194812
0.180262
0.180264
0.180269
0.180277
0.180288
0.180303
0.180323
0.180348
0.18038
0.180419
0.180467
0.180526
0.180598
0.180684
0.180789
0.180916
0.181071
0.181258
0.181488
0.181769
0.182117
0.182548
0.183088
0.183767
0.184629
0.185732
0.187157
0.189009
0.191462
0.194663
0.180301
0.180304
0.180309
0.180319
0.180332
0.180349
0.180373
0.180403
0.18044
0.180485
0.180541
0.180608
0.180688
0.180784
0.180899
0.181037
0.181203
0.181401
0.181641
0.18193
0.182282
0.182713
0.183244
0.183902
0.184724
0.18576
0.187079
0.188767
0.190962
0.193778
0.180339
0.180341
0.180348
0.180358
0.180373
0.180393
0.18042
0.180453
0.180495
0.180546
0.180608
0.180681
0.180769
0.180873
0.180997
0.181143
0.181316
0.181521
0.181765
0.182055
0.182403
0.182821
0.183326
0.18394
0.184691
0.185617
0.186771
0.188212
0.190025
0.192288
0.180375
0.180377
0.180384
0.180394
0.18041
0.180433
0.180462
0.180499
0.180545
0.180601
0.180668
0.180747
0.180841
0.180951
0.181081
0.181233
0.181411
0.181619
0.181862
0.182148
0.182483
0.182878
0.183344
0.183899
0.184553
0.185339
0.186282
0.187415
0.188766
0.190369
0.180409
0.180411
0.180417
0.180428
0.180445
0.180469
0.180501
0.180541
0.18059
0.180649
0.18072
0.180805
0.180903
0.181019
0.181153
0.181309
0.181489
0.181697
0.181937
0.182212
0.18253
0.182894
0.183312
0.183788
0.184339
0.184965
0.185672
0.186465
0.187316
0.18822
0.180441
0.180443
0.180448
0.180458
0.180475
0.180501
0.180534
0.180576
0.180628
0.180691
0.180766
0.180854
0.180956
0.181075
0.181212
0.18137
0.181551
0.181756
0.18199
0.182253
0.182549
0.182879
0.183244
0.183644
0.184079
0.184537
0.185002
0.185453
0.185809
0.186032
0.180473
0.180473
0.180475
0.180483
0.180502
0.180528
0.180563
0.180607
0.180661
0.180727
0.180804
0.180895
0.181001
0.181122
0.181262
0.18142
0.1816
0.181802
0.182027
0.182277
0.18255
0.182845
0.183159
0.183482
0.183803
0.1841
0.184336
0.184465
0.184366
0.183973
0.180504
0.180502
0.180498
0.180504
0.180522
0.18055
0.180586
0.180631
0.180687
0.180754
0.180834
0.180927
0.181035
0.181158
0.181298
0.181457
0.181635
0.181832
0.182049
0.182285
0.182537
0.1828
0.183066
0.18332
0.183539
0.183692
0.183725
0.183575
0.183091
0.182179
0.180537
0.180529
0.180518
0.180522
0.180541
0.180569
0.180605
0.180651
0.180708
0.180777
0.180858
0.180953
0.181062
0.181186
0.181327
0.181485
0.181661
0.181854
0.182063
0.182288
0.182521
0.182758
0.182984
0.18318
0.183317
0.183349
0.183216
0.182846
0.182068
0.180763
0.180577
0.180543
0.180524
0.18053
0.180551
0.180579
0.180616
0.180663
0.180721
0.180791
0.180873
0.180969
0.181078
0.181203
0.181344
0.181501
0.181675
0.181864
0.182068
0.182282
0.1825
0.182716
0.182915
0.18307
0.183153
0.183101
0.182846
0.182322
0.181364
0.179806
0.180652
0.180567
0.180532
0.180538
0.180559
0.180587
0.180623
0.18067
0.180729
0.180799
0.180882
0.180978
0.181088
0.181213
0.181353
0.18151
0.181683
0.181871
0.182071
0.182279
0.18249
0.182693
0.18287
0.182999
0.183042
0.182939
0.182626
0.182016
0.180974
0.179305
0.158498
0.157371
0.156629
0.156106
0.155558
0.154943
0.154304
0.153669
0.153037
0.152398
0.151749
0.151089
0.150411
0.149708
0.148969
0.148181
0.147327
0.146387
0.145335
0.144136
0.142745
0.141095
0.139094
0.136615
0.13344
0.12934
0.123665
0.115864
0.106298
0.0812971
0.15913
0.158329
0.157669
0.157123
0.156568
0.155984
0.155408
0.154854
0.154317
0.153787
0.153258
0.152726
0.152188
0.151636
0.151062
0.150458
0.149813
0.149112
0.148337
0.147462
0.146454
0.145263
0.143822
0.142032
0.139726
0.136736
0.132493
0.126903
0.118609
0.100878
0.159368
0.158803
0.158327
0.157864
0.157396
0.156934
0.156493
0.156072
0.155665
0.155265
0.154871
0.154482
0.154096
0.153712
0.153323
0.152927
0.152517
0.152083
0.151616
0.1511
0.150512
0.149822
0.14898
0.147921
0.146522
0.144663
0.141884
0.138261
0.131834
0.120284
0.160046
0.159701
0.159419
0.159062
0.158683
0.158328
0.158001
0.157694
0.157404
0.15713
0.156876
0.15664
0.156423
0.156224
0.156042
0.155876
0.155725
0.155586
0.155455
0.155327
0.15519
0.155028
0.154814
0.154507
0.154021
0.153279
0.151915
0.150088
0.145721
0.139277
0.16104
0.160857
0.160725
0.160467
0.160182
0.159942
0.159744
0.159572
0.159423
0.159301
0.15921
0.15915
0.159123
0.159131
0.159178
0.159267
0.159401
0.159582
0.159816
0.160102
0.160443
0.160835
0.161267
0.16172
0.162142
0.162487
0.162473
0.162296
0.159993
0.157665
0.162352
0.16232
0.16234
0.162202
0.162033
0.161923
0.161867
0.161841
0.161844
0.161884
0.161968
0.162097
0.162276
0.162511
0.162807
0.163172
0.163612
0.164137
0.164756
0.165478
0.166313
0.167269
0.16835
0.169554
0.170854
0.172225
0.173464
0.174757
0.174371
0.175228
0.164005
0.164125
0.164301
0.164291
0.164246
0.164274
0.164366
0.164497
0.164666
0.164884
0.165159
0.165496
0.165901
0.166381
0.166945
0.167604
0.16837
0.169254
0.170273
0.171442
0.172777
0.174296
0.176012
0.177936
0.18006
0.182373
0.184732
0.187283
0.188571
0.191743
0.166031
0.166305
0.16664
0.166767
0.166857
0.167032
0.167285
0.167585
0.167934
0.168343
0.168823
0.169382
0.170025
0.170764
0.17161
0.172576
0.173677
0.17493
0.176353
0.177966
0.179793
0.181855
0.184173
0.186765
0.189635
0.192778
0.196092
0.199664
0.202341
0.20703
0.168453
0.168882
0.169378
0.169649
0.169883
0.170215
0.170637
0.171117
0.171654
0.172265
0.172961
0.17375
0.174642
0.175648
0.176782
0.17806
0.179498
0.181116
0.182935
0.184979
0.187271
0.189838
0.192705
0.19589
0.199402
0.203237
0.207317
0.211665
0.215417
0.220937
0.17128
0.171863
0.172517
0.172938
0.173323
0.173819
0.174417
0.175082
0.175815
0.176632
0.177549
0.178573
0.179715
0.180989
0.182409
0.183992
0.185757
0.187724
0.189916
0.192357
0.195073
0.198089
0.201429
0.20511
0.209139
0.213506
0.218138
0.223006
0.227481
0.233224
0.174495
0.175226
0.17603
0.176602
0.177145
0.177806
0.178581
0.179432
0.18036
0.181384
0.182518
0.183773
0.185158
0.18669
0.188382
0.190253
0.192321
0.194608
0.197135
0.199925
0.203004
0.206393
0.210113
0.214175
0.218578
0.223299
0.228262
0.233385
0.238189
0.243616
0.178043
0.17891
0.179849
0.180569
0.181269
0.182094
0.18304
0.18407
0.185187
0.186407
0.187748
0.189218
0.190831
0.192598
0.194538
0.196665
0.199
0.201562
0.20437
0.207447
0.210813
0.214485
0.218478
0.222795
0.227423
0.232322
0.237405
0.24254
0.247316
0.252079
0.181819
0.182803
0.183855
0.184714
0.185565
0.186544
0.187647
0.188843
0.190131
0.19153
0.193055
0.194718
0.196528
0.1985
0.200649
0.202991
0.205543
0.208323
0.211348
0.214636
0.218203
0.22206
0.226214
0.230657
0.235365
0.240282
0.245307
0.250266
0.254807
0.258909
0.185662
0.186738
0.187875
0.188855
0.189843
0.190959
0.192199
0.193535
0.19497
0.19652
0.1982
0.20002
0.20199
0.204124
0.206436
0.208939
0.211649
0.214581
0.217749
0.221167
0.224844
0.228787
0.232991
0.237441
0.2421
0.246896
0.251717
0.256362
0.26053
0.263906
0.189355
0.190494
0.191684
0.192763
0.193866
0.195093
0.19644
0.197887
0.199435
0.2011
0.202895
0.20483
0.206914
0.20916
0.211579
0.214184
0.216988
0.220002
0.223237
0.226703
0.230402
0.234335
0.238489
0.242838
0.247335
0.251894
0.256389
0.260597
0.264226
0.266714
0.192645
0.193816
0.195028
0.196174
0.197364
0.198669
0.200088
0.201608
0.20323
0.204967
0.206833
0.208835
0.210983
0.213286
0.215755
0.2184
0.221232
0.224259
0.227488
0.230924
0.234564
0.238401
0.242416
0.246572
0.250811
0.255034
0.259097
0.262755
0.265719
0.267389
0.195273
0.196448
0.197651
0.198832
0.200072
0.201419
0.202871
0.204422
0.206074
0.20784
0.209728
0.211748
0.213906
0.216212
0.218673
0.221299
0.224097
0.227072
0.230227
0.233563
0.237072
0.240739
0.244539
0.248427
0.252332
0.256146
0.259715
0.262778
0.265067
0.265885
0.197018
0.19817
0.199342
0.200523
0.201772
0.20312
0.204566
0.206106
0.207745
0.209493
0.211357
0.213344
0.215462
0.217718
0.220117
0.222668
0.225373
0.228237
0.231259
0.234435
0.237754
0.241196
0.244727
0.248297
0.251824
0.25519
0.258236
0.260673
0.2623
0.261892
0.197738
0.198845
0.199967
0.201113
0.20233
0.203639
0.205039
0.206527
0.208111
0.209796
0.211591
0.213501
0.215533
0.217691
0.219981
0.222408
0.224973
0.227679
0.23052
0.23349
0.236573
0.239745
0.242967
0.246178
0.249293
0.252179
0.254674
0.256433
0.257424
0.255591
0.197408
0.198451
0.19951
0.200589
0.201735
0.202966
0.204283
0.205684
0.207173
0.208757
0.210442
0.212234
0.214137
0.216155
0.218293
0.220553
0.222935
0.225439
0.228057
0.230779
0.233585
0.236446
0.239318
0.242133
0.2448
0.247172
0.249097
0.250154
0.250564
0.247415
0.196114
0.197077
0.198061
0.199047
0.200084
0.201204
0.202405
0.203685
0.205044
0.206491
0.208029
0.209664
0.2114
0.213239
0.215185
0.217237
0.219396
0.221656
0.22401
0.226443
0.228932
0.231445
0.233931
0.236317
0.238505
0.240332
0.241659
0.241955
0.241723
0.236996
0.194043
0.194906
0.195799
0.196665
0.197563
0.19854
0.199597
0.200725
0.201924
0.2032
0.204559
0.206005
0.20754
0.209166
0.210885
0.212695
0.214594
0.216575
0.218629
0.220737
0.222873
0.225
0.227061
0.228977
0.230641
0.231868
0.23253
0.231949
0.230963
0.224272
0.191446
0.192188
0.192972
0.193694
0.19443
0.19524
0.196128
0.19708
0.198093
0.199173
0.200326
0.201555
0.202861
0.204244
0.205705
0.207241
0.208848
0.210517
0.212235
0.213981
0.215726
0.217424
0.219016
0.220409
0.221489
0.222038
0.22194
0.220323
0.2184
0.209711
0.188598
0.189195
0.189846
0.190408
0.190963
0.191588
0.192288
0.193043
0.193848
0.19471
0.195635
0.196623
0.197675
0.198791
0.199968
0.201203
0.202489
0.203816
0.205166
0.206515
0.207829
0.209057
0.21013
0.210944
0.211372
0.211159
0.210204
0.207428
0.204427
0.193552
0.185751
0.186179
0.186674
0.18706
0.187425
0.187854
0.188351
0.188894
0.189477
0.190106
0.190785
0.191515
0.192295
0.193123
0.193996
0.194908
0.195849
0.196807
0.19776
0.198681
0.199529
0.200245
0.200752
0.200929
0.200636
0.199576
0.197666
0.193602
0.189382
0.175884
0.18312
0.183354
0.183665
0.183864
0.184033
0.184254
0.184534
0.18485
0.185197
0.185578
0.185999
0.186457
0.186951
0.187478
0.188032
0.188605
0.189185
0.189755
0.190292
0.19076
0.191113
0.191283
0.191182
0.19067
0.189593
0.187601
0.184627
0.179115
0.173517
0.156832
0.180864
0.180882
0.180988
0.181003
0.180983
0.181001
0.181061
0.181146
0.181251
0.18138
0.181534
0.181711
0.181909
0.182124
0.182349
0.182572
0.182778
0.182948
0.183051
0.183047
0.182881
0.182476
0.181727
0.180478
0.178551
0.175538
0.171385
0.164237
0.157107
0.136593
0.179108
0.178844
0.178682
0.178493
0.178281
0.178085
0.177897
0.177724
0.177578
0.177452
0.177337
0.17723
0.177132
0.177035
0.176931
0.176804
0.176638
0.176407
0.176076
0.175598
0.174908
0.173917
0.172505
0.170491
0.167672
0.163571
0.158148
0.14919
0.140454
0.115399
0.178094
0.177508
0.177062
0.176679
0.176351
0.176023
0.175579
0.175118
0.174703
0.17431
0.173914
0.173514
0.17311
0.172695
0.172255
0.171775
0.171231
0.170595
0.169823
0.168861
0.167634
0.166036
0.163931
0.161109
0.157339
0.152064
0.145257
0.134234
0.123986
0.0934443
0.177081
0.17598
0.175205
0.174699
0.174183
0.173538
0.172857
0.172207
0.17157
0.170926
0.170266
0.169592
0.168899
0.168179
0.167419
0.166599
0.165695
0.164674
0.163488
0.162074
0.160344
0.158179
0.15542
0.151826
0.147132
0.140696
0.132543
0.119121
0.108162
0.0707945
0.0483875
0.0252476
0.000687617
-0.0238789
-0.0475891
-0.070156
-0.0910989
-0.110052
-0.126167
-0.139074
-0.148246
-0.152874
-0.152425
-0.146722
-0.135042
-0.116444
-0.0912931
-0.0611151
-0.0305245
-0.0049422
0.0109411
0.0175572
0.0170841
0.0160039
0.0171244
0.0187722
0.0198569
0.0212768
0.0229981
0.0216957
0.0933165
0.0733783
0.0516523
0.0303637
0.00961279
-0.0105113
-0.029636
-0.0474882
-0.0636783
-0.0778139
-0.0891905
-0.0966467
-0.0990719
-0.0970314
-0.090641
-0.0788043
-0.060981
-0.0385996
-0.0149233
0.00470788
0.0159743
0.0191331
0.0173159
0.0191788
0.0222648
0.0205827
0.0177051
0.0179166
0.0204712
0.0209998
0.104275
0.0857979
0.0653634
0.0446872
0.0243732
0.00481962
-0.0141411
-0.0322199
-0.0489885
-0.0635561
-0.0751003
-0.0828438
-0.0861757
-0.08514
-0.0796462
-0.0691552
-0.053759
-0.0351099
-0.0155965
0.000153037
0.00901709
0.0124216
0.01379
0.0168106
0.0191095
0.0177842
0.0175611
0.019965
0.0233035
0.0282836
0.121199
0.104855
0.0862647
0.067625
0.0493292
0.0310203
0.0124987
-0.0055619
-0.0223612
-0.0371425
-0.0492159
-0.0579067
-0.0626339
-0.0631394
-0.0593225
-0.0511423
-0.0390987
-0.0247136
-0.010279
0.00105927
0.00817394
0.0123079
0.0147482
0.0161504
0.0166237
0.0166729
0.0180634
0.0224264
0.0285303
0.0426435
0.130838
0.116122
0.0991215
0.0821026
0.0650944
0.0476273
0.0298378
0.0123901
-0.00401568
-0.0187609
-0.0311959
-0.0406261
-0.0464208
-0.0481986
-0.0458661
-0.0395801
-0.0299607
-0.0183841
-0.00683852
0.00253876
0.00891932
0.0129014
0.0154199
0.0171841
0.0188701
0.0206068
0.0229242
0.0281699
0.036328
0.0510608
0.13871
0.125536
0.110032
0.0943508
0.0784716
0.0619192
0.044858
0.0279019
0.0117094
-0.00310099
-0.015864
-0.025874
-0.0324989
-0.0353361
-0.0342979
-0.0296221
-0.0219881
-0.0126595
-0.00331581
0.00447834
0.010061
0.0137407
0.0161913
0.0181265
0.0201429
0.0225779
0.0260554
0.0312991
0.0372681
0.0449546
0.144519
0.132677
0.118531
0.104112
0.0893813
0.0738366
0.057591
0.0412215
0.0253716
0.0106567
-0.00226578
-0.0126989
-0.0200135
-0.0237916
-0.0239292
-0.0206837
-0.0147419
-0.00726141
0.000327861
0.00678564
0.0115671
0.0148711
0.017254
0.0192945
0.0214045
0.0237941
0.0266772
0.0300757
0.0326003
0.0332029
0.149029
0.138342
0.12541
0.112115
0.098398
0.0837502
0.0682543
0.0524561
0.0369761
0.0224098
0.00939675
-0.00137658
-0.00928021
-0.0138809
-0.0150556
-0.013056
-0.00854768
-0.00258491
0.00359858
0.00897553
0.0130862
0.0160642
0.0183392
0.0203298
0.0222879
0.0242683
0.0261641
0.0275145
0.0272911
0.0246022
0.152554
0.142857
0.130998
0.118715
0.105921
0.0921076
0.0773313
0.0620998
0.0470016
0.0326108
0.0195532
0.0085088
0.000109584
-0.00519916
-0.00727665
-0.00635673
-0.00306798
0.00162884
0.00665121
0.0111228
0.0146444
0.0172924
0.0193705
0.0211568
0.0227734
0.0241461
0.025002
0.0247982
0.0228496
0.0185738
0.155367
0.146522
0.135601
0.124221
0.112264
0.0992215
0.0851251
0.0704434
0.0557312
0.0415396
0.0284799
0.0172246
0.00840634
0.00248078
-0.000392067
-0.000419519
0.00181511
0.00543556
0.00947898
0.013179
0.0161732
0.0184833
0.0203074
0.0218097
0.0230096
0.0237442
0.0236987
0.0224086
0.0194592
0.0144637
0.157655
0.149544
0.139442
0.128862
0.117661
0.105324
0.0918593
0.077699
0.0633648
0.0493835
0.0363501
0.024928
0.0157497
0.00928149
0.0057041
0.00484125
0.0061576
0.00885242
0.0120591
0.0150922
0.0176103
0.0195862
0.0211318
0.0223214
0.0231017
0.0232712
0.0225452
0.0205786
0.0172063
0.0122518
0.159556
0.152077
0.142687
0.132815
0.122295
0.110603
0.0977213
0.0840508
0.0700808
0.0563127
0.0433236
0.0317675
0.0222771
0.015329
0.0111257
0.00952361
0.0100351
0.0119267
0.01441
0.0168599
0.0189461
0.0205997
0.0218631
0.0227426
0.0231416
0.0228591
0.0216776
0.0193809
0.0160261
0.0115648
0.161171
0.154238
0.145467
0.136221
0.126313
0.115207
0.102862
0.0896478
0.0760241
0.062466
0.0495322
0.037867
0.0281028
0.0207271
0.0159641
0.0137035
0.013504
0.014692
0.0165433
0.0184787
0.0201737
0.0215241
0.0225174
0.0231122
0.023193
0.022584
0.021149
0.0187873
0.0157287
0.0119438
0.162576
0.156115
0.147882
0.139188
0.129831
0.119256
0.107402
0.0946106
0.0813119
0.0679559
0.0550824
0.0433256
0.0333178
0.0255571
0.02029
0.0174392
0.0166075
0.0171746
0.0184699
0.0199498
0.0212922
0.022364
0.0231111
0.0234612
0.023298
0.0224833
0.0209603
0.0187191
0.0161092
0.0130543
0.163826
0.157776
0.15001
0.141805
0.13294
0.122847
0.111442
0.0990387
0.0860418
0.0728764
0.0600633
0.0482265
0.0379982
0.0298876
0.0241631
0.0207802
0.0193834
0.0193999
0.0202037
0.0212795
0.0223065
0.0231287
0.0236613
0.0238144
0.023482
0.0225672
0.0210819
0.0190795
0.0169839
0.0146411
0.164963
0.159273
0.151914
0.144141
0.135717
0.12606
0.115062
0.103015
0.0902957
0.0773066
0.06455
0.0526398
0.0422084
0.0337759
0.0276333
0.0237681
0.0218636
0.0213898
0.021758
0.0224756
0.0232235
0.0238276
0.0241818
0.0241877
0.0237557
0.0228274
0.0214685
0.019768
0.0181905
0.0164908
0.16602
0.160645
0.153643
0.14625
0.138222
0.128959
0.118332
0.106608
0.0941422
0.0813132
0.0686059
0.0566247
0.0460023
0.0372704
0.0307427
0.0264376
0.0240755
0.0231638
0.0231453
0.0235465
0.0240506
0.02447
0.0246834
0.0245909
0.0241202
0.0232452
0.022069
0.0206908
0.0195921
0.018428
0.167019
0.161925
0.155235
0.14818
0.140506
0.131598
0.121307
0.109877
0.0976395
0.0849528
0.072285
0.0602316
0.0494261
0.0404121
0.0335265
0.0288184
0.0260425
0.0247392
0.0243778
0.024501
0.024796
0.0250644
0.025175
0.0250292
0.0245708
0.0237969
0.0228314
0.0217624
0.0210802
0.0203113
0.167979
0.163135
0.156722
0.149967
0.14261
0.134022
0.124035
0.11287
0.100837
0.0882738
0.0756335
0.0635036
0.052519
0.0432358
0.036015
0.0309357
0.0277849
0.0261315
0.0254666
0.0253473
0.0254671
0.0256173
0.0256607
0.0255012
0.0250959
0.0244543
0.0237049
0.0229066
0.022555
0.0220464
0.168913
0.164297
0.158128
0.15164
0.144567
0.136268
0.126556
0.115631
0.103778
0.0913179
0.0786911
0.0664777
0.0553144
0.0457708
0.0382335
0.032811
0.0293205
0.0273551
0.0264227
0.0260936
0.0260726
0.0261389
0.0261508
0.0260126
0.0256904
0.0251955
0.0246467
0.02406
0.0239433
0.0235576
0.169828
0.165423
0.159473
0.153225
0.146406
0.138366
0.128904
0.118194
0.106498
0.0941211
0.081492
0.0691856
0.0578411
0.0480424
0.0402034
0.0344617
0.030663
0.0284195
0.0272536
0.0267451
0.0266113
0.0266177
0.0266291
0.0265435
0.0263295
0.0259865
0.0256126
0.0251661
0.0251763
0.024779
0.170726
0.166522
0.160776
0.154743
0.14815
0.140343
0.131108
0.12059
0.109029
0.0967146
0.0840659
0.0716547
0.0601238
0.0500728
0.0419455
0.0359078
0.0318329
0.029342
0.0279727
0.0273219
0.0271231
0.0271034
0.0271429
0.0271265
0.0270241
0.0268208
0.0265753
0.0261769
0.026191
0.0256518
0.171607
0.167599
0.162049
0.156214
0.149819
0.142221
0.133193
0.122847
0.111399
0.0991264
0.086439
0.0739079
0.0621795
0.0518719
0.0434634
0.0371457
0.0328223
0.0301156
0.0285628
0.0277651
0.02751
0.0274854
0.0275984
0.0276873
0.0277213
0.0276553
0.0274894
0.027037
0.0269233
0.0261214
0.172469
0.168654
0.163303
0.15765
0.151429
0.14402
0.13518
0.124987
0.113632
0.10138
0.0886382
0.0759788
0.0640487
0.053484
0.0448071
0.0382338
0.0336916
0.0308034
0.0291395
0.0282813
0.0280287
0.0280081
0.0281532
0.0283349
0.0284834
0.0285142
0.0283426
0.027702
0.027316
0.0261524
0.17331
0.169691
0.164544
0.159064
0.152994
0.145754
0.13709
0.127032
0.115746
0.103483
0.0906464
0.0778256
0.0656749
0.0548381
0.0458803
0.0390582
0.0343129
0.0312098
0.0293658
0.028423
0.0281642
0.0283045
0.0285672
0.0288972
0.0291976
0.0293276
0.0290786
0.028105
0.0272856
0.0257002
0.174119
0.170713
0.165785
0.160466
0.154521
0.147433
0.138939
0.129021
0.117815
0.105555
0.0926327
0.079636
0.0672503
0.0561803
0.0469627
0.0399344
0.0350845
0.031906
0.0299897
0.029053
0.0286846
0.0288355
0.0291747
0.0296055
0.0300014
0.0301477
0.0296796
0.0281969
0.0267345
0.0246401
0.17487
0.171707
0.16703
0.161872
0.156018
0.149042
0.140655
0.1308
0.119587
0.10726
0.0942165
0.080999
0.0683294
0.0569714
0.0474401
0.0401433
0.0350928
0.0317538
0.0297392
0.0289003
0.028758
0.029041
0.0295534
0.0301731
0.030743
0.030918
0.030075
0.0278902
0.025546
0.0228033
0.175564
0.172645
0.168287
0.163335
0.157657
0.150879
0.142683
0.132966
0.121799
0.109432
0.096278
0.0828781
0.0699785
0.0583612
0.0485722
0.0411507
0.0360025
0.0324914
0.0303188
0.0293588
0.029233
0.0295797
0.0302126
0.030963
0.0316563
0.0318573
0.0304182
0.0271296
0.0234575
0.0201428
0.176186
0.1735
0.169311
0.164391
0.158732
0.151967
0.143806
0.13409
0.122853
0.110327
0.096954
0.0833087
0.0701446
0.05828
0.0482533
0.0407814
0.0356746
0.0321741
0.0300784
0.0292505
0.0292488
0.0297313
0.030523
0.0314759
0.0322788
0.0323435
0.0302618
0.0256034
0.020398
0.0164215
0.176887
0.174741
0.171153
0.166583
0.161147
0.154631
0.146721
0.137195
0.126027
0.113404
0.0997463
0.0857115
0.0720689
0.0596962
0.0492352
0.0413179
0.0359025
0.0322846
0.0302093
0.0294779
0.0296367
0.0303411
0.0314018
0.0326921
0.0336417
0.0330819
0.0295711
0.0234136
0.0178389
0.014862
-0.0117843
-0.00854345
-0.00301302
-0.00153304
0.00552194
0.02457
0.0451603
0.0631389
0.0780141
0.0904966
0.100807
0.109235
0.116179
0.121952
0.126782
0.130841
0.134264
0.137152
0.139581
0.141612
0.143298
0.14468
0.145816
0.146732
0.14753
0.148189
0.148959
0.149526
0.150561
0.14939
-0.0146191
-0.0125208
-0.00975791
-0.00999946
-0.00610942
0.0108794
0.0353611
0.0556784
0.0724135
0.0863237
0.0977245
0.107005
0.114624
0.120935
0.126196
0.13061
0.134339
0.137503
0.140188
0.142457
0.14436
0.145928
0.147205
0.148199
0.148973
0.14949
0.149906
0.150037
0.150362
0.150032
-0.0195759
-0.020585
-0.0216573
-0.0214448
-0.0192835
-0.00598641
0.0191677
0.044044
0.0639784
0.0801433
0.0931733
0.103638
0.112164
0.119213
0.125082
0.129994
0.134136
0.137657
0.140662
0.14323
0.145417
0.147256
0.148779
0.149999
0.150947
0.151617
0.152077
0.152291
0.152494
0.152541
-0.0262306
-0.0324135
-0.0375232
-0.0386014
-0.0358824
-0.0237586
0.00105854
0.0299469
0.0549447
0.0744762
0.0896886
0.101537
0.110971
0.118689
0.125092
0.130438
0.134938
0.138753
0.142007
0.144799
0.147199
0.149254
0.150997
0.152449
0.153632
0.154549
0.155224
0.155646
0.155867
0.155905
-0.0323976
-0.0442975
-0.0539782
-0.0588234
-0.056106
-0.0439927
-0.0204276
0.0114393
0.042418
0.0667582
0.0854282
0.0994476
0.110143
0.118644
0.12556
0.131282
0.136098
0.140182
0.143667
0.146663
0.149254
0.151497
0.153434
0.15509
0.156483
0.15762
0.158509
0.159147
0.159542
0.159732
-0.0341929
-0.0513308
-0.0664372
-0.0767896
-0.0768944
-0.0659818
-0.0440644
-0.0117867
0.0241481
0.0554699
0.0787785
0.096188
0.108881
0.118705
0.12636
0.132486
0.13758
0.141884
0.145556
0.148726
0.151487
0.153905
0.156026
0.157882
0.159493
0.160867
0.162007
0.162913
0.163582
0.164041
-0.0283881
-0.0501102
-0.0707002
-0.087229
-0.0924447
-0.0852698
-0.0662462
-0.0357451
0.00203903
0.0389549
0.0694845
0.0912721
0.106949
0.118946
0.127741
0.134459
0.139897
0.144379
0.148148
0.151389
0.154225
0.156737
0.158978
0.160988
0.162789
0.164392
0.1658
0.167004
0.168001
0.168801
-0.0141707
-0.0391241
-0.0654299
-0.0873248
-0.0982148
-0.0966332
-0.0824251
-0.0556669
-0.0192508
0.0203197
0.0558755
0.083913
0.105
0.119739
0.129937
0.137489
0.143393
0.148041
0.15181
0.154985
0.157751
0.160215
0.162445
0.164489
0.166376
0.168123
0.169735
0.171206
0.17253
0.173718
0.00556962
-0.01963
-0.049327
-0.0764017
-0.0936414
-0.0979845
-0.0888734
-0.0666279
-0.0342916
0.00417846
0.0422877
0.0752461
0.101007
0.119842
0.133272
0.142621
0.149089
0.153757
0.157332
0.160215
0.162655
0.164814
0.166795
0.168659
0.170443
0.172166
0.173838
0.175457
0.17701
0.178502
0.0248328
0.0021535
-0.0273263
-0.0561976
-0.0776406
-0.0881242
-0.0852672
-0.0688621
-0.0409924
-0.00567309
0.031715
0.0667422
0.09643
0.119674
0.136722
0.148559
0.156486
0.161729
0.16525
0.16775
0.169663
0.171242
0.172641
0.173971
0.175308
0.176704
0.178189
0.179777
0.181462
0.183234
0.0370271
0.0192864
-0.00720835
-0.0346298
-0.0573761
-0.0712916
-0.0735102
-0.0632467
-0.0413957
-0.0109846
0.0236782
0.0584381
0.0901749
0.116919
0.137908
0.153371
0.164065
0.171032
0.175296
0.17775
0.179165
0.18008
0.180738
0.181221
0.18164
0.182137
0.182811
0.183701
0.184824
0.186271
0.0345316
0.0247484
0.00367939
-0.0200504
-0.0420794
-0.0568456
-0.0620482
-0.0571542
-0.0409065
-0.0159227
0.0144316
0.0471548
0.0789768
0.107503
0.131539
0.150837
0.165546
0.176017
0.182945
0.18706
0.189153
0.189974
0.190174
0.190161
0.190109
0.190113
0.190215
0.190297
0.190262
0.190127
0.0145333
0.014568
-0.00022246
-0.0190421
-0.0384567
-0.0530333
-0.0606494
-0.0589642
-0.0480464
-0.0299008
-0.00482162
0.0250993
0.0563904
0.0863632
0.113076
0.13557
0.153631
0.167557
0.177951
0.185428
0.190407
0.19332
0.194781
0.195324
0.195283
0.194955
0.194654
0.194617
0.194823
0.195446
-0.0197154
-0.00870775
-0.0186257
-0.0326991
-0.0492813
-0.0638241
-0.0741599
-0.076708
-0.0697614
-0.0559179
-0.0364385
-0.0112511
0.0174402
0.0472883
0.0761216
0.102263
0.12469
0.143042
0.157478
0.16847
0.176645
0.182524
0.186726
0.189512
0.191236
0.19229
0.192914
0.193379
0.193775
0.19449
-0.0610054
-0.0412083
-0.047202
-0.0573742
-0.0717306
-0.0857669
-0.0972452
-0.103771
-0.104134
-0.0979118
-0.0843775
-0.064507
-0.0398178
-0.0114042
0.0181253
0.047066
0.0738416
0.0973352
0.117062
0.133051
0.14568
0.15548
0.163004
0.16876
0.173118
0.176354
0.17879
0.180672
0.18215
0.183404
-0.101094
-0.0752392
-0.0795617
-0.0866338
-0.0997384
-0.114013
-0.127498
-0.138135
-0.144451
-0.145293
-0.139885
-0.128252
-0.110507
-0.0871392
-0.0599759
-0.0302545