/*--------------------------------*- C++ -*----------------------------------*\
  =========                 |
  \\      /  F ield         | OpenFOAM: The Open Source CFD Toolbox
   \\    /   O peration     | Website:  https://openfoam.org
    \\  /    A nd           | Version:  11
     \\/     M anipulation  |
\*---------------------------------------------------------------------------*/
FoamFile
{
    format      ascii;
    class       volVectorField;
    location    "7.1";
    object      U;
}
// * * * * * * * * * * * * * * * * * * * * * * * * * * * * * * * * * * * * * //

dimensions      [0 1 -1 0 0 0 0];

internalField   nonuniform List<vector> 
12600
(
(0.412286 6.18674e-05 0)
(0.412183 0.000119969 0)
(0.412 0.000136214 0)
(0.411775 0.000141301 0)
(0.411548 0.000145192 0)
(0.411328 0.000147537 0)
(0.411113 0.000147277 0)
(0.410903 0.000144018 0)
(0.410705 0.000136787 0)
(0.410527 0.000125864 0)
(0.410377 0.00011232 0)
(0.410268 9.60182e-05 0)
(0.410211 7.90318e-05 0)
(0.410217 5.15137e-05 0)
(0.410303 1.07262e-05 0)
(0.41049 -4.71102e-05 0)
(0.410797 -0.000101888 0)
(0.411246 -0.000164389 0)
(0.411863 -0.000236556 0)
(0.412669 -0.000308805 0)
(0.413689 -0.000386865 0)
(0.414973 -0.000488287 0)
(0.416582 -0.000620059 0)
(0.418577 -0.000782469 0)
(0.421024 -0.000976842 0)
(0.424 -0.00120246 0)
(0.427597 -0.00147198 0)
(0.431881 -0.0017388 0)
(0.437004 -0.00220327 0)
(0.443506 -0.0019852 0)
(0.412482 7.95422e-05 0)
(0.412572 0.000174707 0)
(0.412692 0.000169347 0)
(0.412765 0.000168393 0)
(0.412825 0.000171391 0)
(0.412888 0.000170111 0)
(0.412954 0.00016437 0)
(0.413024 0.000154542 0)
(0.4131 0.000139258 0)
(0.413188 0.000114238 0)
(0.413294 7.73326e-05 0)
(0.413428 2.80214e-05 0)
(0.413598 -3.58688e-05 0)
(0.413816 -0.000114362 0)
(0.414094 -0.000206657 0)
(0.414443 -0.000314632 0)
(0.414877 -0.000445733 0)
(0.415425 -0.000605888 0)
(0.416072 -0.000800246 0)
(0.41691 -0.00103718 0)
(0.418045 -0.00132231 0)
(0.419438 -0.0016566 0)
(0.421116 -0.00204493 0)
(0.42313 -0.0024989 0)
(0.425534 -0.00303254 0)
(0.4284 -0.00365518 0)
(0.431815 -0.00438556 0)
(0.435849 -0.00517326 0)
(0.440682 -0.0062639 0)
(0.446018 -0.00649548 0)
(0.412472 2.90491e-05 0)
(0.412519 5.69806e-05 0)
(0.412594 5.97995e-05 0)
(0.412667 6.20216e-05 0)
(0.412733 6.70461e-05 0)
(0.412796 6.82233e-05 0)
(0.412859 6.35522e-05 0)
(0.412924 5.33542e-05 0)
(0.412992 3.16018e-05 0)
(0.413068 -3.76917e-06 0)
(0.41316 -5.50308e-05 0)
(0.413277 -0.000123583 0)
(0.413429 -0.000211598 0)
(0.413631 -0.000323112 0)
(0.413896 -0.000463361 0)
(0.414242 -0.000637368 0)
(0.414688 -0.000848053 0)
(0.415257 -0.0010968 0)
(0.415976 -0.0013992 0)
(0.416858 -0.00178412 0)
(0.417921 -0.00225182 0)
(0.419205 -0.00278622 0)
(0.420765 -0.00339685 0)
(0.422656 -0.00411022 0)
(0.424935 -0.00495199 0)
(0.427677 -0.00594048 0)
(0.430951 -0.00710275 0)
(0.434903 -0.00839861 0)
(0.439486 -0.0100626 0)
(0.445363 -0.0109605 0)
(0.412468 5.79841e-06 0)
(0.412502 2.40997e-05 0)
(0.412563 3.46817e-05 0)
(0.412628 4.06906e-05 0)
(0.412689 5.13628e-05 0)
(0.412748 5.45573e-05 0)
(0.412806 4.8896e-05 0)
(0.412866 3.64566e-05 0)
(0.412929 1.31458e-05 0)
(0.412999 -2.80742e-05 0)
(0.413084 -9.21985e-05 0)
(0.413192 -0.00018349 0)
(0.413334 -0.000306079 0)
(0.413523 -0.000464166 0)
(0.413774 -0.000661771 0)
(0.4141 -0.000903441 0)
(0.41452 -0.00119534 0)
(0.415053 -0.00154603 0)
(0.415721 -0.00196874 0)
(0.416545 -0.00247835 0)
(0.417545 -0.00308205 0)
(0.418754 -0.00378812 0)
(0.420218 -0.00461757 0)
(0.421993 -0.00559784 0)
(0.424136 -0.00675777 0)
(0.426727 -0.00812317 0)
(0.429833 -0.0097342 0)
(0.433628 -0.0115556 0)
(0.438031 -0.0138371 0)
(0.443884 -0.0154927 0)
(0.412466 -8.66741e-06 0)
(0.412492 -1.05833e-05 0)
(0.41254 -9.00199e-06 0)
(0.412595 -7.50295e-06 0)
(0.41265 -4.95255e-06 0)
(0.412704 -3.48913e-06 0)
(0.412758 -7.67686e-06 0)
(0.412812 -2.26851e-05 0)
(0.412869 -5.39773e-05 0)
(0.412935 -0.000106562 0)
(0.413014 -0.000185836 0)
(0.413114 -0.000297967 0)
(0.413246 -0.000448474 0)
(0.41342 -0.000642918 0)
(0.413649 -0.00088727 0)
(0.413948 -0.00118823 0)
(0.414332 -0.00155348 0)
(0.414818 -0.00199222 0)
(0.415426 -0.00251701 0)
(0.416175 -0.00314397 0)
(0.417086 -0.00388852 0)
(0.418191 -0.00476651 0)
(0.419531 -0.00580138 0)
(0.421156 -0.00702535 0)
(0.423122 -0.00847696 0)
(0.425512 -0.0101945 0)
(0.428389 -0.0122308 0)
(0.431952 -0.0145722 0)
(0.43609 -0.0174598 0)
(0.441811 -0.0199515 0)
(0.412465 -1.97351e-05 0)
(0.412486 -3.83614e-05 0)
(0.412525 -4.41945e-05 0)
(0.412573 -4.42484e-05 0)
(0.412623 -4.03351e-05 0)
(0.412672 -3.6916e-05 0)
(0.41272 -4.04824e-05 0)
(0.41277 -5.57779e-05 0)
(0.412823 -8.78632e-05 0)
(0.412881 -0.000145457 0)
(0.412951 -0.000235573 0)
(0.41304 -0.000365646 0)
(0.413157 -0.000542339 0)
(0.413312 -0.000772028 0)
(0.413517 -0.00106128 0)
(0.413783 -0.00141728 0)
(0.414124 -0.00184856 0)
(0.414556 -0.00236578 0)
(0.415093 -0.00298271 0)
(0.415755 -0.00371642 0)
(0.416561 -0.00458597 0)
(0.417538 -0.00561391 0)
(0.418723 -0.0068309 0)
(0.42016 -0.00827689 0)
(0.421903 -0.0100001 0)
(0.424033 -0.0120519 0)
(0.426614 -0.0145 0)
(0.429861 -0.0173586 0)
(0.433638 -0.0208596 0)
(0.439116 -0.0242256 0)
(0.412464 -2.89411e-05 0)
(0.412481 -6.08226e-05 0)
(0.412515 -7.39531e-05 0)
(0.412556 -7.69304e-05 0)
(0.4126 -7.46663e-05 0)
(0.412643 -7.23426e-05 0)
(0.412686 -7.66e-05 0)
(0.41273 -9.35668e-05 0)
(0.412776 -0.000130251 0)
(0.412827 -0.000195248 0)
(0.412888 -0.000297197 0)
(0.412965 -0.00044437 0)
(0.413066 -0.000644371 0)
(0.4132 -0.000904518 0)
(0.413376 -0.00123221 0)
(0.413604 -0.00163551 0)
(0.413897 -0.00212388 0)
(0.414266 -0.00270895 0)
(0.414723 -0.0034054 0)
(0.415285 -0.00423169 0)
(0.415969 -0.00521032 0)
(0.416796 -0.00636934 0)
(0.417798 -0.00774545 0)
(0.419013 -0.00938581 0)
(0.42049 -0.0113489 0)
(0.422306 -0.0137011 0)
(0.424519 -0.0165279 0)
(0.427361 -0.0198778 0)
(0.430671 -0.0239749 0)
(0.435767 -0.0282448 0)
(0.412463 -3.66686e-05 0)
(0.412478 -7.99143e-05 0)
(0.412507 -9.9742e-05 0)
(0.412542 -0.000105924 0)
(0.41258 -0.00010472 0)
(0.412618 -0.00010236 0)
(0.412655 -0.000106745 0)
(0.412693 -0.000124636 0)
(0.412733 -0.000163 0)
(0.412776 -0.000231782 0)
(0.412827 -0.000341683 0)
(0.41289 -0.000502046 0)
(0.412973 -0.000721088 0)
(0.413084 -0.00100659 0)
(0.413229 -0.00136639 0)
(0.413416 -0.00180898 0)
(0.413655 -0.00234431 0)
(0.413955 -0.00298462 0)
(0.414326 -0.00374543 0)
(0.414778 -0.00464655 0)
(0.415326 -0.00571312 0)
(0.415986 -0.00697743 0)
(0.41678 -0.0084818 0)
(0.417742 -0.010281 0)
(0.41891 -0.0124443 0)
(0.420355 -0.0150543 0)
(0.422128 -0.0182163 0)
(0.424465 -0.0220185 0)
(0.427186 -0.0266821 0)
(0.431723 -0.0318728 0)
(0.412463 -4.32016e-05 0)
(0.412475 -9.61193e-05 0)
(0.4125 -0.000121782 0)
(0.41253 -0.000130826 0)
(0.412562 -0.000130442 0)
(0.412594 -0.000128037 0)
(0.412626 -0.000132748 0)
(0.412658 -0.000151297 0)
(0.412691 -0.000191026 0)
(0.412726 -0.000263321 0)
(0.412766 -0.000380226 0)
(0.412815 -0.000551749 0)
(0.41288 -0.000786445 0)
(0.412965 -0.0010924 0)
(0.413077 -0.00147777 0)
(0.413221 -0.00195132 0)
(0.413404 -0.00252323 0)
(0.413631 -0.00320606 0)
(0.413908 -0.00401579 0)
(0.414244 -0.00497312 0)
(0.414644 -0.00610501 0)
(0.415121 -0.00744692 0)
(0.415689 -0.00904576 0)
(0.41637 -0.0109631 0)
(0.417192 -0.0132783 0)
(0.418215 -0.0160903 0)
(0.419475 -0.0195252 0)
(0.421205 -0.0237157 0)
(0.423204 -0.0288846 0)
(0.426965 -0.034976 0)
(0.412462 -4.87232e-05 0)
(0.412473 -0.000109833 0)
(0.412493 -0.000140411 0)
(0.412519 -0.000151983 0)
(0.412546 -0.000152288 0)
(0.412573 -0.000149653 0)
(0.412599 -0.000154464 0)
(0.412625 -0.00017328 0)
(0.412651 -0.00021343 0)
(0.412678 -0.00028744 0)
(0.412707 -0.000408724 0)
(0.412742 -0.000587942 0)
(0.412788 -0.000833791 0)
(0.412848 -0.00115442 0)
(0.412925 -0.00155802 0)
(0.413025 -0.00205331 0)
(0.413149 -0.00265037 0)
(0.4133 -0.0033616 0)
(0.413482 -0.00420294 0)
(0.413695 -0.00519533 0)
(0.413942 -0.00636661 0)
(0.414227 -0.00775411 0)
(0.414553 -0.00940801 0)
(0.414933 -0.0113952 0)
(0.415379 -0.0138042 0)
(0.415934 -0.0167484 0)
(0.416616 -0.020375 0)
(0.417634 -0.0248625 0)
(0.418776 -0.0304397 0)
(0.421507 -0.037356 0)
(0.412462 -5.32572e-05 0)
(0.412471 -0.000121408 0)
(0.412488 -0.000155871 0)
(0.412508 -0.000169455 0)
(0.41253 -0.000170382 0)
(0.412552 -0.00016739 0)
(0.412573 -0.000172004 0)
(0.412593 -0.000190515 0)
(0.412613 -0.000230089 0)
(0.412631 -0.000304461 0)
(0.41265 -0.000428167 0)
(0.412671 -0.000612144 0)
(0.412698 -0.000865004 0)
(0.412733 -0.00119477 0)
(0.412777 -0.00160944 0)
(0.412831 -0.00211741 0)
(0.412897 -0.00272827 0)
(0.412972 -0.0034538 0)
(0.413057 -0.00430932 0)
(0.413147 -0.00531519 0)
(0.413238 -0.00649905 0)
(0.413326 -0.00789862 0)
(0.413404 -0.00956552 0)
(0.413469 -0.0115698 0)
(0.413518 -0.0140062 0)
(0.413571 -0.017 0)
(0.413621 -0.0207165 0)
(0.413833 -0.0253773 0)
(0.413989 -0.0312198 0)
(0.415415 -0.0388074 0)
(0.412462 -5.69413e-05 0)
(0.412468 -0.000130838 0)
(0.412482 -0.000168433 0)
(0.412499 -0.000183536 0)
(0.412516 -0.000184918 0)
(0.412533 -0.000181345 0)
(0.412549 -0.000185305 0)
(0.412564 -0.000203266 0)
(0.412577 -0.000241492 0)
(0.412588 -0.000314809 0)
(0.412596 -0.000438802 0)
(0.412605 -0.000624411 0)
(0.412614 -0.000879969 0)
(0.412624 -0.00121319 0)
(0.412635 -0.00163165 0)
(0.412646 -0.00214311 0)
(0.412654 -0.00275626 0)
(0.412656 -0.00348179 0)
(0.412646 -0.00433368 0)
(0.412615 -0.00533087 0)
(0.412552 -0.00649948 0)
(0.412445 -0.00787594 0)
(0.412274 -0.00951104 0)
(0.412023 -0.0114751 0)
(0.411668 -0.0138653 0)
(0.411201 -0.0168137 0)
(0.410583 -0.0204982 0)
(0.409916 -0.0251756 0)
(0.408979 -0.0310905 0)
(0.408831 -0.0391 0)
(0.412461 -5.97463e-05 0)
(0.412466 -0.000138285 0)
(0.412477 -0.000178391 0)
(0.412489 -0.000194306 0)
(0.412502 -0.000196195 0)
(0.412515 -0.000192032 0)
(0.412527 -0.000195009 0)
(0.412536 -0.000211756 0)
(0.412544 -0.000247751 0)
(0.412548 -0.000318799 0)
(0.412547 -0.00044114 0)
(0.412543 -0.000625443 0)
(0.412536 -0.000879615 0)
(0.412523 -0.00121089 0)
(0.412503 -0.00162616 0)
(0.412473 -0.00213227 0)
(0.412428 -0.00273667 0)
(0.41236 -0.00344842 0)
(0.412259 -0.0042795 0)
(0.412114 -0.00524642 0)
(0.411905 -0.00637253 0)
(0.41161 -0.00769103 0)
(0.411201 -0.00924932 0)
(0.410643 -0.0111144 0)
(0.409893 -0.0133809 0)
(0.408907 -0.0161809 0)
(0.407614 -0.0196959 0)
(0.406029 -0.0242036 0)
(0.403934 -0.0299495 0)
(0.401989 -0.0380267 0)
(0.412461 -6.17788e-05 0)
(0.412464 -0.000143681 0)
(0.412472 -0.000185912 0)
(0.412481 -0.000202023 0)
(0.41249 -0.000204593 0)
(0.412499 -0.000199267 0)
(0.412506 -0.000201124 0)
(0.412511 -0.000216537 0)
(0.412514 -0.000249679 0)
(0.412511 -0.000317347 0)
(0.412503 -0.000436169 0)
(0.412489 -0.000616358 0)
(0.412466 -0.000865263 0)
(0.412433 -0.00118947 0)
(0.412385 -0.001595 0)
(0.412318 -0.00208748 0)
(0.412223 -0.00267276 0)
(0.412091 -0.00335781 0)
(0.411908 -0.00415194 0)
(0.411657 -0.00506832 0)
(0.411314 -0.0061261 0)
(0.410849 -0.0073534 0)
(0.41022 -0.00879138 0)
(0.409378 -0.0104997 0)
(0.408257 -0.0125648 0)
(0.40678 -0.0151101 0)
(0.40484 -0.018309 0)
(0.402348 -0.0224398 0)
(0.399092 -0.0277369 0)
(0.395222 -0.0354305 0)
(0.41246 -6.30472e-05 0)
(0.412462 -0.00014724 0)
(0.412467 -0.000191133 0)
(0.412473 -0.000207096 0)
(0.412478 -0.000210133 0)
(0.412484 -0.000203712 0)
(0.412488 -0.000204535 0)
(0.412489 -0.000218015 0)
(0.412487 -0.000247686 0)
(0.412479 -0.000311133 0)
(0.412465 -0.000424857 0)
(0.412442 -0.000598431 0)
(0.412407 -0.00083857 0)
(0.412356 -0.00115109 0)
(0.412283 -0.00154094 0)
(0.412183 -0.00201233 0)
(0.412045 -0.00256917 0)
(0.411857 -0.00321595 0)
(0.411603 -0.00395873 0)
(0.41126 -0.00480644 0)
(0.4108 -0.00577285 0)
(0.410184 -0.00687905 0)
(0.409364 -0.00815728 0)
(0.408274 -0.00965581 0)
(0.406829 -0.0114465 0)
(0.404916 -0.0136351 0)
(0.402393 -0.016373 0)
(0.399066 -0.0199143 0)
(0.394725 -0.0244644 0)
(0.388955 -0.031257 0)
(0.41246 -6.35982e-05 0)
(0.412461 -0.000149126 0)
(0.412463 -0.000194013 0)
(0.412465 -0.000209948 0)
(0.412468 -0.000213071 0)
(0.41247 -0.000206041 0)
(0.412472 -0.000205358 0)
(0.41247 -0.000216482 0)
(0.412464 -0.000242647 0)
(0.412453 -0.000301303 0)
(0.412434 -0.000408561 0)
(0.412403 -0.000573292 0)
(0.412358 -0.000801562 0)
(0.412292 -0.00109833 0)
(0.4122 -0.00146735 0)
(0.412072 -0.00191118 0)
(0.411898 -0.00243161 0)
(0.411664 -0.00303031 0)
(0.41135 -0.00370959 0)
(0.410931 -0.00447352 0)
(0.410375 -0.00532934 0)
(0.409639 -0.00628958 0)
(0.408664 -0.00737504 0)
(0.407374 -0.00861882 0)
(0.405667 -0.0100725 0)
(0.403402 -0.0118147 0)
(0.400404 -0.0139609 0)
(0.39638 -0.0167147 0)
(0.391124 -0.0202314 0)
(0.383669 -0.0255939 0)
(0.41246 -6.34964e-05 0)
(0.412459 -0.000149372 0)
(0.412458 -0.000194986 0)
(0.412458 -0.000210818 0)
(0.412458 -0.000213632 0)
(0.412459 -0.000207798 0)
(0.412458 -0.000203669 0)
(0.412454 -0.00021241 0)
(0.412445 -0.000235215 0)
(0.412431 -0.000288769 0)
(0.412409 -0.000388511 0)
(0.412374 -0.00054261 0)
(0.412321 -0.00075646 0)
(0.412244 -0.00103412 0)
(0.412136 -0.00137804 0)
(0.411987 -0.00178905 0)
(0.411786 -0.00226667 0)
(0.411515 -0.00280954 0)
(0.411155 -0.00341599 0)
(0.410679 -0.00408467 0)
(0.410053 -0.00481559 0)
(0.409228 -0.0056115 0)
(0.408142 -0.00647987 0)
(0.406711 -0.00743562 0)
(0.404822 -0.00850514 0)
(0.402311 -0.00973225 0)
(0.398982 -0.0111841 0)
(0.394466 -0.0129895 0)
(0.388554 -0.0152339 0)
(0.379837 -0.0186989 0)
(0.41246 -6.27662e-05 0)
(0.412457 -0.000148141 0)
(0.412455 -0.000194178 0)
(0.412453 -0.000209922 0)
(0.412451 -0.000212717 0)
(0.412449 -0.00020722 0)
(0.412446 -0.00020061 0)
(0.412441 -0.000207252 0)
(0.412431 -0.000226548 0)
(0.412416 -0.000274775 0)
(0.412392 -0.000366151 0)
(0.412354 -0.000508168 0)
(0.412296 -0.000705598 0)
(0.412212 -0.000961543 0)
(0.412093 -0.00127711 0)
(0.41193 -0.00165137 0)
(0.411708 -0.00208153 0)
(0.411413 -0.00256318 0)
(0.411022 -0.00309054 0)
(0.41051 -0.00365671 0)
(0.409838 -0.00425409 0)
(0.408961 -0.00487499 0)
(0.407813 -0.00551246 0)
(0.406308 -0.00616135 0)
(0.404326 -0.0068198 0)
(0.401697 -0.00749148 0)
(0.39821 -0.00818678 0)
(0.393456 -0.00894104 0)
(0.387226 -0.00975715 0)
(0.377846 -0.0109975 0)
(0.412459 -6.14943e-05 0)
(0.412456 -0.000145507 0)
(0.412451 -0.000191955 0)
(0.412448 -0.000207719 0)
(0.412444 -0.000210637 0)
(0.412441 -0.000205276 0)
(0.412437 -0.000197119 0)
(0.412431 -0.000201758 0)
(0.412422 -0.000217139 0)
(0.412406 -0.000259832 0)
(0.412382 -0.000342729 0)
(0.412343 -0.000471813 0)
(0.412284 -0.000651426 0)
(0.412196 -0.000883809 0)
(0.412071 -0.00116877 0)
(0.411899 -0.00150369 0)
(0.411667 -0.00188357 0)
(0.411358 -0.00230107 0)
(0.410952 -0.00274643 0)
(0.410422 -0.0032073 0)
(0.409734 -0.00366861 0)
(0.408841 -0.00411223 0)
(0.407682 -0.00451665 0)
(0.406171 -0.00485618 0)
(0.404194 -0.00509971 0)
(0.40158 -0.00520863 0)
(0.398127 -0.00513512 0)
(0.393418 -0.00481184 0)
(0.387254 -0.00414817 0)
(0.377924 -0.00303529 0)
(0.412459 -5.98179e-05 0)
(0.412455 -0.000141844 0)
(0.412449 -0.000188402 0)
(0.412444 -0.000204797 0)
(0.412439 -0.000207606 0)
(0.412435 -0.000202414 0)
(0.412431 -0.000193191 0)
(0.412426 -0.000196074 0)
(0.412417 -0.00020856 0)
(0.412402 -0.000245423 0)
(0.41238 -0.000319498 0)
(0.412342 -0.000435199 0)
(0.412283 -0.000596231 0)
(0.412194 -0.000803997 0)
(0.412069 -0.00105714 0)
(0.411894 -0.00135152 0)
(0.411659 -0.00168013 0)
(0.411348 -0.00203299 0)
(0.410941 -0.00239672 0)
(0.410414 -0.00275403 0)
(0.409736 -0.00308289 0)
(0.408864 -0.00335551 0)
(0.407743 -0.00353666 0)
(0.406295 -0.0035813 0)
(0.404416 -0.00342995 0)
(0.401952 -0.0030045 0)
(0.398719 -0.00219406 0)
(0.394346 -0.000844992 0)
(0.38864 0.00121946 0)
(0.380086 0.00457198 0)
(0.412459 -5.77638e-05 0)
(0.412454 -0.000137502 0)
(0.412447 -0.000183702 0)
(0.412441 -0.000201323 0)
(0.412436 -0.00020411 0)
(0.412432 -0.000199231 0)
(0.412429 -0.000190477 0)
(0.412424 -0.000190245 0)
(0.412416 -0.00020032 0)
(0.412404 -0.000232929 0)
(0.412384 -0.000297879 0)
(0.412349 -0.000399897 0)
(0.412293 -0.000542108 0)
(0.412207 -0.000724979 0)
(0.412084 -0.000946102 0)
(0.411913 -0.00120004 0)
(0.411683 -0.00147816 0)
(0.411379 -0.00176825 0)
(0.410985 -0.00205394 0)
(0.410479 -0.00231373 0)
(0.409835 -0.00251973 0)
(0.409017 -0.00263581 0)
(0.407979 -0.00261503 0)
(0.406656 -0.00239537 0)
(0.404964 -0.00189294 0)
(0.402776 -0.000993528 0)
(0.399937 0.000460083 0)
(0.396147 0.00270422 0)
(0.391243 0.00598455 0)
(0.384115 0.0112459 0)
(0.412459 -5.54891e-05 0)
(0.412454 -0.000132813 0)
(0.412447 -0.000178671 0)
(0.41244 -0.000197381 0)
(0.412436 -0.000200451 0)
(0.412432 -0.00019633 0)
(0.412429 -0.000188372 0)
(0.412426 -0.000185752 0)
(0.412421 -0.000194329 0)
(0.412412 -0.000222446 0)
(0.412395 -0.000278522 0)
(0.412364 -0.000367228 0)
(0.412312 -0.000490869 0)
(0.412233 -0.000649137 0)
(0.412116 -0.000838795 0)
(0.411953 -0.00105345 0)
(0.411734 -0.00128322 0)
(0.411447 -0.00151429 0)
(0.411077 -0.00172806 0)
(0.410607 -0.00189993 0)
(0.410018 -0.00199754 0)
(0.409281 -0.00197845 0)
(0.408364 -0.00178655 0)
(0.407219 -0.00134774 0)
(0.405785 -0.00055659 0)
(0.403971 0.000724178 0)
(0.401663 0.0026833 0)
(0.398672 0.00562602 0)
(0.39485 0.00985291 0)
(0.389628 0.0165265 0)
(0.412459 -5.31703e-05 0)
(0.412454 -0.000128167 0)
(0.412447 -0.000173437 0)
(0.412441 -0.000193868 0)
(0.412438 -0.000197334 0)
(0.412435 -0.000193778 0)
(0.412433 -0.000186723 0)
(0.412432 -0.000183589 0)
(0.41243 -0.000190814 0)
(0.412425 -0.00021444 0)
(0.412412 -0.00026261 0)
(0.412387 -0.000338848 0)
(0.412341 -0.000444804 0)
(0.412269 -0.000579545 0)
(0.412162 -0.0007393 0)
(0.412011 -0.00091711 0)
(0.411808 -0.00110236 0)
(0.411544 -0.00128027 0)
(0.411207 -0.00143096 0)
(0.410785 -0.00152799 0)
(0.410266 -0.00153628 0)
(0.409633 -0.00140935 0)
(0.408865 -0.00108543 0)
(0.407937 -0.000479465 0)
(0.406814 0.00051699 0)
(0.405445 0.00206144 0)
(0.403768 0.00437092 0)
(0.401713 0.00777623 0)
(0.399146 0.0126072 0)
(0.396104 0.0200905 0)
(0.412459 -5.10072e-05 0)
(0.412455 -0.000124383 0)
(0.41245 -0.000169153 0)
(0.412446 -0.000190489 0)
(0.412443 -0.000194941 0)
(0.412441 -0.000192416 0)
(0.412441 -0.000186613 0)
(0.412442 -0.000183462 0)
(0.412444 -0.000189132 0)
(0.412443 -0.00020863 0)
(0.412435 -0.000249073 0)
(0.412415 -0.000313216 0)
(0.412377 -0.00040206 0)
(0.412314 -0.000514116 0)
(0.412218 -0.000645356 0)
(0.412082 -0.000788668 0)
(0.411899 -0.000933211 0)
(0.411662 -0.00106402 0)
(0.411364 -0.00116106 0)
(0.410998 -0.00119747 0)
(0.41056 -0.00113742 0)
(0.410043 -0.000933168 0)
(0.409444 -0.000520534 0)
(0.408754 0.000186895 0)
(0.407967 0.00130093 0)
(0.407085 0.00298774 0)
(0.406091 0.00546954 0)
(0.405035 0.00907605 0)
(0.403794 0.0141482 0)
(0.402989 0.0218233 0)
(0.412459 -4.94646e-05 0)
(0.412457 -0.000122313 0)
(0.412455 -0.000166446 0)
(0.412454 -0.000187742 0)
(0.412453 -0.000193348 0)
(0.412453 -0.000192598 0)
(0.412454 -0.000189082 0)
(0.412458 -0.000187476 0)
(0.412463 -0.000192935 0)
(0.412467 -0.000210668 0)
(0.412464 -0.000245096 0)
(0.412451 -0.000298939 0)
(0.412421 -0.00037261 0)
(0.412367 -0.000464269 0)
(0.412284 -0.000570079 0)
(0.412164 -0.00068323 0)
(0.412003 -0.000793127 0)
(0.411796 -0.000885238 0)
(0.411539 -0.000940421 0)
(0.411233 -0.000932881 0)
(0.410879 -0.000827976 0)
(0.410484 -0.000579807 0)
(0.410055 -0.000126077 0)
(0.40961 0.00061387 0)
(0.40917 0.00175746 0)
(0.408779 0.00345933 0)
(0.408468 0.00593166 0)
(0.408395 0.00947952 0)
(0.408454 0.0144404 0)
(0.409757 0.0217347 0)
(0.41246 -4.93338e-05 0)
(0.412462 -0.000123885 0)
(0.412466 -0.000166999 0)
(0.412469 -0.00018562 0)
(0.41247 -0.000190886 0)
(0.41247 -0.000190128 0)
(0.412473 -0.000187138 0)
(0.41248 -0.000185932 0)
(0.412488 -0.00019074 0)
(0.412495 -0.000203692 0)
(0.412498 -0.000231589 0)
(0.412491 -0.000275253 0)
(0.412469 -0.000334069 0)
(0.412426 -0.000405788 0)
(0.412355 -0.000487304 0)
(0.412251 -0.000572254 0)
(0.412112 -0.00065088 0)
(0.411934 -0.000710192 0)
(0.411719 -0.00073314 0)
(0.411472 -0.000696377 0)
(0.4112 -0.00056832 0)
(0.410921 -0.000307226 0)
(0.410658 0.000142491 0)
(0.410446 0.000856779 0)
(0.410336 0.00193978 0)
(0.410408 0.0035321 0)
(0.410737 0.00582435 0)
(0.411569 0.00907483 0)
(0.412817 0.013604 0)
(0.415965 0.0200279 0)
(0.412462 -5.17574e-05 0)
(0.412471 -0.000130471 0)
(0.412486 -0.000173372 0)
(0.412496 -0.000194232 0)
(0.412498 -0.000202185 0)
(0.4125 -0.000204932 0)
(0.412505 -0.000205972 0)
(0.412514 -0.000207222 0)
(0.412525 -0.000213303 0)
(0.412536 -0.00022747 0)
(0.412544 -0.000251402 0)
(0.412543 -0.000287096 0)
(0.412529 -0.000333542 0)
(0.412496 -0.000387596 0)
(0.412437 -0.000448439 0)
(0.412349 -0.000511285 0)
(0.41223 -0.000565709 0)
(0.412081 -0.000600895 0)
(0.411903 -0.000602958 0)
(0.411709 -0.000552513 0)
(0.411512 -0.000422738 0)
(0.411338 -0.000179286 0)
(0.411223 0.00022485 0)
(0.411219 0.000854266 0)
(0.411402 0.00179495 0)
(0.411882 0.00317001 0)
(0.412768 0.00514047 0)
(0.414371 0.00789763 0)
(0.416632 0.011734 0)
(0.421278 0.0169018 0)
(0.412465 -6.30636e-05 0)
(0.412487 -0.000134831 0)
(0.412516 -0.000160999 0)
(0.412531 -0.000171759 0)
(0.412535 -0.000177388 0)
(0.412539 -0.000180612 0)
(0.412546 -0.000183304 0)
(0.412557 -0.000187617 0)
(0.412571 -0.000194886 0)
(0.412586 -0.000205323 0)
(0.412598 -0.000224408 0)
(0.412607 -0.000252406 0)
(0.412592 -0.000286538 0)
(0.412567 -0.000324779 0)
(0.412521 -0.000364946 0)
(0.412449 -0.00040343 0)
(0.412349 -0.00043691 0)
(0.412223 -0.000451252 0)
(0.412079 -0.000439928 0)
(0.411931 -0.000385915 0)
(0.411799 -0.00026905 0)
(0.411715 -6.40487e-05 0)
(0.411725 0.000260946 0)
(0.411897 0.000756793 0)
(0.412324 0.00148144 0)
(0.413146 0.00253773 0)
(0.414491 0.00405872 0)
(0.4167 0.00616559 0)
(0.419752 0.00908214 0)
(0.425505 0.0127225 0)
(0.412477 -0.000100501 0)
(0.412542 -0.000226461 0)
(0.412606 -0.000228718 0)
(0.412618 -0.000230591 0)
(0.412622 -0.000234184 0)
(0.412629 -0.000236272 0)
(0.412639 -0.000237214 0)
(0.412646 -0.000240416 0)
(0.412649 -0.000247906 0)
(0.412646 -0.000260138 0)
(0.412635 -0.000276612 0)
(0.412613 -0.000295742 0)
(0.412578 -0.000317964 0)
(0.412526 -0.000343604 0)
(0.412454 -0.000373544 0)
(0.412365 -0.000397946 0)
(0.41226 -0.000409032 0)
(0.412145 -0.000412207 0)
(0.412029 -0.000398472 0)
(0.41193 -0.00036151 0)
(0.411874 -0.000280604 0)
(0.411894 -0.000138799 0)
(0.412041 8.56148e-05 0)
(0.412371 0.000422127 0)
(0.413 0.000912577 0)
(0.413909 0.00161814 0)
(0.415569 0.00261373 0)
(0.418165 0.00397419 0)
(0.421861 0.00589157 0)
(0.42782 0.00783247 0)
(0.412277 -6.91621e-05 0)
(0.412144 -0.000131988 0)
(0.411913 -0.000155221 0)
(0.411633 -0.000164328 0)
(0.411347 -0.000170669 0)
(0.411065 -0.000175167 0)
(0.410785 -0.000178408 0)
(0.410501 -0.000181053 0)
(0.410213 -0.000183608 0)
(0.409917 -0.000186746 0)
(0.409609 -0.000191691 0)
(0.409285 -0.00019923 0)
(0.408941 -0.000209405 0)
(0.408573 -0.000221415 0)
(0.408178 -0.000233251 0)
(0.407757 -0.00024487 0)
(0.407315 -0.000256243 0)
(0.406861 -0.000263011 0)
(0.406409 -0.000261114 0)
(0.405977 -0.000246759 0)
(0.405599 -0.000211521 0)
(0.405322 -0.000164288 0)
(0.405211 -8.70964e-05 0)
(0.405362 3.99087e-05 0)
(0.405912 0.000247676 0)
(0.407034 0.00051365 0)
(0.408935 0.000875454 0)
(0.411907 0.00135225 0)
(0.416328 0.00211525 0)
(0.424076 0.00249415 0)
(0.446744 -0.00422672 -9.12324e-20)
(0.449842 -0.00632723 -9.13668e-20)
(0.452383 -0.00883695 -1.30176e-18)
(0.454239 -0.0115846 -3.75738e-19)
(0.455738 -0.0145296 3.81778e-19)
(0.457033 -0.0176645 0)
(0.458151 -0.0210018 0)
(0.459121 -0.0245634 3.95638e-19)
(0.459996 -0.0283732 -4.02944e-19)
(0.460819 -0.0324547 -8.14293e-19)
(0.461606 -0.036834 8.30081e-19)
(0.462354 -0.0415435 0)
(0.463054 -0.0466261 -8.52353e-19)
(0.463696 -0.0521361 8.70139e-19)
(0.464272 -0.0581419 0)
(0.464776 -0.0647274 1.7839e-18)
(0.465201 -0.0719961 9.08911e-19)
(0.465539 -0.0800754 9.11095e-19)
(0.465775 -0.0891239 9.38212e-19)
(0.465884 -0.0993412 9.35983e-19)
(0.465833 -0.110982 -9.65899e-19)
(0.465575 -0.124372 2.93715e-18)
(0.465028 -0.139944 0)
(0.464112 -0.158248 -1.97753e-18)
(0.462562 -0.180095 9.94478e-19)
(0.460388 -0.206349 -2.00225e-18)
(0.456405 -0.23876 -2.93934e-18)
(0.451305 -0.279664 0)
(0.442507 -0.323963 0)
(0.424578 -0.41732 -3.6053e-19)
(0.450298 -0.00925251 -1.49198e-18)
(0.451941 -0.0114944 0)
(0.453156 -0.0141775 0)
(0.453997 -0.0170664 -1.54768e-18)
(0.454728 -0.0201138 1.56955e-18)
(0.455424 -0.0233405 1.59232e-18)
(0.456083 -0.0267764 -4.01927e-19)
(0.456716 -0.0304421 4.09465e-19)
(0.457323 -0.0343541 1.2534e-18)
(0.457897 -0.0385326 2.11802e-18)
(0.458419 -0.0430064 -8.56173e-19)
(0.458868 -0.0478146 1.7578e-18)
(0.459225 -0.0530068 8.89248e-19)
(0.45948 -0.0586428 9.17892e-19)
(0.459622 -0.0647939 9.22208e-19)
(0.459639 -0.0715452 1.89128e-18)
(0.459515 -0.0789996 0)
(0.459221 -0.0872833 -9.72175e-19)
(0.458722 -0.0965525 -1.01359e-18)
(0.457968 -0.107003 0)
(0.456891 -0.118881 1.02966e-18)
(0.4554 -0.132501 1.08308e-18)
(0.453358 -0.148269 -2.18634e-18)
(0.450601 -0.166698 0)
(0.446771 -0.188533 1.09699e-18)
(0.441743 -0.21451 1.17539e-18)
(0.434048 -0.246377 -2.33471e-18)
(0.424831 -0.284942 1.08527e-18)
(0.409233 -0.329932 -1.13765e-18)
(0.386318 -0.412433 4.86741e-19)
(0.448972 -0.0139461 1.52005e-18)
(0.449867 -0.0161693 0)
(0.450566 -0.0188477 -1.95017e-19)
(0.451209 -0.0217571 3.3713e-18)
(0.451843 -0.0248417 -1.20312e-18)
(0.452462 -0.0281101 -2.44578e-18)
(0.453035 -0.0315812 2.08345e-18)
(0.453538 -0.035272 -4.21287e-19)
(0.453958 -0.0392021 -1.27927e-18)
(0.45428 -0.0433999 -4.17306e-19)
(0.454494 -0.0479032 4.4524e-19)
(0.45459 -0.0527567 -2.7072e-18)
(0.454559 -0.0580111 1.84784e-18)
(0.45439 -0.0637245 -2.81631e-18)
(0.454067 -0.0699653 0)
(0.453566 -0.076816 -1.95014e-18)
(0.452853 -0.084377 0)
(0.451883 -0.0927719 0)
(0.450601 -0.102153 2.08117e-18)
(0.448933 -0.112708 0)
(0.446779 -0.124673 0)
(0.444009 -0.138343 -2.22994e-18)
(0.440434 -0.154096 2.28267e-18)
(0.43582 -0.172402 0)
(0.42973 -0.193929 0)
(0.421905 -0.219323 -2.43842e-18)
(0.410731 -0.250182 1.08938e-18)
(0.3975 -0.286532 -6.85906e-19)
(0.375333 -0.331223 -6.75056e-19)
(0.348102 -0.403123 0)
(0.447375 -0.0188908 -4.86202e-20)
(0.447975 -0.021192 -4.926e-20)
(0.448418 -0.0239098 1.51262e-18)
(0.448892 -0.0268368 -3.26389e-18)
(0.449347 -0.0299258 2.07499e-19)
(0.449717 -0.0331923 4.21031e-19)
(0.449984 -0.0366623 -4.11623e-19)
(0.450149 -0.0403593 0)
(0.450209 -0.0443091 2.23514e-18)
(0.450159 -0.0485426 -4.08349e-18)
(0.449987 -0.0530959 1.86431e-18)
(0.449681 -0.0580096 9.43946e-19)
(0.449222 -0.0633303 -2.91277e-18)
(0.448587 -0.069113 0)
(0.447745 -0.0754248 0)
(0.446659 -0.082347 2.09178e-18)
(0.445281 -0.0899779 2.14676e-18)
(0.443553 -0.0984366 1.08831e-18)
(0.441401 -0.107868 -9.32543e-22)
(0.438726 -0.118448 -1.15143e-18)
(0.435401 -0.130394 0)
(0.431255 -0.143978 0)
(0.426055 -0.15954 -1.31803e-18)
(0.419503 -0.177495 -3.98573e-18)
(0.411099 -0.19842 0)
(0.400465 -0.222858 -1.49933e-18)
(0.385913 -0.252193 2.81502e-18)
(0.368778 -0.286017 -5.45867e-18)
(0.340458 -0.328654 8.0188e-19)
(0.310301 -0.389854 0)
(0.445084 -0.0236822 0)
(0.445375 -0.0259945 1.63319e-18)
(0.445494 -0.0286931 -1.44115e-18)
(0.445696 -0.0316014 1.46515e-18)
(0.445883 -0.0346857 2.13908e-19)
(0.445957 -0.0379616 -2.18153e-19)
(0.445909 -0.0414523 -1.76761e-18)
(0.445755 -0.0451783 0)
(0.445487 -0.0491621 2.57706e-20)
(0.44509 -0.0534312 1.87649e-18)
(0.444542 -0.0580191 -2.39986e-18)
(0.443821 -0.0629649 2.48828e-18)
(0.442901 -0.0683151 2.51214e-18)
(0.441751 -0.0741249 -5.18514e-19)
(0.440333 -0.0804604 3.2174e-18)
(0.438601 -0.0873997 -2.13686e-18)
(0.436496 -0.0950356 -2.25368e-18)
(0.433946 -0.103479 -1.15816e-18)
(0.430857 -0.112862 0)
(0.427111 -0.123347 0)
(0.42255 -0.13513 0)
(0.416973 -0.148449 1.33037e-18)
(0.410107 -0.163601 4.15588e-18)
(0.4016 -0.180942 1.37718e-18)
(0.390911 -0.200949 3.0208e-18)
(0.377558 -0.22406 -1.77129e-18)
(0.359856 -0.251413 3.46552e-18)
(0.339024 -0.282344 -2.70455e-19)
(0.305382 -0.321719 3.01635e-18)
(0.273358 -0.372654 5.2707e-18)
(0.44212 -0.0282899 -1.6546e-18)
(0.442115 -0.0306224 -1.66884e-18)
(0.441919 -0.0333244 -1.71917e-18)
(0.441848 -0.0362377 0)
(0.441767 -0.0393313 0)
(0.441546 -0.0426171 -1.82259e-18)
(0.441179 -0.0461149 0)
(0.440681 -0.0498442 1.43091e-18)
(0.440046 -0.0538277 -3.37927e-18)
(0.439248 -0.0580937 1.99305e-18)
(0.438262 -0.0626759 1.53692e-18)
(0.437062 -0.0676133 -4.1521e-18)
(0.435619 -0.0729508 -6.79745e-22)
(0.433894 -0.0787409 -1.66809e-18)
(0.431843 -0.0850447 5.37468e-20)
(0.429408 -0.0919338 -2.29414e-18)
(0.426519 -0.0994929 -6.57222e-20)
(0.423089 -0.107822 2.51786e-18)
(0.419007 -0.11704 -1.325e-18)
(0.414134 -0.12729 -1.33125e-18)
(0.408292 -0.138742 2.83314e-18)
(0.401249 -0.151599 0)
(0.392703 -0.166108 -2.97819e-18)
(0.382264 -0.182557 0)
(0.369361 -0.201322 -3.47529e-18)
(0.35343 -0.222733 3.49598e-18)
(0.332854 -0.24766 2.46916e-19)
(0.308632 -0.275301 4.00731e-18)
(0.270672 -0.310404 -5.46483e-18)
(0.237668 -0.351615 1.7203e-18)
(0.438428 -0.032636 1.63787e-18)
(0.438116 -0.034979 -5.42505e-20)
(0.437587 -0.037671 2.09138e-18)
(0.437214 -0.0405687 6.84109e-19)
(0.436832 -0.0436447 0)
(0.436283 -0.0469102 1.86992e-18)
(0.435558 -0.0503844 1.45335e-18)
(0.434678 -0.054087 -2.44839e-18)
(0.433635 -0.0580406 9.82649e-19)
(0.432399 -0.0622721 -1.00609e-18)
(0.43094 -0.0668133 -2.10639e-18)
(0.429227 -0.0716998 2.16394e-18)
(0.427224 -0.076973 -5.75817e-19)
(0.424888 -0.0826802 1.71365e-18)
(0.422163 -0.0888768 -5.51144e-19)
(0.418982 -0.0956273 -6.17894e-19)
(0.415266 -0.103007 3.83336e-18)
(0.410914 -0.111103 -3.97936e-18)
(0.405802 -0.120018 2.72907e-18)
(0.399774 -0.129872 7.48736e-19)
(0.392635 -0.140807 -2.2204e-18)
(0.384131 -0.152987 1.62783e-18)
(0.373938 -0.166604 0)
(0.361641 -0.181879 -8.96808e-19)
(0.346658 -0.199081 4.65302e-18)
(0.328367 -0.218436 0)
(0.305274 -0.24054 -7.68951e-18)
(0.278085 -0.264553 1.20403e-18)
(0.236965 -0.294647 0)
(0.203661 -0.326884 -5.79338e-18)
(0.433944 -0.0365821 -8.86461e-19)