/*--------------------------------*- C++ -*----------------------------------*\
  =========                 |
  \\      /  F ield         | OpenFOAM: The Open Source CFD Toolbox
   \\    /   O peration     | Website:  https://openfoam.org
    \\  /    A nd           | Version:  11
     \\/     M anipulation  |
\*---------------------------------------------------------------------------*/
FoamFile
{
    format      ascii;
    class       volScalarField;
    location    "1.6";
    object      p;
}
// * * * * * * * * * * * * * * * * * * * * * * * * * * * * * * * * * * * * * //

dimensions      [0 2 -2 0 0 0 0];

internalField   nonuniform List<scalar> 
12600
(
0.22533
0.225227
0.225139
0.225061
0.224967
0.224848
0.224699
0.224522
0.224314
0.224068
0.22378
0.223445
0.223055
0.222601
0.222074
0.221461
0.22075
0.219924
0.218966
0.217856
0.216566
0.215066
0.21332
0.211288
0.208923
0.206173
0.202978
0.199269
0.195
0.190026
0.22527
0.225219
0.225146
0.225068
0.224976
0.22486
0.224714
0.22454
0.224333
0.224092
0.223808
0.223477
0.223092
0.222644
0.222125
0.221521
0.22082
0.220004
0.219059
0.217964
0.216692
0.215211
0.213487
0.21148
0.209143
0.206422
0.203255
0.199575
0.195318
0.190393
0.225267
0.225238
0.225177
0.225097
0.225004
0.22489
0.224748
0.224578
0.224376
0.22414
0.223863
0.22354
0.223164
0.222728
0.222221
0.221632
0.220948
0.220155
0.219234
0.218167
0.216927
0.215483
0.213803
0.211844
0.20956
0.206894
0.203784
0.200162
0.195935
0.19105
0.225281
0.225258
0.225205
0.22513
0.22504
0.22493
0.224794
0.224631
0.224437
0.224209
0.223942
0.223631
0.223269
0.222848
0.22236
0.221794
0.221138
0.220376
0.219492
0.218466
0.217274
0.215887
0.214269
0.212382
0.210176
0.207597
0.204577
0.201044
0.196889
0.19206
0.225311
0.225292
0.225246
0.225178
0.225092
0.224987
0.224858
0.224703
0.224518
0.224301
0.224048
0.223752
0.223408
0.223009
0.222545
0.222009
0.221386
0.220665
0.219828
0.218856
0.217727
0.216413
0.214879
0.213087
0.210989
0.208528
0.205633
0.202226
0.198185
0.193458
0.225354
0.225338
0.225297
0.225235
0.225155
0.225056
0.224935
0.224789
0.224616
0.224413
0.224175
0.223898
0.223576
0.223203
0.22277
0.222269
0.221688
0.221016
0.220237
0.219332
0.218281
0.217057
0.215628
0.213955
0.211992
0.209682
0.206949
0.203714
0.199837
0.19526
0.22541
0.225395
0.225359
0.225303
0.225229
0.225138
0.225026
0.224892
0.224732
0.224545
0.224325
0.22407
0.223774
0.223431
0.223034
0.222574
0.222043
0.221427
0.220715
0.219889
0.218929
0.217811
0.216506
0.214977
0.213178
0.211052
0.208524
0.205508
0.201854
0.197492
0.225476
0.225463
0.225431
0.225381
0.225314
0.225231
0.22513
0.225008
0.224864
0.224694
0.224495
0.224265
0.223998
0.223689
0.223331
0.222919
0.222442
0.221891
0.221255
0.220517
0.219661
0.218666
0.217503
0.21614
0.214533
0.212627
0.210347
0.207607
0.204241
0.200174
0.225551
0.22554
0.225512
0.225467
0.225409
0.225335
0.225245
0.225137
0.225009
0.224859
0.224684
0.22448
0.224245
0.223973
0.22366
0.223299
0.222883
0.222403
0.22185
0.22121
0.22047
0.21961
0.218607
0.217431
0.216043
0.214392
0.212406
0.209999
0.207
0.203324
0.225634
0.225625
0.225601
0.225563
0.225512
0.225448
0.225371
0.225278
0.225167
0.225038
0.224887
0.224713
0.224512
0.224281
0.224015
0.223709
0.223358
0.222955
0.222491
0.221958
0.221342
0.22063
0.219801
0.218831
0.217688
0.216325
0.214678
0.212665
0.210117
0.206944
0.225724
0.225717
0.225696
0.225665
0.225623
0.22557
0.225505
0.225427
0.225336
0.225229
0.225104
0.224961
0.224796
0.224608
0.224391
0.224144
0.223862
0.223539
0.22317
0.222749
0.222266
0.22171
0.221068
0.220321
0.219442
0.218398
0.217131
0.21557
0.213562
0.211011
0.225821
0.225814
0.225798
0.225773
0.225739
0.225697
0.225646
0.225585
0.225513
0.225429
0.225332
0.225221
0.225094
0.224949
0.224785
0.224598
0.224387
0.224148
0.223878
0.223572
0.223227
0.222834
0.222387
0.221874
0.221278
0.220574
0.219723
0.218668
0.217282
0.215474
0.225921
0.225916
0.225905
0.225886
0.225861
0.22583
0.225793
0.225748
0.225696
0.225636
0.225568
0.22549
0.225401
0.225302
0.225191
0.225066
0.224927
0.224774
0.224604
0.224416
0.224211
0.223985
0.223737
0.223464
0.22316
0.222813
0.222402
0.221893
0.221197
0.22024
0.226025
0.226022
0.226014
0.226002
0.225987
0.225967
0.225943
0.225916
0.225884
0.225849
0.225808
0.225764
0.225715
0.225661
0.225603
0.225541
0.225475
0.225407
0.225337
0.225268
0.225203
0.225144
0.225095
0.225063
0.225052
0.225067
0.225107
0.225165
0.225204
0.225174
0.226131
0.22613
0.226127
0.226121
0.226114
0.226106
0.226096
0.226086
0.226075
0.226063
0.226052
0.226041
0.226031
0.226023
0.226018
0.226018
0.226024
0.22604
0.226069
0.226116
0.226188
0.226291
0.226438
0.226641
0.226917
0.227285
0.22777
0.228392
0.229175
0.230104
0.226239
0.226239
0.226239
0.22624
0.226242
0.226245
0.22625
0.226256
0.226265
0.226278
0.226295
0.226316
0.226345
0.226382
0.226429
0.22649
0.226567
0.226665
0.226789
0.226948
0.227151
0.227411
0.227743
0.228168
0.228715
0.229417
0.230321
0.231478
0.23297
0.234827
0.226346
0.226348
0.226352
0.226359
0.22637
0.226384
0.226402
0.226425
0.226454
0.22649
0.226534
0.226589
0.226655
0.226735
0.226833
0.226952
0.227097
0.227273
0.227489
0.227754
0.22808
0.228485
0.228988
0.229618
0.230412
0.231415
0.232695
0.234328
0.236449
0.239135
0.226452
0.226455
0.226463
0.226477
0.226495
0.22652
0.226551
0.22659
0.226639
0.226697
0.226768
0.226854
0.226956
0.227078
0.227224
0.227399
0.227608
0.227858
0.228159
0.228523
0.228963
0.229499
0.230157
0.230968
0.231976
0.233238
0.234834
0.236861
0.23949
0.242841
0.226555
0.22656
0.226572
0.226591
0.226618
0.226652
0.226696
0.226751
0.226817
0.226898
0.226994
0.22711
0.227246
0.227408
0.2276
0.227827
0.228095
0.228414
0.228793
0.229246
0.229789
0.230442
0.231234
0.232199
0.233385
0.234855
0.236695
0.239015
0.242003
0.245805
0.226655
0.226661
0.226677
0.226701
0.226735
0.226779
0.226835
0.226904
0.226988
0.227089
0.22721
0.227353
0.227522
0.227721
0.227955
0.22823
0.228554
0.228935
0.229385
0.229917
0.23055
0.231303
0.232207
0.233298
0.234623
0.236246
0.238254
0.240759
0.243943
0.24796
0.226751
0.226758
0.226777
0.226806
0.226847
0.2269
0.226967
0.227049
0.22715
0.22727
0.227413
0.227582
0.227781
0.228014
0.228287
0.228606
0.228979
0.229417
0.229929
0.230531
0.23124
0.232077
0.233071
0.234258
0.235682
0.237405
0.239506
0.242089
0.245312
0.24932
0.226842
0.22685
0.226871
0.226904
0.226951
0.227012
0.227089
0.227185
0.2273
0.227438
0.227601
0.227794
0.22802
0.228284
0.228592
0.228951
0.229369
0.229855
0.230422
0.231083
0.231856
0.232761
0.233824
0.235078
0.236565
0.238338
0.240464
0.243029
0.246157
0.249966
0.226927
0.226936
0.226958
0.226995
0.227047
0.227116
0.227202
0.227309
0.227437
0.227591
0.227773
0.227987
0.228237
0.228529
0.228869
0.229263
0.229719
0.230248
0.230861
0.231572
0.232396
0.233352
0.234465
0.235763
0.237281
0.23906
0.241155
0.243629
0.246557
0.250025
0.227005
0.227014
0.227038
0.227078
0.227134
0.227209
0.227303
0.22742
0.227561
0.227729
0.227927
0.22816
0.228432
0.228748
0.229115
0.229539
0.230029
0.230594
0.231245
0.231996
0.23286
0.233855
0.235001
0.236322
0.237844
0.239598
0.241621
0.243951
0.246613
0.24966
0.227077
0.227086
0.22711
0.227151
0.227211
0.227291
0.227393
0.227518
0.227669
0.227849
0.228061
0.228311
0.228601
0.228938
0.229328
0.229777
0.230295
0.23089
0.231573
0.232355
0.233249
0.234271
0.235437
0.236764
0.238271
0.239979
0.241904
0.244061
0.246432
0.249034
0.227141
0.22715
0.227173
0.227214
0.227277
0.227362
0.227469
0.227601
0.227761
0.227951
0.228176
0.228439
0.228745
0.229099
0.229508
0.229979
0.230519
0.231138
0.231845
0.232651
0.233567
0.234606
0.235781
0.237104
0.238586
0.240236
0.242055
0.244035
0.246119
0.2483
0.227201
0.227207
0.227225
0.227265
0.227329
0.227418
0.22753
0.227668
0.227835
0.228033
0.228268
0.228541
0.22886
0.229228
0.229652
0.230139
0.230697
0.231335
0.23206
0.232883
0.233815
0.234864
0.236041
0.237352
0.238804
0.240395
0.242112
0.243932
0.245765
0.247581
0.227255
0.227255
0.227267
0.227306
0.227373
0.227464
0.227579
0.227721
0.227893
0.228098
0.228339
0.228621
0.228949
0.229327
0.229763
0.230262
0.230833
0.231483
0.232222
0.233057
0.233998
0.235052
0.236226
0.237525
0.238948
0.240487
0.242118
0.243802
0.245439
0.246978
0.22731
0.227286
0.227287
0.227327
0.227398
0.227491
0.227609
0.227754
0.227929
0.228139
0.228385
0.228673
0.229007
0.229392
0.229835
0.230343
0.230922
0.231581
0.232327
0.233169
0.234115
0.23517
0.236339
0.237624
0.239021
0.240525
0.242107
0.243701
0.245209
0.246571
0.227397
0.227319
0.227301
0.227341
0.227414
0.227508
0.227626
0.227772
0.22795
0.228161
0.22841
0.228701
0.229038
0.229427
0.229873
0.230385
0.230968
0.231631
0.232381
0.233226
0.234173
0.235227
0.236393
0.237669
0.239048
0.240514
0.242054
0.243591
0.245053
0.246338
0.186173
0.184479
0.183287
0.182342
0.181349
0.180275
0.179175
0.178076
0.176975
0.175862
0.174733
0.173581
0.172396
0.171165
0.169872
0.168496
0.167012
0.165388
0.163587
0.161557
0.159229
0.156514
0.153282
0.149361
0.144464
0.138302
0.130046
0.118931
0.106276
0.0725735
0.186982
0.185709
0.184632
0.183681
0.182704
0.181687
0.18068
0.179699
0.178732
0.177765
0.17679
0.175801
0.174789
0.173742
0.172648
0.17149
0.170249
0.168903
0.16742
0.16576
0.16387
0.161679
0.159084
0.155953
0.152054
0.147172
0.140569
0.13213
0.120602
0.095854
0.187425
0.186451
0.185612
0.184778
0.183924
0.183073
0.182243
0.181432
0.180628
0.179823
0.179014
0.178197
0.177368
0.176519
0.175641
0.174724
0.173753
0.172713
0.171581
0.170328
0.168916
0.167293
0.165384
0.163089
0.160232
0.15666
0.151759
0.14565
0.136126
0.118979
0.188414
0.187717
0.187122
0.186427
0.185692
0.184982
0.184301
0.183636
0.182981
0.182336
0.181698
0.181068
0.18044
0.179811
0.179174
0.178523
0.177852
0.177148
0.1764
0.175589
0.174692
0.173672
0.17248
0.171048
0.169246
0.166975
0.163723
0.159741
0.152547
0.141712
0.189828
0.18934
0.188939
0.188375
0.187765
0.187204
0.186687
0.186191
0.18571
0.185248
0.184806
0.184384
0.183979
0.183592
0.18322
0.182862
0.182517
0.18218
0.181847
0.18151
0.181157
0.18077
0.180321
0.179767
0.17902
0.17802
0.176354
0.174347
0.16955
0.163871
0.191673
0.19138
0.191174
0.190762
0.190298
0.189899
0.189556
0.189239
0.188942
0.188675
0.188441
0.188242
0.188078
0.187953
0.187869
0.187828
0.187834
0.18789
0.187997
0.188158
0.188372
0.188635
0.188935
0.189254
0.189536
0.189751
0.189577
0.189368
0.186843
0.185252
0.193984
0.193886
0.193878
0.193625
0.193314
0.193083
0.192921
0.192793
0.192696
0.192639
0.192631
0.192674
0.192772
0.19293
0.193155
0.193453
0.193831
0.194299
0.194865
0.195539
0.19633
0.197244
0.198286
0.199451
0.200713
0.202058
0.203249
0.204621
0.204135
0.205667
0.196806
0.196902
0.197094
0.19701
0.196862
0.196809
0.196841
0.196916
0.19703
0.197198
0.197431
0.197732
0.198107
0.198564
0.199113
0.199764
0.200529
0.201421
0.202453
0.203643
0.205004
0.206555
0.208308
0.210271
0.212435
0.2148
0.217191
0.21989
0.221142
0.224939
0.200177
0.200468
0.20086
0.200952
0.200976
0.201111
0.201345
0.201633
0.20197
0.202375
0.202859
0.203429
0.204092
0.204859
0.205742
0.206754
0.207909
0.209224
0.210718
0.21241
0.214322
0.216474
0.218886
0.221574
0.224538
0.227782
0.231177
0.234927
0.237586
0.242886
0.20412
0.204603
0.205192
0.205465
0.205672
0.206002
0.206444
0.206952
0.207519
0.208167
0.208909
0.209754
0.21071
0.211788
0.213004
0.214373
0.215911
0.217637
0.219571
0.221737
0.224158
0.226856
0.229855
0.233171
0.236809
0.240768
0.244949
0.249471
0.253192
0.259311
0.208634
0.209303
0.210078
0.210535
0.210929
0.211458
0.212111
0.212839
0.213639
0.21453
0.215529
0.216645
0.217888
0.219271
0.220808
0.222518
0.224417
0.226525
0.228864
0.231457
0.234328
0.237498
0.24099
0.244818
0.248984
0.253479
0.258217
0.263238
0.267679
0.274013
0.213678
0.214517
0.215462
0.2161
0.216684
0.217409
0.218269
0.219213
0.220237
0.221364
0.22261
0.223985
0.225499
0.227166
0.229001
0.231022
0.233246
0.235694
0.238386
0.241343
0.244588
0.24814
0.252017
0.256227
0.260765
0.265608
0.270674
0.275936
0.280742
0.286813
0.219155
0.220145
0.221235
0.222044
0.222813
0.223727
0.22478
0.225925
0.22716
0.228505
0.229978
0.231588
0.233346
0.235266
0.237363
0.239653
0.242154
0.244885
0.247864
0.25111
0.254642
0.258475
0.262619
0.267075
0.27183
0.276844
0.282029
0.287299
0.292153
0.297602
0.224907
0.226019
0.227224
0.228189
0.229131
0.230216
0.231442
0.232766
0.234187
0.235723
0.237392
0.239204
0.241169
0.2433
0.245611
0.248119
0.250838
0.253785
0.256977
0.260429
0.264154
0.268163
0.272459
0.277033
0.281861
0.28689
0.29202
0.29712
0.301781
0.306438
0.230711
0.231914
0.233198
0.234295
0.23539
0.236624
0.237993
0.239466
0.241039
0.242732
0.244559
0.246531
0.248657
0.250949
0.25342
0.256085
0.258957
0.26205
0.265377
0.26895
0.272777
0.276863
0.281203
0.285782
0.290562
0.295479
0.300426
0.305234
0.309571
0.313517
0.236295
0.237557
0.238885
0.240085
0.241305
0.242656
0.244135
0.245718
0.247406
0.249214
0.251155
0.253239
0.255475
0.257873
0.260447
0.263207
0.266166
0.269333
0.272721
0.276335
0.28018
0.284255
0.288548
0.293035
0.297671
0.302381
0.307048
0.311485
0.315402
0.318571
0.24137
0.242659
0.243999
0.24527
0.246582
0.248013
0.249564
0.251218
0.252978
0.254856
0.256864
0.259011
0.261305
0.263756
0.266374
0.269169
0.272151
0.275328
0.278707
0.282291
0.286082
0.29007
0.29424
0.298559
0.302975
0.307401
0.31171
0.315695
0.319071
0.321413
0.245671
0.246962
0.248289
0.249596
0.250961
0.252435
0.254018
0.255703
0.257492
0.259395
0.261424
0.263586
0.265888
0.268339
0.270949
0.273724
0.276672
0.2798
0.28311
0.286605
0.290278
0.294119
0.298103
0.302193
0.306328
0.310412
0.314308
0.317792
0.320589
0.322205
0.249003
0.250274
0.251571
0.252881
0.254259
0.255737
0.257316
0.258992
0.260768
0.262655
0.264661
0.266792
0.269057
0.271461
0.274012
0.276718
0.279583
0.282611
0.285803
0.289158
0.292667
0.296314
0.300071
0.303892
0.30771
0.311417
0.314871
0.317826
0.320053
0.320777
0.251274
0.252509
0.253764
0.255047
0.256402
0.257849
0.259389
0.261021
0.262749
0.264581
0.266526
0.268588
0.270774
0.273091
0.275545
0.27814
0.280881
0.283769
0.286803
0.289979
0.293285
0.296701
0.300193
0.303713
0.307184
0.310489
0.313484
0.31587
0.317539
0.317057
0.25252
0.253706
0.25491
0.256141
0.257437
0.258821
0.260292
0.261849
0.263496
0.26524
0.267089
0.269048
0.271122
0.273317
0.275636
0.278086
0.280666
0.283379
0.28622
0.289183
0.292252
0.295403
0.298601
0.301787
0.304883
0.307759
0.310276
0.312074
0.313242
0.311566
0.252874
0.253997
0.255137
0.25629
0.257499
0.258791
0.260167
0.261623
0.263161
0.264789
0.266513
0.268339
0.27027
0.272311
0.274465
0.276736
0.279125
0.281629
0.284245
0.286961
0.289761
0.292618
0.295491
0.298317
0.301012
0.303432
0.305447
0.306609
0.307247
0.304279
0.252507
0.253554
0.254623
0.255683
0.256785
0.257965
0.259225
0.260559
0.261967
0.263456
0.265032
0.2667
0.268464
0.270326
0.27229
0.274357
0.276526
0.278795
0.281156
0.283597
0.286099
0.288629
0.291144
0.293573
0.295825
0.297738
0.299186
0.299594
0.299527
0.295026
0.251661
0.252616
0.253602
0.254555
0.255535
0.256588
0.257716
0.258911
0.260171
0.261503
0.262913
0.264405
0.265981
0.267645
0.269396
0.271237
0.273164
0.275173
0.277254
0.279393
0.281566
0.283738
0.285857
0.287845
0.289602
0.290938
0.291735
0.291266
0.290353
0.284102
0.250565
0.251413
0.252298
0.253135
0.253985
0.254901
0.255888
0.256932
0.258034
0.259198
0.260429
0.261732
0.263108
0.264557
0.26608
0.267677
0.269344
0.271072
0.272852
0.274663
0.27648
0.278259
0.279944
0.281445
0.282651
0.283339
0.2834
0.281939
0.280073
0.271773
0.249413
0.250138
0.250904
0.251615
0.25233
0.253103
0.253937
0.25482
0.255752
0.256737
0.257781
0.258885
0.260049
0.261275
0.262561
0.263904
0.265298
0.266734
0.268197
0.269663
0.271102
0.272464
0.273684
0.274657
0.275261
0.275234
0.274475
0.271899
0.268964
0.258197
0.248359
0.248945
0.249579
0.250168
0.25076
0.251396
0.252082
0.252807
0.253571
0.254379
0.255232
0.256132
0.25708
0.258076
0.259116
0.260197
0.26131
0.262442
0.263574
0.264681
0.265723
0.266644
0.267368
0.267775
0.267725
0.266914
0.265245
0.261408
0.257285
0.243544
0.247526
0.247922
0.248371
0.24882
0.249282
0.249768
0.250282
0.250825
0.251409
0.252036
0.252701
0.253401
0.254138
0.254909
0.255711
0.256535
0.257373
0.258207
0.259015
0.259765
0.260412
0.260889
0.261108
0.260931
0.2602
0.258555
0.255909
0.250673
0.24532
0.228023
0.247153
0.247333
0.247582
0.247932
0.248339
0.248755
0.249138
0.249495
0.249884
0.250316
0.250778
0.251265
0.251777
0.252313
0.252865
0.253425
0.253979
0.254506
0.25498
0.255362
0.255598
0.255612
0.255301
0.254505
0.253042
0.250496
0.246784
0.239924
0.233481
0.211799
0.246703
0.246463
0.246458
0.246692
0.246957
0.247141
0.247291
0.247501
0.247768
0.248056
0.248351
0.248659
0.248981
0.249311
0.249644
0.249969
0.250269
0.250523
0.2507
0.250754
0.250624
0.250221
0.249429
0.248059
0.245903
0.24248
0.237784
0.228931
0.222252
0.194938
0.178228
0.161368
0.143631
0.126096
0.109403
0.0938772
0.080085
0.0684407
0.0597509
0.0545375
0.0534804
0.0573677
0.066536
0.0815797
0.102616
0.127536
0.149465
0.162342
0.165109
0.162652
0.16199
0.163148
0.163731
0.163072
0.161898
0.160947
0.158724
0.152016
0.140316
0.127231
0.211985
0.197696
0.181906
0.166655
0.152106
0.138357
0.125845
0.114826
0.105682
0.0988071
0.0950331
0.095658
0.100514
0.109303
0.122693
0.139886
0.156375
0.165771
0.166276
0.162848
0.16495
0.165492
0.164518
0.164711
0.163009
0.159952
0.154481
0.144491
0.130175
0.115649
0.218013
0.20493
0.190893
0.17636
0.16202
0.148613
0.136121
0.124756
0.114927
0.107461
0.103193
0.102719
0.106118
0.113255
0.124276
0.137724
0.150653
0.157878
0.159987
0.16066
0.163701
0.165134
0.167053
0.166947
0.161671
0.154382
0.146416
0.137649
0.127903
0.117023
0.229984
0.218882
0.206003
0.193018
0.180348
0.167948
0.155697
0.144131
0.133947
0.125837
0.120432
0.118237
0.119483
0.124099
0.131758
0.141212
0.150225
0.156281
0.159159
0.159936
0.161355
0.163191
0.164673
0.163596
0.157603
0.147314
0.136587
0.13289
0.136821
0.139346
0.235687
0.225759
0.214314
0.202742
0.191163
0.179409
0.16767
0.156491
0.14647
0.138162
0.132126
0.128885
0.128754
0.131687
0.137238
0.144339
0.151233
0.156104
0.158737
0.159803
0.160342
0.160379
0.159517
0.156309
0.149197
0.139387
0.133074
0.139821
0.15448
0.170941
0.240256
0.231679
0.221515
0.211049
0.200369
0.189305
0.17807
0.16716
0.157123
0.148498
0.141839
0.137665
0.136301
0.13773
0.141524
0.146751
0.15203
0.15591
0.158103
0.158917
0.159059
0.158563
0.15638
0.151811
0.145821
0.140502
0.141099
0.15308
0.172209
0.191941
0.243278
0.235788
0.226755
0.217331
0.207587
0.19733
0.186719
0.176204
0.16631
0.157563
0.150495
0.145607
0.143231
0.143387
0.145701
0.14936
0.153222
0.156166
0.157751
0.158168
0.157867
0.156847
0.15481
0.151778
0.148622
0.147226
0.152133
0.165305
0.181249
0.195246
0.245358
0.23884
0.230822
0.222333
0.213416
0.203877
0.193842
0.183726
0.174026
0.165243
0.157884
0.152434
0.149234
0.14834
0.149437
0.151821
0.154515
0.156592
0.157606
0.157651
0.156988
0.155681
0.153791
0.15163
0.150227
0.15111
0.156605
0.166899
0.176667
0.183493
0.246737
0.241026
0.233933
0.226286
0.218125
0.209263
0.199794
0.190092
0.18062
0.171852
0.164278
0.158372
0.154481
0.152697
0.152762
0.154065
0.155766
0.157069
0.157554
0.157228
0.156265
0.154797
0.153009
0.151315
0.1506
0.151952
0.156123
0.161863
0.165279
0.165289
0.247644
0.242651
0.236335
0.229437
0.221965
0.213732
0.204807
0.195521
0.186301
0.177596
0.169877
0.163608
0.159143
0.156601
0.15578
0.156152
0.156987
0.157592
0.157567
0.156866
0.155621
0.153999
0.152237
0.150757
0.150193
0.151017
0.153092
0.154573
0.152697
0.147131
0.248206
0.243827
0.238193
0.231962
0.225116
0.217465
0.209052
0.200172
0.191216
0.182606
0.174796
0.168237
0.163289
0.160098
0.158511
0.158075
0.15815
0.158119
0.157608
0.156541
0.155018
0.153212
0.151363
0.149814
0.148921
0.148675
0.148393
0.146419
0.140842
0.13092
0.248526
0.244674
0.239638
0.233997
0.227718
0.220601
0.212668
0.204178
0.19549
0.186998
0.179136
0.172345
0.166989
0.163237
0.16098
0.159832
0.159228
0.158617
0.157646
0.156219
0.154412
0.152379
0.150323
0.148466
0.146906
0.145336
0.142878
0.138162
0.129847
0.117345
0.248677
0.245282
0.240765
0.235648
0.229881
0.223255
0.215769
0.207651
0.199228
0.190869
0.182985
0.176007
0.170303
0.166061
0.163215
0.161433
0.160219
0.159073
0.157663
0.155879
0.153771
0.151462
0.149095
0.146766
0.144376
0.141459
0.137129
0.130315
0.120119
0.10649
0.248713
0.245713
0.241649
0.236996
0.231691
0.225515
0.218444
0.210678
0.202515
0.194295
0.186411
0.179284
0.17328
0.168608
0.165237
0.162888
0.161118
0.159476
0.157646
0.155506
0.15308
0.150451
0.147694
0.144793
0.141523
0.137353
0.131491
0.123196
0.111995
0.0985538
0.248673
0.246017
0.242349
0.238108
0.233219
0.227453
0.220767
0.213331
0.205418
0.197342
0.189474
0.182225
0.175961
0.170907
0.167066
0.164202
0.161924
0.159819
0.157585
0.155091
0.152332
0.149347
0.146147
0.142631
0.138498
0.133227
0.126183
0.116935
0.105354
0.0923516
0.248585
0.24623
0.242908
0.239032
0.23452
0.229129
0.222797
0.21567
0.207995
0.200062
0.192222
0.184872
0.17838
0.172985
0.168718
0.165386
0.162639
0.160099
0.157476
0.15463
0.151525
0.148161
0.144491
0.140353
0.13542
0.129229
0.121327
0.111539
0.100009
0.0877306
0.248469
0.24638
0.243362
0.239811
0.235638
0.23059
0.224584
0.217746
0.210296
0.202502
0.194696
0.187261
0.180567
0.174864
0.170209
0.166447
0.163265
0.160314
0.157318
0.154121
0.150665
0.146908
0.142759
0.138021
0.132377
0.12545
0.116971
0.106973
0.0958211
0.0845062
0.248342
0.246488
0.243737
0.240475
0.236609
0.231874
0.226169
0.219599
0.212361
0.204701
0.19693
0.189424
0.182547
0.176563
0.171553
0.167393
0.163806
0.160467
0.157109
0.153568
0.149758
0.145604
0.140983
0.135686
0.129431
0.121942
0.113124
0.103173
0.0926243
0.0823775
0.248215
0.246569
0.244056
0.241052
0.237464
0.233015
0.227587
0.221264
0.214224
0.20669
0.198957
0.191385
0.184341
0.178099
0.17276
0.168231
0.164265
0.160558
0.156851
0.152971
0.14881
0.144265
0.13919
0.133385
0.126619
0.118727
0.109764
0.100051
0.0902442
0.0810931
0.248094
0.246636
0.244328
0.241561
0.238226
0.234038
0.228865
0.222772
0.215915
0.208499
0.2008
0.193169
0.18597
0.179487
0.173842
0.168969
0.164646
0.160591
0.156548
0.152339
0.147834
0.142906
0.137404
0.131146
0.123969
0.11581
0.106863
0.0975252
0.0885402
0.0804764
0.247982
0.246698
0.244579
0.24202
0.238914
0.234965
0.230027
0.224148
0.21746
0.210151
0.202482
0.194793
0.187448
0.180739
0.174808
0.169611
0.164953
0.160566
0.156201
0.151671
0.146831
0.141536
0.135635
0.128982
0.121481
0.11317
0.104358
0.0954839
0.0873535
0.0803414
0.247878
0.246757
0.244812
0.242444
0.239546
0.235815
0.231095
0.225412
0.218881
0.211668
0.204023
0.196276
0.188789
0.181867
0.175667
0.170168
0.165193
0.160492
0.155819
0.150983
0.145821
0.140177
0.133911
0.12692
0.119179
0.110814
0.102234
0.0938831
0.0866207
0.0805945
0.247782
0.246815
0.245035
0.242845
0.240136
0.236605
0.232085
0.226584
0.220195
0.213069
0.205441
0.197632
0.190005
0.182876
0.176418
0.170631
0.165358
0.160357
0.155388
0.150255
0.144783
0.138805
0.132203
0.124922
0.117004
0.108656
0.100369
0.0925566
0.0861348
0.0809903
0.247696
0.246871
0.245252
0.243229
0.240694
0.237346
0.233012
0.22768
0.22142
0.214368
0.206749
0.198877
0.191116
0.183793
0.177094
0.171037
0.165483
0.160204
0.154958
0.14955
0.143787
0.1375
0.130597
0.123078
0.115045
0.106783
0.0988425
0.0915808
0.0860245
0.0815973
0.247626
0.246932
0.245468
0.243603
0.241229
0.238049
0.23389
0.228715
0.22257
0.215578
0.207949
0.199994
0.192084
0.184564
0.177631
0.17132
0.165495
0.159941
0.154426
0.148749
0.142701
0.136114
0.128929
0.12121
0.113104
0.104964
0.0973749
0.0906492
0.0858448
0.0819372
0.247561
0.247001
0.245689
0.243973
0.241746
0.238719
0.234728
0.229705
0.223674
0.216749
0.209128
0.201103
0.19305
0.185339
0.178176
0.171623
0.165567
0.159772
0.15401
0.148092
0.141786
0.134926
0.127503
0.119599
0.111455
0.103486
0.0962829
0.0900858
0.085993
0.0819444
0.247494
0.247075
0.245915
0.244349
0.242256
0.23936
0.235508
0.230602
0.224633
0.217709
0.210041
0.201926
0.19373
0.185807
0.178401
0.171603
0.165321
0.159296
0.153307
0.147167
0.140615
0.133502
0.125875
0.117824
0.109671
0.101888
0.095069
0.0893341
0.0857329
0.081573
0.247428
0.247135
0.246132
0.244756
0.242801
0.24009
0.236428
0.231685
0.225824
0.218939
0.211243
0.203051
0.194732
0.18663
0.179022
0.172015
0.165502
0.159228
0.152998
0.146633
0.139819
0.132425
0.124534
0.116321
0.10815
0.100567
0.0941202
0.0888384
0.0853102
0.0802666
0.247385
0.247176
0.246329
0.244986
0.243116
0.240523
0.236942
0.232234
0.226373
0.21944
0.211641
0.203306
0.194826
0.186562
0.178803
0.171662
0.165025
0.158589
0.152195
0.145704
0.138736
0.131162
0.123133
0.114902
0.106798
0.0994232
0.0932582
0.088284
0.0846104
0.0780318
0.247423
0.247267
0.246684
0.245629
0.243952
0.241539
0.238213
0.233754
0.228057
0.221174
0.213301
0.204786
0.196048
0.187478
0.179401
0.171951
0.165047
0.158352
0.151688
0.144844
0.137469
0.129486
0.121105
0.112589
0.104541
0.0976235
0.0920275
0.0874438
0.0819422
0.0705497
-0.0476096
-0.0424463
-0.0339552
-0.0182687
0.000869733
0.0202149
0.038431
0.0544152
0.0684081
0.0803679
0.090434
0.0988329
0.105775
0.111456
0.11605
0.119709
0.122565
0.124734
0.126317
0.127399
0.128058
0.128362
0.128385
0.128175
0.127825
0.127346
0.126993
0.126524
0.126644
0.124795
-0.0454017
-0.0418644
-0.0358706
-0.0246028
-0.00812637
0.0127074
0.0310812
0.0478852
0.0629229
0.0758916
0.0869141
0.0961769
0.10388
0.110234
0.11543
0.119634
0.122988
0.125611
0.127604
0.129052
0.130031
0.130601
0.130826
0.130742
0.130422
0.129852
0.129153
0.128159
0.127402
0.12615
-0.0439698
-0.0413042
-0.0353788
-0.0304294
-0.018583
0.00113565
0.0208954
0.0388085
0.0551129
0.0694274
0.0817177
0.0921451
0.100915
0.108221
0.114251
0.119184
0.123181
0.126378
0.128885
0.130796
0.132185
0.133113
0.133639
0.133801
0.133654
0.133215
0.132552
0.131625
0.130621
0.129516
-0.0440636
-0.040869
-0.0364394
-0.0353364
-0.0281794
-0.0109733
0.00989298
0.0300276
0.0479739
0.0637704
0.0773895
0.0889886
0.0988054
0.107056
0.113912
0.119545
0.124127
0.127813
0.130737
0.13301
0.13472
0.135937
0.13672
0.137115
0.13717
0.136917
0.136398
0.135628
0.134622
0.133517
-0.0473454
-0.0438983
-0.0417471
-0.0403501
-0.0366712
-0.0240058
-0.00338775
0.0187691
0.0391161
0.0570729
0.0724319
0.0854193
0.0963706
0.105608
0.113347
0.119776
0.125061
0.129343
0.132769
0.135471
0.137551
0.139095
0.140171
0.140831
0.141119
0.141071
0.140715
0.140091
0.139183
0.138187
-0.0555228
-0.0550062
-0.0540697
-0.0503941
-0.045874
-0.037052
-0.0199117
0.00313993
0.0265192
0.0471079
0.0650871
0.0802254
0.0928074
0.103338
0.112104
0.119434
0.125558
0.130599
0.1347
0.13799
0.140577
0.14256
0.144021
0.145024
0.145618
0.145843
0.145729
0.145318
0.144593
0.143766
-0.0679735
-0.0721951
-0.0719194
-0.0666487
-0.0591113
-0.0500794
-0.0361724
-0.0158943
0.00887154
0.0337397
0.0548718
0.0728572
0.0876654
0.100196
0.110378
0.118778
0.125795
0.131622
0.13645
0.140409
0.143602
0.14613
0.14808
0.149525
0.15052
0.151114
0.151338
0.151236
0.150789
0.150207
-0.0808388
-0.088993
-0.0896441
-0.0857849
-0.0768667
-0.0652342
-0.0515355
-0.0337969
-0.0109277
0.0150488
0.0407126
0.0619617
0.0799568
0.0955306
0.107784
0.117841
0.126034
0.132714
0.138252
0.142845
0.146627
0.14971
0.152184
0.154124
0.155591
0.156636
0.157292
0.157606
0.157555
0.157351
-0.0882339
-0.099059
-0.102992
-0.102562
-0.0951523
-0.0823582
-0.0675037
-0.0505385
-0.0298752
-0.00533185
0.0208382
0.046295
0.0697126
0.0883529
0.103446
0.116118
0.12609
0.133987
0.140422
0.145695
0.150019
0.153572
0.156478
0.158844
0.160743
0.162228
0.163336
0.164116
0.164543
0.164829
-0.0858757
-0.100243
-0.107785
-0.111899
-0.108412
-0.0978821
-0.0833873
-0.0665914
-0.0472078
-0.024531
0.000925158
0.0277683
0.0536817
0.0769314
0.0969147
0.112958
0.125447
0.135188
0.143014
0.14925
0.154221
0.158213
0.161435
0.164072
0.166236
0.168002
0.169426
0.170566
0.171409
0.172141
-0.0746533
-0.0923123
-0.104457
-0.112689
-0.113934
-0.107852
-0.0960704
-0.080661
-0.0625741
-0.0415603
-0.0175704
0.00878184
0.0359822
0.062274
0.0859273
0.105993
0.122471
0.135654
0.145849
0.153662
0.159648
0.164247
0.167826
0.170642
0.172878
0.174676
0.176133
0.177335
0.178315
0.17922
-0.0556297
-0.0760473
-0.0922092
-0.104846
-0.111054
-0.110035
-0.102567
-0.0900927
-0.0744146
-0.0554767
-0.0333366
-0.00830292
0.0186581
0.0460275
0.072175
0.0958037
0.116172
0.13304
0.14653
0.157013
0.164992
0.17099
0.175458
0.178761
0.181199
0.183003
0.184346
0.185355
0.186113
0.186745
-0.0303477
-0.0523902
-0.071528
-0.0879622
-0.09894
-0.103238
-0.100984
-0.0931742
-0.0809221
-0.0648042
-0.045078
-0.0220844
0.00346878
0.0302921
0.0570757
0.082485
0.10551
0.125557
0.1424
0.156107
0.166955
0.175329
0.181642
0.186293
0.189641
0.191997
0.193616
0.194726
0.195466
0.196036
-0.00248489
-0.024007
-0.0446632
-0.0637715
-0.0785136
-0.0875318
-0.0904885
-0.0878071
-0.08015
-0.0680686
-0.0519482
-0.032206
-0.00949497
0.0152063
0.040695
0.0657764
0.0894447
0.110981
0.129969
0.146262
0.159855
0.170911
0.179684
0.186481
0.191614
0.195348
0.197945
0.199733
0.200935
0.201856
0.0234575
0.00502174
-0.0150424
-0.035073
-0.0521655
-0.0648381
-0.0723797
-0.0747271
-0.0721126
-0.0649236
-0.0535622
-0.0384909
-0.0203599
0.000222507
0.0222886
0.0448696
0.0670557
0.0881064
0.107474
0.124801
0.139919
0.152814
0.163591
0.172426
0.179542
0.185173
0.189418
0.19277
0.195221
0.197047
0.045007
0.0303512
0.0127023
-0.0061246
-0.0237182
-0.038476
-0.0496034
-0.0567834
-0.0597844
-0.0587417
-0.0539297
-0.045658
-0.0341658
-0.0197419
-0.00306166
0.014964
0.033541
0.0520351
0.069971
0.0869764
0.10274
0.117073
0.12989
0.141147
0.150851
0.159073
0.165988
0.171767
0.176252
0.179722
0.0599214
0.0492775
0.0349561
0.0183213
0.00123502
-0.0149287
-0.0293385
-0.041076
-0.0494323
-0.054201
-0.0554832
-0.0536019
-0.0491626
-0.0428992
-0.0344078
-0.0237374
-0.0114531
0.00203966
0.0163177
0.0309888
0.0457044
0.0602248
0.0743922
0.0880393
0.100984
0.1124
0.122814
0.131892
0.139104
0.145785
0.0690732
0.0620765
0.0507716
0.0364426
0.0203908
0.00384662
-0.0123807
-0.0276913
-0.0409172
-0.0514873
-0.0598812
-0.0659153
-0.0696598
-0.0715118
-0.071499
-0.069391
-0.0651324
-0.0587708
-0.0504386
-0.0404279
-0.0291483
-0.0168623
-0.003629
0.0103942
0.0237562
0.0380939
0.0529458
0.0674244