/*--------------------------------*- C++ -*----------------------------------*\
  =========                 |
  \\      /  F ield         | OpenFOAM: The Open Source CFD Toolbox
   \\    /   O peration     | Website:  https://openfoam.org
    \\  /    A nd           | Version:  11
     \\/     M anipulation  |
\*---------------------------------------------------------------------------*/
FoamFile
{
    format      ascii;
    class       surfaceScalarField;
    location    "1.6";
    object      phi;
}
// * * * * * * * * * * * * * * * * * * * * * * * * * * * * * * * * * * * * * //

dimensions      [0 3 -1 0 0 0 0];

internalField   nonuniform List<scalar> 
24840
(
1.53203e-05
1.30523e-08
1.53032e-05
1.70612e-08
1.5288e-05
1.52305e-08
1.52739e-05
1.40759e-08
1.52606e-05
1.32716e-08
1.52484e-05
1.22625e-08
1.52374e-05
1.09582e-08
1.5228e-05
9.39061e-09
1.52206e-05
7.38767e-09
1.52156e-05
5.02371e-09
1.52134e-05
2.16834e-09
1.52148e-05
-1.38621e-09
1.52206e-05
-5.7583e-09
1.52318e-05
-1.11955e-08
1.52497e-05
-1.79242e-08
1.5276e-05
-2.62418e-08
1.53124e-05
-3.64612e-08
1.53617e-05
-4.93109e-08
1.54262e-05
-6.45118e-08
1.55091e-05
-8.28592e-08
1.56152e-05
-1.06117e-07
1.57499e-05
-1.34671e-07
1.59195e-05
-1.69572e-07
1.61317e-05
-2.12225e-07
1.63958e-05
-2.64072e-07
1.67224e-05
-3.26663e-07
1.71254e-05
-4.03024e-07
1.76147e-05
-4.89206e-07
1.82318e-05
-6.17165e-07
-6.2474e-07
1.88566e-05
1.53394e-05
6.94747e-09
1.53442e-05
1.22859e-08
1.53492e-05
1.02636e-08
1.53547e-05
8.56763e-09
1.53609e-05
7.07621e-09
1.53681e-05
5.08808e-09
1.53765e-05
2.54404e-09
1.53863e-05
-4.33095e-10
1.5398e-05
-4.27026e-09
1.54117e-05
-8.73971e-09
1.54281e-05
-1.41905e-08
1.54476e-05
-2.08792e-08
1.54709e-05
-2.9084e-08
1.54989e-05
-3.91759e-08
1.55325e-05
-5.15736e-08
1.5573e-05
-6.67366e-08
1.5622e-05
-8.54586e-08
1.56809e-05
-1.08221e-07
1.57536e-05
-1.37145e-07
1.58442e-05
-1.7347e-07
1.59553e-05
-2.17227e-07
1.60913e-05
-2.70643e-07
1.62577e-05
-3.36058e-07
1.64615e-05
-4.1595e-07
1.67108e-05
-5.1338e-07
1.70161e-05
-6.31949e-07
1.73894e-05
-7.76383e-07
1.78455e-05
-9.45337e-07
1.84008e-05
-1.1724e-06
-1.30005e-06
1.90761e-05
1.53364e-05
3.8922e-09
1.53407e-05
7.93547e-09
1.53446e-05
6.35754e-09
1.53494e-05
3.76844e-09
1.53553e-05
1.25992e-09
1.5362e-05
-1.67421e-09
1.537e-05
-5.39142e-09
1.53794e-05
-9.91302e-09
1.53906e-05
-1.54118e-08
1.54038e-05
-2.19661e-08
1.54195e-05
-2.99169e-08
1.54383e-05
-3.96388e-08
1.54608e-05
-5.15619e-08
1.54878e-05
-6.62255e-08
1.55205e-05
-8.42819e-08
1.55603e-05
-1.06497e-07
1.56087e-05
-1.3391e-07
1.56682e-05
-1.67638e-07
1.57406e-05
-2.09588e-07
1.58287e-05
-2.61613e-07
1.59367e-05
-3.25158e-07
1.60689e-05
-4.0284e-07
1.62308e-05
-4.97978e-07
1.64292e-05
-6.14334e-07
1.66723e-05
-7.56516e-07
1.69702e-05
-9.29805e-07
1.73352e-05
-1.14143e-06
1.77814e-05
-1.39153e-06
1.83277e-05
-1.71866e-06
-1.97474e-06
1.90024e-05
1.53352e-05
1.9958e-09
1.5339e-05
4.11944e-09
1.53429e-05
2.50015e-09
1.53473e-05
-6.13575e-10
1.53528e-05
-4.21637e-09
1.53593e-05
-8.18354e-09
1.5367e-05
-1.30926e-08
1.53761e-05
-1.90487e-08
1.53869e-05
-2.61971e-08
1.53997e-05
-3.47657e-08
1.54149e-05
-4.51325e-08
1.54331e-05
-5.7785e-08
1.54548e-05
-7.33015e-08
1.5481e-05
-9.23934e-08
1.55126e-05
-1.15927e-07
1.5551e-05
-1.44941e-07
1.55979e-05
-1.80745e-07
1.56551e-05
-2.24887e-07
1.5725e-05
-2.7945e-07
1.58102e-05
-3.46802e-07
1.59144e-05
-4.29376e-07
1.6042e-05
-5.30476e-07
1.61984e-05
-6.54332e-07
1.639e-05
-8.05971e-07
1.6625e-05
-9.91509e-07
1.69132e-05
-1.21798e-06
1.72667e-05
-1.49491e-06
1.77005e-05
-1.82532e-06
1.82309e-05
-2.24906e-06
-2.63727e-06
1.88934e-05
1.53346e-05
7.16962e-10
1.53376e-05
1.0814e-09
1.53412e-05
-1.03825e-09
1.53454e-05
-4.84663e-09
1.53506e-05
-9.36714e-09
1.53568e-05
-1.44295e-08
1.53642e-05
-2.04915e-08
1.5373e-05
-2.7796e-08
1.53833e-05
-3.65392e-08
1.53956e-05
-4.70239e-08
1.54101e-05
-5.96961e-08
1.54275e-05
-7.51464e-08
1.54483e-05
-9.40919e-08
1.54733e-05
-1.1741e-07
1.55035e-05
-1.46168e-07
1.55402e-05
-1.81653e-07
1.55849e-05
-2.25443e-07
1.56395e-05
-2.79444e-07
1.57061e-05
-3.46044e-07
1.57874e-05
-4.28075e-07
1.58868e-05
-5.28759e-07
1.60084e-05
-6.52162e-07
1.61575e-05
-8.03417e-07
1.63403e-05
-9.88741e-07
1.65645e-05
-1.21573e-06
1.68398e-05
-1.49325e-06
1.71779e-05
-1.83302e-06
1.75942e-05
-2.24165e-06
1.81038e-05
-2.75863e-06
-3.27764e-06
1.87441e-05
1.53343e-05
-2.28301e-10
1.53368e-05
-1.4027e-09
1.53401e-05
-4.33104e-09
1.5344e-05
-8.83569e-09
1.53489e-05
-1.42158e-08
1.53548e-05
-2.03191e-08
1.53618e-05
-2.74979e-08
1.53701e-05
-3.6078e-08
1.53799e-05
-4.63307e-08
1.53915e-05
-5.86198e-08
1.54052e-05
-7.34641e-08
1.54216e-05
-9.15495e-08
1.54413e-05
-1.13722e-07
1.54649e-05
-1.41015e-07
1.54934e-05
-1.74684e-07
1.5528e-05
-2.16241e-07
1.557e-05
-2.67524e-07
1.56214e-05
-3.30754e-07
1.5684e-05
-4.08655e-07
1.57604e-05
-5.04508e-07
1.58538e-05
-6.22199e-07
1.59682e-05
-7.66543e-07
1.61084e-05
-9.43548e-07
1.62802e-05
-1.16057e-06
1.64911e-05
-1.42664e-06
1.67503e-05
-1.75244e-06
1.70691e-05
-2.15184e-06
1.74628e-05
-2.63536e-06
1.79459e-05
-3.24172e-06
-3.88936e-06
1.85576e-05
1.53341e-05
-9.84025e-10
1.53362e-05
-3.46914e-09
1.53391e-05
-7.31303e-09
1.53428e-05
-1.25355e-08
1.53474e-05
-1.87334e-08
1.53528e-05
-2.58045e-08
1.53594e-05
-3.40425e-08
1.53671e-05
-4.38186e-08
1.53763e-05
-5.54768e-08
1.53871e-05
-6.94416e-08
1.53999e-05
-8.63004e-08
1.54152e-05
-1.06828e-07
1.54335e-05
-1.3199e-07
1.54554e-05
-1.62963e-07
1.54819e-05
-2.01174e-07
1.5514e-05
-2.48343e-07
1.5553e-05
-3.06546e-07
1.56006e-05
-3.78291e-07
1.56586e-05
-4.66633e-07
1.57293e-05
-5.75272e-07
1.58158e-05
-7.08679e-07
1.59216e-05
-8.72362e-07
1.60512e-05
-1.07317e-06
1.62102e-05
-1.31951e-06
1.64053e-05
-1.6218e-06
1.66454e-05
-1.99249e-06
1.69411e-05
-2.44759e-06
1.73074e-05
-3.00161e-06
1.77582e-05
-3.69257e-06
-4.46525e-06
1.83341e-05
1.5334e-05
-1.60187e-09
1.53357e-05
-5.21946e-09
1.53384e-05
-9.97644e-09
1.53418e-05
-1.5932e-08
1.53459e-05
-2.29013e-08
1.5351e-05
-3.0859e-08
1.5357e-05
-4.008e-08
1.53642e-05
-5.09584e-08
1.53726e-05
-6.39e-08
1.53825e-05
-7.93907e-08
1.53943e-05
-9.80835e-08
1.54083e-05
-1.20835e-07
1.5425e-05
-1.48715e-07
1.54451e-05
-1.83031e-07
1.54693e-05
-2.25367e-07
1.54986e-05
-2.77625e-07
1.55341e-05
-3.42098e-07
1.55774e-05
-4.21555e-07
1.56301e-05
-5.19357e-07
1.56944e-05
-6.39591e-07
1.5773e-05
-7.8724e-07
1.58691e-05
-9.6844e-07
1.59867e-05
-1.1908e-06
1.6131e-05
-1.46374e-06
1.63081e-05
-1.79891e-06
1.65261e-05
-2.21048e-06
1.6795e-05
-2.71653e-06
1.71289e-05
-3.33554e-06
1.75414e-05
-4.10506e-06
-4.99729e-06
1.80735e-05
1.53338e-05
-2.11272e-09
1.53353e-05
-6.72308e-09
1.53377e-05
-1.23344e-08
1.53408e-05
-1.90065e-08
1.53446e-05
-2.66922e-08
1.53492e-05
-3.54488e-08
1.53546e-05
-4.55581e-08
1.53611e-05
-5.74307e-08
1.53687e-05
-7.15214e-08
1.53777e-05
-8.83735e-08
1.53883e-05
-1.087e-07
1.54009e-05
-1.3343e-07
1.54159e-05
-1.63727e-07
1.54339e-05
-2.01013e-07
1.54556e-05
-2.47007e-07
1.54817e-05
-3.03777e-07
1.55134e-05
-3.73806e-07
1.5552e-05
-4.60093e-07
1.55989e-05
-5.66273e-07
1.56561e-05
-6.96778e-07
1.57259e-05
-8.57029e-07
1.58111e-05
-1.05372e-06
1.59155e-05
-1.29514e-06
1.60433e-05
-1.59158e-06
1.62002e-05
-1.95585e-06
1.63935e-05
-2.40369e-06
1.66321e-05
-2.95512e-06
1.6929e-05
-3.63248e-06
1.7297e-05
-4.47306e-06
-5.47679e-06
1.77765e-05
1.53338e-05
-2.54348e-09
1.53351e-05
-8.01627e-09
1.53371e-05
-1.44015e-08
1.53399e-05
-2.17454e-08
1.53433e-05
-3.00826e-08
1.53473e-05
-3.95448e-08
1.53522e-05
-5.0436e-08
1.5358e-05
-6.31819e-08
1.53647e-05
-7.82755e-08
1.53727e-05
-9.63099e-08
1.5382e-05
-1.18052e-07
1.53931e-05
-1.44494e-07
1.54062e-05
-1.76879e-07
1.5422e-05
-2.16728e-07
1.54408e-05
-2.65878e-07
1.54636e-05
-3.26535e-07
1.54911e-05
-4.01349e-07
1.55245e-05
-4.93511e-07
1.55652e-05
-6.06895e-07
1.56146e-05
-7.46222e-07
1.56749e-05
-9.17289e-07
1.57484e-05
-1.12725e-06
1.58382e-05
-1.38499e-06
1.59482e-05
-1.70154e-06
1.60831e-05
-2.09073e-06
1.6249e-05
-2.56964e-06
1.6454e-05
-3.1601e-06
1.67095e-05
-3.88797e-06
1.7027e-05
-4.7905e-06
-5.89465e-06
1.74448e-05
1.53337e-05
-2.90923e-09
1.53348e-05
-9.12254e-09
1.53366e-05
-1.61915e-08
1.5339e-05
-2.41412e-08
1.5342e-05
-3.30547e-08
1.53455e-05
-4.31238e-08
1.53498e-05
-5.46805e-08
1.53548e-05
-6.81668e-08
1.53606e-05
-8.41047e-08
1.53674e-05
-1.03129e-07
1.53754e-05
-1.26052e-07
1.53848e-05
-1.5392e-07
1.5396e-05
-1.88042e-07
1.54093e-05
-2.30021e-07
1.54252e-05
-2.81791e-07
1.54443e-05
-3.45671e-07
1.54674e-05
-4.24446e-07
1.54954e-05
-5.21467e-07
1.55293e-05
-6.408e-07
1.55705e-05
-7.87404e-07
1.56206e-05
-9.67373e-07
1.56816e-05
-1.18823e-06
1.57559e-05
-1.45935e-06
1.58467e-05
-1.79236e-06
1.59579e-05
-2.2019e-06
1.60945e-05
-2.70619e-06
1.62629e-05
-3.32856e-06
1.64729e-05
-4.09797e-06
1.67341e-05
-5.05166e-06
-6.24184e-06
1.70813e-05
1.53336e-05
-3.21828e-09
1.53346e-05
-1.0059e-08
1.53361e-05
-1.77161e-08
1.53382e-05
-2.61915e-08
1.53407e-05
-3.55957e-08
1.53437e-05
-4.61666e-08
1.53473e-05
-5.82648e-08
1.53515e-05
-7.23485e-08
1.53564e-05
-8.8962e-08
1.5362e-05
-1.08772e-07
1.53686e-05
-1.32629e-07
1.53763e-05
-1.61622e-07
1.53854e-05
-1.97113e-07
1.53961e-05
-2.40766e-07
1.54089e-05
-2.94591e-07
1.54242e-05
-3.60997e-07
1.54426e-05
-4.42869e-07
1.54649e-05
-5.43681e-07
1.54917e-05
-6.67644e-07
1.55242e-05
-8.19897e-07
1.55636e-05
-1.00676e-06
1.56114e-05
-1.23602e-06
1.56694e-05
-1.5174e-06
1.57401e-05
-1.863e-06
1.58262e-05
-2.28802e-06
1.59315e-05
-2.81155e-06
1.6061e-05
-3.45806e-06
1.62221e-05
-4.25898e-06
1.64218e-05
-5.25144e-06
-6.50991e-06
1.66899e-05
1.53336e-05
-3.47583e-09
1.53344e-05
-1.08386e-08
1.53356e-05
-1.8986e-08
1.53373e-05
-2.78971e-08
1.53394e-05
-3.76976e-08
1.53419e-05
-4.86593e-08
1.53448e-05
-6.11689e-08
1.53482e-05
-7.56994e-08
1.5352e-05
-9.28114e-08
1.53565e-05
-1.13195e-07
1.53616e-05
-1.37729e-07
1.53675e-05
-1.67534e-07
1.53744e-05
-2.04009e-07
1.53825e-05
-2.48863e-07
1.5392e-05
-3.04159e-07
1.54034e-05
-3.72365e-07
1.5417e-05
-4.56438e-07
1.54332e-05
-5.59935e-07
1.54528e-05
-6.87164e-07
1.54762e-05
-8.43379e-07
1.55045e-05
-1.03504e-06
1.55386e-05
-1.27012e-06
1.55798e-05
-1.55855e-06
1.56294e-05
-1.91268e-06
1.56895e-05
-2.3481e-06
1.57624e-05
-2.88439e-06
1.5851e-05
-3.54674e-06
1.59603e-05
-4.36829e-06
1.60946e-05
-5.38572e-06
-6.69159e-06
1.62763e-05
1.53335e-05
-3.6858e-09
1.53342e-05
-1.1472e-08
1.53352e-05
-2.00117e-08
1.53366e-05
-2.92623e-08
1.53382e-05
-3.93573e-08
1.53402e-05
-5.05936e-08
1.53424e-05
-6.33798e-08
1.53449e-05
-7.8201e-08
1.53477e-05
-9.56282e-08
1.53509e-05
-1.16366e-07
1.53544e-05
-1.41313e-07
1.53585e-05
-1.71608e-07
1.53632e-05
-2.08673e-07
1.53686e-05
-2.54243e-07
1.53748e-05
-3.10409e-07
1.53821e-05
-3.79674e-07
1.53907e-05
-4.65032e-07
1.54009e-05
-5.70081e-07
1.54129e-05
-6.99177e-07
1.54271e-05
-8.5763e-07
1.5444e-05
-1.05196e-06
1.54641e-05
-1.29021e-06
1.5488e-05
-1.58238e-06
1.55162e-05
-1.94091e-06
1.55496e-05
-2.3815e-06
1.55891e-05
-2.92388e-06
1.56358e-05
-3.59341e-06
1.56916e-05
-4.42409e-06
1.57575e-05
-5.45161e-06
-6.78149e-06
1.58474e-05
1.53335e-05
-3.85162e-09
1.5334e-05
-1.19688e-08
1.53348e-05
-2.08041e-08
1.53358e-05
-3.02945e-08
1.5337e-05
-4.05768e-08
1.53384e-05
-5.19675e-08
1.53399e-05
-6.48921e-08
1.53416e-05
-7.98439e-08
1.53433e-05
-9.73987e-08
1.53452e-05
-1.18268e-07
1.53473e-05
-1.43358e-07
1.53495e-05
-1.73817e-07
1.53519e-05
-2.11072e-07
1.53545e-05
-2.56865e-07
1.53574e-05
-3.13293e-07
1.53606e-05
-3.82866e-07
1.53641e-05
-4.68581e-07
1.53681e-05
-5.74038e-07
1.53725e-05
-7.0359e-07
1.53774e-05
-8.62538e-07
1.53828e-05
-1.05738e-06
1.53888e-05
-1.29614e-06
1.53951e-05
-1.58873e-06
1.54017e-05
-1.9475e-06
1.54082e-05
-2.38798e-06
1.5414e-05
-2.9297e-06
1.54182e-05
-3.59764e-06
1.54198e-05
-4.42567e-06
1.5416e-05
-5.44781e-06
-6.77668e-06
1.54112e-05
1.53335e-05
-3.97675e-09
1.53338e-05
-1.23391e-08
1.53344e-05
-2.1376e-08
1.53351e-05
-3.10043e-08
1.53359e-05
-4.13631e-08
1.53367e-05
-5.27845e-08
1.53375e-05
-6.57074e-08
1.53383e-05
-8.06281e-08
1.5339e-05
-9.81208e-08
1.53397e-05
-1.18896e-07
1.53402e-05
-1.4386e-07
1.53405e-05
-1.74154e-07
1.53406e-05
-2.11197e-07
1.53405e-05
-2.56719e-07
1.534e-05
-3.12801e-07
1.53391e-05
-3.81929e-07
1.53375e-05
-4.67073e-07
1.53353e-05
-5.71793e-07
1.53321e-05
-7.00392e-07
1.53277e-05
-8.58099e-07
1.53216e-05
-1.05132e-06
1.53134e-05
-1.28792e-06
1.53023e-05
-1.57764e-06
1.52873e-05
-1.93254e-06
1.52671e-05
-2.36771e-06
1.52395e-05
-2.90211e-06
1.52016e-05
-3.55976e-06
1.51494e-05
-4.37347e-06
1.50764e-05
-5.37476e-06
-6.67719e-06
1.49769e-05
1.53334e-05
-4.06511e-09
1.53337e-05
-1.25946e-08
1.5334e-05
-2.17426e-08
1.53344e-05
-3.1406e-08
1.53348e-05
-4.17276e-08
1.53351e-05
-5.30547e-08
1.53352e-05
-6.58352e-08
1.53351e-05
-8.05626e-08
1.53348e-05
-9.78034e-08
1.53342e-05
-1.1826e-07
1.53332e-05
-1.42828e-07
1.53316e-05
-1.72631e-07
1.53295e-05
-2.09064e-07
1.53266e-05
-2.53826e-07
1.53228e-05
-3.08957e-07
1.53177e-05
-3.76897e-07
1.53112e-05
-4.60551e-07
1.53028e-05
-5.63405e-07
1.52921e-05
-6.89659e-07
1.52784e-05
-8.44415e-07
1.5261e-05
-1.0339e-06
1.52388e-05
-1.26576e-06
1.52106e-05
-1.54939e-06
1.51745e-05
-1.89641e-06
1.5128e-05
-2.32124e-06
1.50678e-05
-2.84189e-06
1.49889e-05
-3.48093e-06
1.48846e-05
-4.26914e-06
1.47446e-05
-5.23479e-06
-6.48625e-06
1.45537e-05
1.53334e-05
-4.12147e-09
1.53335e-05
-1.27493e-08
1.53337e-05
-2.19225e-08
1.53338e-05
-3.15178e-08
1.53338e-05
-4.16864e-08
1.53335e-05
-5.27936e-08
1.5333e-05
-6.52921e-08
1.53321e-05
-7.96656e-08
1.53308e-05
-9.64665e-08
1.53289e-05
-1.16383e-07
1.53263e-05
-1.4029e-07
1.5323e-05
-1.69282e-07
1.53186e-05
-2.04714e-07
1.5313e-05
-2.48235e-07
1.53059e-05
-3.01825e-07
1.52969e-05
-3.67846e-07
1.52854e-05
-4.49113e-07
1.5271e-05
-5.48996e-07
1.52529e-05
-6.71549e-07
1.52302e-05
-8.21689e-07
1.52017e-05
-1.0054e-06
1.51659e-05
-1.23001e-06
1.5121e-05
-1.50446e-06
1.50644e-05
-1.83977e-06
1.49926e-05
-2.24949e-06
1.49011e-05
-2.75036e-06
1.47832e-05
-3.36304e-06
1.46295e-05
-4.11548e-06
1.44267e-05
-5.03201e-06
-6.21028e-06
1.41508e-05
1.53334e-05
-4.15155e-09
1.53334e-05
-1.2821e-08
1.53335e-05
-2.19388e-08
1.53333e-05
-3.13619e-08
1.53329e-05
-4.12602e-08
1.53321e-05
-5.20227e-08
1.53309e-05
-6.41023e-08
1.53292e-05
-7.79642e-08
1.53269e-05
-9.41411e-08
1.53238e-05
-1.13301e-07
1.53198e-05
-1.36289e-07
1.53147e-05
-1.64159e-07
1.53082e-05
-1.9821e-07
1.53e-05
-2.40024e-07
1.52896e-05
-2.91499e-07
1.52767e-05
-3.54897e-07
1.52605e-05
-4.3291e-07
1.52402e-05
-5.28755e-07
1.5215e-05
-6.46301e-07
1.51835e-05
-7.90227e-07
1.51443e-05
-9.66212e-07
1.50955e-05
-1.18117e-06
1.50346e-05
-1.44353e-06
1.49583e-05
-1.76354e-06
1.48626e-05
-2.1537e-06
1.47415e-05
-2.62929e-06
1.45871e-05
-3.20866e-06
1.43879e-05
-3.91627e-06
1.4128e-05
-4.77212e-06
-5.85861e-06
1.37763e-05
1.53333e-05
-4.16464e-09
1.53334e-05
-1.28327e-08
1.53332e-05
-2.1818e-08
1.53328e-05
-3.09632e-08
1.53321e-05
-4.04738e-08
1.53308e-05
-5.07696e-08
1.5329e-05
-6.22971e-08
1.53265e-05
-7.54936e-08
1.53232e-05
-9.08682e-08
1.5319e-05
-1.09064e-07
1.53136e-05
-1.30886e-07
1.53068e-05
-1.57334e-07
1.52982e-05
-1.8964e-07
1.52875e-05
-2.29302e-07
1.52741e-05
-2.78114e-07
1.52574e-05
-3.38213e-07
1.52367e-05
-4.12142e-07
1.52108e-05
-5.02934e-07
1.51788e-05
-6.1423e-07
1.5139e-05
-7.50423e-07
1.50896e-05
-9.16833e-07
1.50283e-05
-1.11991e-06
1.49522e-05
-1.36744e-06
1.48575e-05
-1.66885e-06
1.47393e-05
-2.03544e-06
1.45908e-05
-2.48082e-06
1.4403e-05
-3.02088e-06
1.41629e-05
-3.67614e-06
1.38529e-05
-4.46208e-06
-5.44276e-06
1.3437e-05
1.53333e-05
-4.16741e-09
1.53333e-05
-1.2814e-08
1.53331e-05
-2.16014e-08
1.53325e-05
-3.0354e-08
1.53314e-05
-3.93529e-08
1.53297e-05
-4.90658e-08
1.53273e-05
-5.9914e-08
1.53241e-05
-7.22969e-08
1.53199e-05
-8.66985e-08
1.53146e-05
-1.03731e-07
1.53079e-05
-1.24152e-07
1.52994e-05
-1.48896e-07
1.52889e-05
-1.79113e-07
1.52758e-05
-2.162e-07
1.52595e-05
-2.61831e-07
1.52393e-05
-3.17996e-07
1.52142e-05
-3.8706e-07
1.51831e-05
-4.71841e-07
1.51446e-05
-5.75719e-07
1.50969e-05
-7.0276e-07
1.5038e-05
-8.57876e-07
1.49651e-05
-1.04699e-06
1.48748e-05
-1.2772e-06
1.4763e-05
-1.55702e-06
1.4624e-05
-1.89648e-06
1.44506e-05
-2.30742e-06
1.42329e-05
-2.80318e-06
1.3957e-05
-3.40021e-06
1.36046e-05
-4.10967e-06
-4.97568e-06
1.31375e-05
1.53333e-05
-4.18327e-09
1.53333e-05
-1.28055e-08
1.53331e-05
-2.13204e-08
1.53323e-05
-2.95626e-08
1.53308e-05
-3.79314e-08
1.53287e-05
-4.69512e-08
1.53258e-05
-5.69974e-08
1.53219e-05
-6.84249e-08
1.53169e-05
-8.16926e-08
1.53106e-05
-9.73769e-08
1.53026e-05
-1.16177e-07
1.52927e-05
-1.38952e-07
1.52803e-05
-1.66758e-07
1.5265e-05
-2.00877e-07
1.5246e-05
-2.42845e-07
1.52225e-05
-2.94483e-07
1.51934e-05
-3.57956e-07
1.51574e-05
-4.35841e-07
1.51129e-05
-5.3122e-07
1.50579e-05
-6.47801e-07
1.49901e-05
-7.90041e-07
1.49064e-05
-9.63295e-07
1.48031e-05
-1.17395e-06
1.46757e-05
-1.42953e-06
1.45179e-05
-1.73877e-06
1.43222e-05
-2.11172e-06
1.40783e-05
-2.55926e-06
1.3772e-05
-3.09385e-06
1.33852e-05
-3.7229e-06
-4.47068e-06
1.28802e-05
1.53334e-05
-4.23393e-09
1.53334e-05
-1.28717e-08
1.53332e-05
-2.10258e-08
1.53322e-05
-2.8614e-08
1.53305e-05
-3.6244e-08
1.5328e-05
-4.44698e-08
1.53246e-05
-5.3596e-08
1.53201e-05
-6.39338e-08
1.53144e-05
-7.59192e-08
1.53071e-05
-9.00845e-08
1.5298e-05
-1.07061e-07
1.52866e-05
-1.27624e-07
1.52726e-05
-1.52725e-07
1.52552e-05
-1.83517e-07
1.52338e-05
-2.2138e-07
1.52072e-05
-2.6795e-07
1.51745e-05
-3.25168e-07
1.5134e-05
-3.95346e-07
1.5084e-05
-4.81242e-07
1.50224e-05
-5.86171e-07
1.49464e-05
-7.14108e-07
1.48529e-05
-8.69811e-07
1.47379e-05
-1.05891e-06
1.45963e-05
-1.28796e-06
1.44219e-05
-1.56437e-06
1.42067e-05
-1.89646e-06
1.39403e-05
-2.29284e-06
1.36087e-05
-2.76234e-06
1.31953e-05
-3.3095e-06
-3.94039e-06
1.26651e-05
1.53335e-05
-4.36337e-09
1.53337e-05
-1.30891e-08
1.53334e-05
-2.07678e-08
1.53324e-05
-2.75425e-08
1.53304e-05
-3.43313e-08
1.53276e-05
-4.16689e-08
1.53238e-05
-4.97604e-08
1.53188e-05
-5.88834e-08
1.53123e-05
-6.9452e-08
1.53041e-05
-8.19438e-08
1.5294e-05
-9.69147e-08
1.52814e-05
-1.15048e-07
1.52659e-05
-1.3718e-07
1.52467e-05
-1.64321e-07
1.5223e-05
-1.97684e-07
1.51937e-05
-2.387e-07
1.51576e-05
-2.8907e-07
1.51131e-05
-3.50815e-07
1.50582e-05
-4.26348e-07
1.49906e-05
-5.18565e-07
1.49074e-05
-6.30933e-07
1.48052e-05
-7.6759e-07
1.46797e-05
-9.33414e-07
1.45257e-05
-1.13398e-06
1.43368e-05
-1.37541e-06
1.41047e-05
-1.66437e-06
1.38194e-05
-2.00753e-06
1.34676e-05
-2.41057e-06
1.30345e-05
-2.87636e-06
-3.39586e-06
1.24899e-05
1.53336e-05
-4.64551e-09
1.53341e-05
-1.35757e-08
1.53339e-05
-2.05821e-08
1.53327e-05
-2.6375e-08
1.53307e-05
-3.22465e-08
1.53276e-05
-3.86055e-08
1.53234e-05
-4.55508e-08
1.53179e-05
-5.33468e-08
1.53108e-05
-6.23805e-08
1.53019e-05
-7.30604e-08
1.52908e-05
-8.58636e-08
1.52772e-05
-1.01375e-07
1.52603e-05
-1.20305e-07
1.52395e-05
-1.43513e-07
1.52138e-05
-1.72027e-07
1.51822e-05
-2.07064e-07
1.51432e-05
-2.50064e-07
1.50951e-05
-3.02743e-07
1.50359e-05
-3.67146e-07
1.49631e-05
-4.45724e-07
1.48736e-05
-5.41419e-07
1.47637e-05
-6.57736e-07
1.46291e-05
-7.98821e-07
1.44644e-05
-9.69286e-07
1.4263e-05
-1.17402e-06
1.40168e-05
-1.41813e-06
1.3716e-05
-1.7067e-06
1.33482e-05
-2.04284e-06
1.29011e-05
-2.42926e-06
-2.84579e-06
1.23511e-05
1.53339e-05
-5.22165e-09
1.53348e-05
-1.45104e-08
1.53347e-05
-2.04694e-08
1.53335e-05
-2.51295e-08
1.53313e-05
-3.00317e-08
1.5328e-05
-3.53159e-08
1.53234e-05
-4.10121e-08
1.53175e-05
-4.73888e-08
1.53099e-05
-5.47896e-08
1.53004e-05
-6.35376e-08
1.52885e-05
-7.40382e-08
1.52739e-05
-8.6767e-08
1.52559e-05
-1.02299e-07
1.52338e-05
-1.21334e-07
1.52064e-05
-1.44707e-07
1.51728e-05
-1.73403e-07
1.51313e-05
-2.08593e-07
1.50802e-05
-2.51668e-07
1.50174e-05
-3.0429e-07
1.49401e-05
-3.68448e-07
1.48452e-05
-4.46538e-07
1.47289e-05
-5.41422e-07
1.45867e-05
-6.56576e-07
1.44131e-05
-7.95684e-07
1.42014e-05
-9.62405e-07
1.39438e-05
-1.16045e-06
1.36308e-05
-1.39374e-06
1.32512e-05
-1.66322e-06
1.27956e-05
-1.97368e-06
-2.29582e-06
1.22456e-05
1.53345e-05
-6.34487e-09
1.53361e-05
-1.61336e-08
1.5336e-05
-2.04365e-08
1.53348e-05
-2.38966e-08
1.53325e-05
-2.77607e-08
1.53291e-05
-3.18492e-08
1.53243e-05
-3.62051e-08
1.5318e-05
-4.10893e-08
1.531e-05
-4.67782e-08
1.52999e-05
-5.34843e-08
1.52874e-05
-6.15753e-08
1.52721e-05
-7.13908e-08
1.52531e-05
-8.33679e-08
1.52298e-05
-9.80403e-08
1.52012e-05
-1.16039e-07
1.51659e-05
-1.38112e-07
1.51224e-05
-1.65147e-07
1.5069e-05
-1.982e-07
1.50032e-05
-2.38532e-07
1.49224e-05
-2.87659e-07
1.48233e-05
-3.47415e-07
1.47019e-05
-4.20008e-07
1.45537e-05
-5.08406e-07
1.43734e-05
-6.15414e-07
1.41544e-05
-7.43401e-07
1.38889e-05
-8.94903e-07
1.35682e-05
-1.07304e-06
1.31814e-05
-1.27648e-06
1.2723e-05
-1.51524e-06
-1.74731e-06
1.21745e-05
1.53355e-05
-8.49036e-09
1.53377e-05
-1.84031e-08
1.53377e-05
-2.04234e-08
1.53367e-05
-2.28147e-08
1.53344e-05
-2.54851e-08
1.53308e-05
-2.82488e-08
1.53258e-05
-3.12052e-08
1.53192e-05
-3.45427e-08
1.53109e-05
-3.84711e-08
1.53005e-05
-4.30445e-08
1.52876e-05
-4.86498e-08
1.52716e-05
-5.54536e-08
1.5252e-05
-6.37601e-08
1.52279e-05
-7.39315e-08
1.51983e-05
-8.63896e-08
1.51618e-05
-1.01638e-07
1.51169e-05
-1.20281e-07
1.50618e-05
-1.43042e-07
1.4994e-05
-1.70793e-07
1.49109e-05
-2.04579e-07
1.48092e-05
-2.45675e-07
1.46848e-05
-2.95614e-07
1.45335e-05
-3.57082e-07
1.43499e-05
-4.31827e-07
1.41271e-05
-5.20647e-07
1.38575e-05
-6.25309e-07
1.35327e-05
-7.48146e-07
1.31418e-05
-8.85644e-07
1.26801e-05
-1.05354e-06
-1.18405e-06
1.21169e-05
1.53392e-05
-1.43521e-08
1.53413e-05
-2.04768e-08
1.53407e-05
-1.98846e-08
1.5339e-05
-2.11299e-08
1.53362e-05
-2.2619e-08
1.5332e-05
-2.40522e-08
1.53263e-05
-2.55634e-08
1.53191e-05
-2.72762e-08
1.53099e-05
-2.9314e-08
1.52985e-05
-3.16553e-08
1.52845e-05
-3.45769e-08
1.52671e-05
-3.81309e-08
1.52459e-05
-4.24858e-08
1.52198e-05
-4.78418e-08
1.51878e-05
-5.4431e-08
1.51487e-05
-6.25328e-08
1.51009e-05
-7.24838e-08
1.50426e-05
-8.46878e-08
1.49714e-05
-9.96313e-08
1.48847e-05
-1.17903e-07
1.47792e-05
-1.402e-07
1.4651e-05
-1.67346e-07
1.44934e-05
-1.99503e-07
1.42994e-05
-2.37806e-07
1.40628e-05
-2.84078e-07
1.37766e-05
-3.39081e-07
1.34316e-05
-4.03155e-07
1.3021e-05
-4.75063e-07
1.253e-05
-5.62527e-07
-5.5724e-07
1.19032e-05
1.5319e-05
1.52985e-05
1.52786e-05
1.52575e-05
1.52349e-05
1.52108e-05
1.51853e-05
1.5158e-05
1.51287e-05
1.5097e-05
1.50624e-05
1.50243e-05
1.49818e-05
1.4934e-05
1.48795e-05
1.4817e-05
1.47445e-05
1.46598e-05
1.45602e-05
1.44423e-05
1.43021e-05
1.41348e-05
1.39353e-05
1.36975e-05
1.34134e-05
1.30743e-05
1.26711e-05
1.21961e-05
1.16335e-05
1.10763e-05
1.86205e-05
-8.71145e-06
8.94749e-06
1.8411e-05
-8.90259e-06
9.1121e-06
1.81579e-05
-9.09291e-06
9.34598e-06
1.78649e-05
-9.27286e-06
9.56593e-06
1.75391e-05
-9.45281e-06
9.77862e-06
1.71881e-05
-9.63842e-06
9.98942e-06
1.68165e-05
-9.83173e-06
1.02033e-05
1.6427e-05
-1.00339e-05
1.04234e-05
1.60211e-05
-1.0246e-05
1.06519e-05
1.5599e-05
-1.04685e-05
1.08906e-05
1.516e-05
-1.07019e-05
1.11408e-05
1.47031e-05
-1.09464e-05
1.14033e-05
1.42272e-05
-1.1203e-05
1.16789e-05
1.37311e-05
-1.14727e-05
1.19688e-05
1.32138e-05
-1.17573e-05
1.22746e-05
1.2674e-05
-1.20588e-05
1.25985e-05
1.21102e-05
-1.23796e-05
1.29434e-05
1.15205e-05
-1.27227e-05
1.33124e-05
1.09024e-05
-1.30918e-05
1.37099e-05
1.02527e-05
-1.34911e-05
1.41408e-05
9.56723e-06
-1.3926e-05
1.46114e-05
8.84083e-06
-1.44032e-05
1.51296e-05
8.06653e-06
-1.49305e-05
1.57048e-05
7.23541e-06
-1.55186e-05
1.63497e-05
6.33441e-06
-1.61792e-05
1.70802e-05
5.35004e-06
-1.69303e-05
1.79146e-05
4.26273e-06
-1.77889e-05
1.88762e-05
2.99027e-06
-1.8808e-05
2.00805e-05
1.68654e-06
-1.98465e-05
2.11503e-05
-2.15942e-05
2.32807e-05
1.88208e-05
-8.4562e-06
1.8523e-05
-8.60476e-06
1.81924e-05
-8.76227e-06
1.78419e-05
-8.92242e-06
1.74776e-05
-9.08846e-06
1.71018e-05
-9.2627e-06
1.67154e-05
-9.44526e-06
1.63174e-05
-9.63599e-06
1.59066e-05
-9.83511e-06
1.5481e-05
-1.0043e-05
1.50392e-05
-1.026e-05
1.45798e-05
-1.04871e-05
1.41019e-05
-1.07251e-05
1.36046e-05
-1.09754e-05
1.30869e-05
-1.12396e-05
1.25475e-05
-1.15194e-05
1.19849e-05
-1.18169e-05
1.13968e-05
-1.21347e-05
1.07808e-05
-1.24758e-05
1.01336e-05
-1.28439e-05
9.45114e-06
-1.32435e-05
8.72805e-06
-1.36801e-05
7.95757e-06
-1.416e-05
7.13086e-06
-1.46919e-05
6.23637e-06
-1.52848e-05
5.25943e-06
-1.59533e-05
4.17873e-06
-1.67082e-05
2.956e-06
-1.75853e-05
1.63026e-06
-1.85208e-05
-1.99639e-05
1.86949e-05
-8.14872e-06
1.83696e-05
-8.27948e-06
1.80289e-05
-8.42156e-06
1.76782e-05
-8.57172e-06
1.73185e-05
-8.72873e-06
1.69481e-05
-8.8923e-06
1.65653e-05
-9.06246e-06
1.61687e-05
-9.23942e-06
1.57573e-05
-9.42367e-06
1.53301e-05
-9.61584e-06
1.48867e-05
-9.81662e-06
1.44265e-05
-1.00268e-05
1.39487e-05
-1.02474e-05
1.34526e-05
-1.04793e-05
1.2937e-05
-1.0724e-05
1.24004e-05
-1.09828e-05
1.18411e-05
-1.12575e-05
1.12568e-05
-1.15504e-05
1.0645e-05
-1.1864e-05
1.00024e-05
-1.22012e-05
9.32469e-06
-1.25658e-05
8.60676e-06
-1.29621e-05
7.8419e-06
-1.33952e-05
7.02153e-06
-1.38715e-05
6.13462e-06
-1.43978e-05
5.16685e-06
-1.49855e-05
4.09903e-06
-1.56404e-05
2.90342e-06
-1.63897e-05
1.57862e-06
-1.7196e-05
-1.83853e-05
1.85728e-05
-7.82809e-06
1.82411e-05
-7.94782e-06
1.78973e-05
-8.07772e-06
1.75426e-05
-8.21704e-06
1.7177e-05
-8.36317e-06
1.67995e-05
-8.51473e-06
1.6409e-05
-8.67202e-06
1.60053e-05
-8.83573e-06
1.5588e-05
-9.00638e-06
1.51566e-05
-9.18445e-06
1.47105e-05
-9.37049e-06
1.42488e-05
-9.56514e-06
1.37706e-05
-9.76917e-06
1.32748e-05
-9.9835e-06
1.276e-05
-1.02092e-05
1.22248e-05
-1.04476e-05
1.16674e-05
-1.07001e-05
1.10856e-05
-1.09686e-05
1.04767e-05
-1.12551e-05
9.83744e-06
-1.1562e-05
9.16375e-06
-1.18922e-05
8.4505e-06
-1.22489e-05
7.69125e-06
-1.26359e-05
6.87785e-06
-1.30581e-05
5.99993e-06
-1.35199e-05
5.04424e-06
-1.40299e-05
3.99341e-06
-1.45895e-05
2.82559e-06
-1.52219e-05
1.52312e-06
-1.58935e-05
-1.68622e-05
1.84129e-05
-7.49682e-06
1.8072e-05
-7.60694e-06
1.77202e-05
-7.72597e-06
1.73582e-05
-7.85495e-06
1.69857e-05
-7.99072e-06
1.66023e-05
-8.1313e-06
1.62073e-05
-8.277e-06
1.58001e-05
-8.4286e-06
1.53803e-05
-8.58657e-06
1.49471e-05
-8.75126e-06
1.44997e-05
-8.9231e-06
1.40373e-05
-9.10269e-06
1.35588e-05
-9.29071e-06
1.30633e-05
-9.48795e-06
1.25494e-05
-9.69531e-06
1.20157e-05
-9.91384e-06
1.14603e-05
-1.01448e-05
1.08811e-05
-1.03894e-05
1.02755e-05
-1.06495e-05
9.64023e-06
-1.09267e-05
8.97124e-06
-1.12232e-05
8.26366e-06
-1.15413e-05
7.51137e-06
-1.18836e-05
6.70673e-06
-1.22535e-05
5.84014e-06
-1.26533e-05
4.89953e-06
-1.30892e-05
3.86929e-06
-1.35593e-05
2.7304e-06
-1.4083e-05
1.46013e-06
-1.46233e-05
-1.54021e-05
1.82177e-05
-7.15687e-06
1.78691e-05
-7.25837e-06
1.75108e-05
-7.36769e-06
1.7143e-05
-7.48707e-06
1.67653e-05
-7.61304e-06
1.63772e-05
-7.74321e-06
1.5978e-05
-7.87785e-06
1.55673e-05
-8.01784e-06
1.51443e-05
-8.16363e-06
1.47086e-05
-8.31548e-06
1.42592e-05
-8.47376e-06
1.37955e-05
-8.63897e-06
1.33165e-05
-8.81168e-06
1.28211e-05
-8.99253e-06
1.2308e-05
-9.18222e-06
1.17757e-05
-9.38156e-06
1.12224e-05
-9.59147e-06
1.0646e-05
-9.813e-06
1.00438e-05
-1.00473e-05
9.41276e-06
-1.02957e-05
8.74905e-06
-1.05595e-05
8.04802e-06
-1.08403e-05
7.30395e-06
-1.11396e-05
6.50978e-06
-1.14593e-05
5.65677e-06
-1.18003e-05
4.73408e-06
-1.21666e-05
3.7278e-06
-1.2553e-05
2.6214e-06
-1.29766e-05
1.39173e-06
-1.33936e-05
-1.40103e-05
1.79864e-05
-6.80915e-06
1.76308e-05
-6.90277e-06
1.72663e-05
-7.0032e-06
1.68928e-05
-7.11354e-06
1.65099e-05
-7.23017e-06
1.61171e-05
-7.35045e-06
1.57139e-05
-7.47464e-06
1.52998e-05
-7.60366e-06
1.4874e-05
-7.73793e-06
1.44362e-05
-7.87761e-06
1.39854e-05
-8.02299e-06
1.35209e-05
-8.17447e-06
1.30417e-05
-8.3325e-06
1.25468e-05
-8.49757e-06
1.20348e-05
-8.6702e-06
1.15042e-05
-8.851e-06
1.09534e-05
-9.04061e-06
1.03801e-05
-9.23976e-06
9.782e-06
-9.44919e-06
9.15605e-06
-9.66971e-06
8.49866e-06
-9.90208e-06
7.8055e-06
-1.01471e-05
7.07132e-06
-1.04054e-05
6.2897e-06
-1.06777e-05
5.45281e-06
-1.09634e-05
4.55101e-06
-1.12648e-05
3.57217e-06
-1.15742e-05
2.50212e-06
-1.19065e-05
1.31963e-06
-1.22111e-05
-1.26907e-05
1.77187e-05
-6.45442e-06
1.73568e-05
-6.54081e-06
1.69866e-05
-6.63306e-06
1.6608e-05
-6.73491e-06
1.62205e-05
-6.84269e-06
1.58237e-05
-6.95364e-06
1.5417e-05
-7.06796e-06
1.5e-05
-7.1866e-06
1.4572e-05
-7.30993e-06
1.41324e-05
-7.43803e-06
1.36805e-05
-7.57111e-06
1.32155e-05
-7.70946e-06
1.27364e-05
-7.85344e-06
1.22423e-05
-8.00338e-06
1.17317e-05
-8.15964e-06
1.12033e-05
-8.32263e-06
1.06554e-05
-8.49274e-06
1.00861e-05
-8.67039e-06
9.49286e-06
-8.85598e-06
8.873e-06
-9.04985e-06
8.22317e-06
-9.25226e-06
7.53941e-06
-9.46334e-06
6.81694e-06
-9.68292e-06
6.05003e-06
-9.91079e-06
5.23179e-06
-1.01452e-05
4.3538e-06
-1.03868e-05
3.40573e-06
-1.06261e-05
2.37564e-06
-1.08764e-05
1.24537e-06
-1.10808e-05
-1.14454e-05
1.74155e-05
-6.09339e-06
1.70478e-05
-6.17315e-06
1.66726e-05
-6.25788e-06
1.62895e-05
-6.35176e-06
1.5898e-05
-6.45117e-06
1.54976e-05
-6.5533e-06
1.5088e-05
-6.65832e-06
1.46685e-05
-6.76714e-06
1.42387e-05
-6.8801e-06
1.37979e-05
-6.99722e-06
1.33454e-05
-7.11861e-06
1.28804e-05
-7.24447e-06
1.2402e-05
-7.37505e-06
1.19092e-05
-7.51055e-06
1.14007e-05
-7.65119e-06
1.08752e-05
-7.79716e-06
1.03312e-05
-7.94866e-06
9.7666e-06
-8.10582e-06
9.17935e-06
-8.26873e-06
8.56685e-06
-8.43734e-06
7.92606e-06
-8.61146e-06
7.25339e-06
-8.79068e-06
6.54461e-06
-8.97414e-06
5.79467e-06
-9.16085e-06
4.99761e-06
-9.34813e-06
4.14622e-06
-9.53537e-06
3.23194e-06
-9.71182e-06
2.24489e-06
-9.88938e-06
1.17047e-06
-1.00064e-05
-1.02749e-05
1.70782e-05
-5.72678e-06
1.67056e-05
-5.80049e-06
1.6326e-05
-5.87835e-06
1.5939e-05
-5.96475e-06
1.55441e-05
-6.05625e-06
1.51409e-05
-6.15007e-06
1.47289e-05
-6.24634e-06
1.43077e-05
-6.34592e-06
1.38767e-05
-6.4491e-06
1.34353e-05
-6.55583e-06
1.29828e-05
-6.66614e-06
1.25185e-05
-6.78017e-06
1.20415e-05
-6.89804e-06
1.15508e-05
-7.01985e-06
1.10453e-05
-7.14565e-06
1.05236e-05
-7.2755e-06
9.98429e-06
-7.40936e-06
9.42564e-06
-7.54717e-06
8.84562e-06
-7.68871e-06
8.24189e-06
-7.83362e-06
7.61174e-06
-7.98131e-06
6.95197e-06