/*--------------------------------*- C++ -*----------------------------------*\
  =========                 |
  \\      /  F ield         | OpenFOAM: The Open Source CFD Toolbox
   \\    /   O peration     | Website:  https://openfoam.org
    \\  /    A nd           | Version:  11
     \\/     M anipulation  |
\*---------------------------------------------------------------------------*/
FoamFile
{
    format      ascii;
    class       volScalarField;
    location    "0.2";
    object      p;
}
// * * * * * * * * * * * * * * * * * * * * * * * * * * * * * * * * * * * * * //

dimensions      [0 2 -2 0 0 0 0];

internalField   nonuniform List<scalar> 
12600
(
0.0398773
0.0453985
0.051343
0.0482016
0.0433183
0.0440091
0.0464588
0.0464956
0.0457677
0.0456023
0.045699
0.0457053
0.0456604
0.0456268
0.0455992
0.0455662
0.0455268
0.0454814
0.0454288
0.0453672
0.0452944
0.0452079
0.0451042
0.0449793
0.044828
0.0446443
0.044416
0.0441466
0.0438192
0.0433889
0.0396568
0.0455615
0.0515781
0.047972
0.0430087
0.0442811
0.046522
0.04645
0.0457095
0.0456176
0.0457205
0.045711
0.0456629
0.0456296
0.0456015
0.0455681
0.0455287
0.0454836
0.0454315
0.0453705
0.0452985
0.045213
0.0451107
0.0449874
0.044838
0.0446573
0.0444286
0.044159
0.0438325
0.0433942
0.0395031
0.0455933
0.0516866
0.0481101
0.0430157
0.044265
0.0464796
0.0463281
0.0456838
0.0456419
0.0457317
0.0457113
0.0456633
0.0456325
0.0456049
0.0455713
0.0455323
0.0454879
0.0454367
0.0453767
0.0453061
0.0452223
0.0451221
0.0450014
0.044855
0.0446769
0.0444551
0.0441888
0.0438576
0.0434224
0.0394168
0.0456755
0.0517567
0.0479359
0.0430206
0.0444438
0.0464673
0.0462532
0.0456789
0.0456584
0.0457351
0.0457113
0.045666
0.0456365
0.045609
0.0455756
0.0455373
0.045494
0.045444
0.0453858
0.0453172
0.045236
0.0451391
0.0450223
0.0448808
0.0447084
0.0444944
0.0442348
0.0439067
0.0434803
0.0393642
0.0457012
0.0517679
0.0479014
0.0430537
0.0444827
0.0464606
0.0462066
0.0456646
0.0456647
0.0457392
0.0457125
0.0456696
0.0456409
0.0456138
0.0455811
0.0455438
0.0455018
0.0454536
0.0453975
0.0453317
0.0452539
0.0451612
0.0450497
0.0449147
0.0447502
0.0445464
0.0442973
0.0439791
0.0435719
0.0393274
0.0457174
0.0517948
0.0478666
0.0430642
0.0445179
0.046468
0.0461772
0.0456524
0.0456697
0.0457425
0.0457138
0.0456733
0.0456458
0.0456194
0.0455876
0.0455516
0.0455113
0.0454652
0.0454118
0.0453493
0.0452757
0.0451882
0.0450833
0.0449565
0.044802
0.044611
0.0443766
0.0440758
0.0436943
0.0393038
0.0457241
0.0518013
0.047848
0.0430634
0.0445369
0.0464779
0.0461626
0.0456432
0.0456719
0.0457454
0.0457158
0.0456771
0.0456511
0.0456256
0.045595
0.0455606
0.0455223
0.0454787
0.0454284
0.0453699
0.0453012
0.0452198
0.0451226
0.0450055
0.0448632
0.0446876
0.0444719
0.044195
0.0438461
0.0392877
0.0457237
0.0518052
0.0478391
0.0430601
0.0445495
0.046487
0.0461552
0.0456365
0.0456732
0.0457483
0.0457187
0.0456812
0.0456568
0.0456324
0.0456033
0.0455708
0.0455347
0.045494
0.0454472
0.0453931
0.04533
0.0452556
0.0451672
0.0450612
0.0449329
0.0447754
0.0445822
0.0443346
0.0440243
0.0392769
0.0457225
0.0518083
0.0478338
0.0430559
0.0445562
0.0464943
0.0461523
0.0456325
0.0456742
0.0457512
0.0457219
0.0456857
0.0456629
0.0456399
0.0456124
0.0455819
0.0455484
0.0455108
0.0454679
0.0454187
0.0453617
0.045295
0.0452164
0.0451227
0.0450102
0.044873
0.0447058
0.0444924
0.0442267
0.0392695
0.0457208
0.0518101
0.0478301
0.0430527
0.0445608
0.0465
0.0461512
0.0456305
0.0456755
0.0457542
0.0457257
0.0456905
0.0456693
0.0456479
0.0456223
0.045594
0.0455632
0.045529
0.0454903
0.0454464
0.045396
0.0453376
0.0452695
0.0451892
0.0450939
0.044979
0.0448404
0.0446654
0.0444498
0.0392645
0.0457188
0.0518112
0.0478284
0.0430505
0.0445639
0.0465041
0.0461513
0.0456302
0.0456772
0.0457574
0.0457299
0.0456957
0.0456761
0.0456564
0.0456327
0.0456068
0.0455789
0.0455483
0.0455141
0.0454758
0.0454324
0.0453828
0.0453258
0.0452597
0.0451826
0.0450915
0.0449838
0.0448504
0.0446894
0.0392615
0.0457171
0.0518121
0.0478277
0.0430492
0.0445663
0.0465072
0.0461522
0.0456311
0.0456795
0.0457609
0.0457344
0.0457013
0.0456832
0.0456653
0.0456436
0.0456202
0.0455954
0.0455685
0.045539
0.0455065
0.0454703
0.0454299
0.0453844
0.0453331
0.045275
0.0452085
0.0451332
0.0450437
0.0449408
0.0392599
0.0457159
0.0518127
0.0478277
0.0430489
0.0445684
0.0465095
0.0461533
0.0456329
0.0456822
0.0457646
0.0457391
0.0457071
0.0456906
0.0456745
0.0456549
0.0456341
0.0456124
0.0455894
0.0455647
0.0455381
0.0455094
0.0454783
0.0454446
0.0454083
0.0453694
0.045328
0.0452856
0.0452412
0.0451981
0.0392593
0.0457156
0.0518134
0.0478282
0.0430494
0.0445705
0.0465115
0.0461548
0.0456354
0.0456854
0.0457684
0.0457441
0.0457132
0.0456982
0.0456839
0.0456665
0.0456482
0.0456297
0.0456107
0.0455909
0.0455703
0.0455491
0.0455274
0.0455055
0.0454841
0.0454643
0.0454478
0.0454381
0.0454385
0.0454551
0.0392595
0.045716
0.0518142
0.0478288
0.0430506
0.0445727
0.0465132
0.0461565
0.0456382
0.0456889
0.0457725
0.0457491
0.0457195
0.045706
0.0456935
0.0456782
0.0456625
0.0456473
0.0456322
0.0456172
0.0456027
0.0455889
0.0455765
0.0455662
0.0455594
0.0455582
0.0455658
0.0455875
0.045631
0.0457051
0.0392606
0.0457171
0.0518152
0.0478299
0.0430522
0.0445749
0.046515
0.0461585
0.0456414
0.0456926
0.0457767
0.0457543
0.045726
0.0457138
0.0457031
0.0456899
0.0456768
0.0456648
0.0456536
0.0456434
0.0456348
0.0456284
0.045625
0.0456259
0.0456331
0.0456497
0.04568
0.0457309
0.0458144
0.0459413
0.0392624
0.0457189
0.0518166
0.0478314
0.0430542
0.0445766
0.0465169
0.046161
0.0456447
0.0456965
0.0457811
0.0457595
0.0457324
0.0457217
0.0457126
0.0457015
0.0456909
0.045682
0.0456747
0.0456692
0.0456664
0.045667
0.0456723
0.0456839
0.0457044
0.0457374
0.0457885
0.0458659
0.0459847
0.0461578
0.0392651
0.0457215
0.0518181
0.0478334
0.0430566
0.0445781
0.0465188
0.0461641
0.0456481
0.0457005
0.0457855
0.0457648
0.0457388
0.0457294
0.0457219
0.0457128
0.0457047
0.0456989
0.0456952
0.0456943
0.045697
0.0457044
0.0457179
0.0457395
0.0457722
0.0458203
0.0458898
0.0459901
0.0461386
0.0463492
0.0392687
0.0457246
0.0518196
0.0478358
0.0430598
0.0445793
0.0465203
0.0461673
0.045652
0.0457046
0.04579
0.04577
0.0457452
0.0457369
0.0457309
0.0457237
0.0457181
0.0457151
0.045715
0.0457185
0.0457264
0.0457401
0.0457613
0.0457922
0.045836
0.0458973
0.0459827
0.046102
0.0462737
0.046512
0.0392736
0.0457283
0.0518208
0.0478389
0.0430637
0.0445801
0.046521
0.0461709
0.0456564
0.0457089
0.0457944
0.0457751
0.0457513
0.0457441
0.0457396
0.0457342
0.0457308
0.0457306
0.0457339
0.0457414
0.0457543
0.0457739
0.0458021
0.0458414
0.045895
0.0459679
0.0460664
0.0462005
0.0463885
0.0466438
0.0392804
0.0457323
0.0518215
0.0478429
0.0430684
0.04458
0.0465204
0.0461749
0.0456617
0.0457133
0.0457987
0.04578
0.0457573
0.045751
0.0457477
0.045744
0.0457428
0.0457452
0.0457516
0.0457629
0.0457803
0.0458053
0.0458399
0.0458867
0.045949
0.0460316
0.0461405
0.0462853
0.0464829
0.0467449
0.0392897
0.0457355
0.0518215
0.0478488
0.0430741
0.0445781
0.0465181
0.04618
0.0456684
0.0457177
0.0458027
0.0457848
0.0457629
0.0457573
0.0457552
0.0457532
0.0457539
0.0457587
0.045768
0.0457828
0.0458043
0.0458342
0.0458745
0.0459278
0.0459975
0.0460881
0.0462051
0.0463569
0.0465578
0.046817
0.0393022
0.0457382
0.0518199
0.0478563
0.0430805
0.0445739
0.0465138
0.0461868
0.0456768
0.0457218
0.0458063
0.0457893
0.045768
0.0457629
0.045762
0.0457615
0.045764
0.045771
0.045783
0.0458009
0.0458261
0.0458603
0.0459056
0.0459646
0.0460405
0.0461375
0.0462603
0.0464161
0.0466153
0.0468638
0.0393197
0.0457396
0.0518168
0.0478672
0.0430858
0.0445637
0.0465074
0.0461978
0.0456873
0.0457252
0.0458093
0.0457937
0.0457726
0.0457678
0.045768
0.0457688
0.045773
0.045782
0.0457963
0.045817
0.0458455
0.0458835
0.0459331
0.0459969
0.0460779
0.04618
0.0463069
0.0464644
0.0466584
0.0468907
0.0393448
0.0457344
0.0518108
0.0478875
0.0430881
0.0445466
0.0465003
0.0462155
0.0456998
0.045727
0.0458116
0.0457979
0.0457765
0.0457718
0.0457731
0.0457752
0.0457809
0.0457916
0.045808
0.045831
0.0458623
0.0459035
0.0459567
0.0460245
0.0461097
0.0462158
0.0463455
0.0465035
0.0466907
0.046904
0.0393828
0.0457201
0.0517899
0.0479238
0.0430787
0.0445139
0.0464954
0.046248
0.0457147
0.0457252
0.0458127
0.0458019
0.0457795
0.0457749
0.0457772
0.0457806
0.0457875
0.0457997
0.0458178
0.0458429
0.0458765
0.0459204
0.0459766
0.0460475
0.046136
0.0462451
0.0463768
0.046535
0.046716
0.046911
0.0394363
0.0456955
0.051778
0.0479589
0.043047
0.0444744
0.046504
0.0462967
0.0457311
0.0457214
0.0458125
0.0458051
0.0457813
0.0457769
0.0457803
0.0457848
0.0457928
0.0458062
0.0458258
0.0458525
0.045888
0.0459339
0.0459924
0.0460659
0.0461568
0.0462681
0.0464013
0.0465603
0.046738
0.0469183
0.0395235
0.0456141
0.0517092
0.0481334
0.0430434
0.044297
0.0465175
0.0463731
0.0457378
0.0457077
0.0458115
0.0458087
0.0457824
0.0457778
0.0457822
0.0457878
0.0457968
0.0458112
0.0458318
0.0458598
0.0458966
0.0459441
0.0460044
0.0460796
0.0461722
0.0462851
0.0464196
0.0465794
0.0467581
0.0469331
0.0396774
0.0455828
0.0516008
0.0479963
0.0430366
0.044313
0.0465606
0.0464966
0.0457659
0.0456853
0.0458015
0.0458106
0.0457848
0.0457783
0.045783
0.0457897
0.0457995
0.0458145
0.0458359
0.0458647
0.0459025
0.045951
0.0460123
0.0460886
0.0461823
0.046296
0.0464318
0.0465928
0.0467811
0.046967
0.0398982
0.0454199
0.051366
0.0482263
0.0433461
0.0440414
0.0464972
0.0465431
0.0458252
0.0456699
0.045781
0.0458061
0.0457837
0.0457771
0.0457828
0.0457905
0.0458008
0.0458162
0.0458379
0.0458672
0.0459055
0.0459545
0.0460163
0.046093
0.046187
0.0463008
0.0464368
0.0465994
0.046793
0.0470077
0.0433804
0.0427995
0.0424448
0.042336
0.0422314
0.0420645
0.0418772
0.041705
0.0415354
0.0413689
0.0412156
0.0410787
0.0409578
0.0408528
0.0407664
0.0407008
0.0406559
0.0406345
0.0406368
0.0406624
0.0407107
0.0407744
0.0408541
0.0408557
0.040971
0.0401324
0.0408619
0.0337355
0.0382962
-0.0105251
0.043288
0.0429096
0.0426266
0.0425189
0.0424158
0.0422503
0.0420707
0.0419135
0.0417699
0.0416352
0.0415154
0.0414135
0.04133
0.041266
0.0412249
0.0412097
0.0412222
0.0412663
0.0413455
0.0414634
0.0416242
0.0418306
0.0420845
0.0423553
0.0427085
0.0426038
0.0433894
0.0388777
0.0425769
0.00351076
0.043173
0.0429462
0.0427357
0.0426108
0.0425031
0.0423657
0.0422243
0.0421045
0.0419993
0.0419024
0.0418192
0.0417548
0.0417111
0.0416905
0.0416967
0.0417338
0.0418056
0.0419177
0.0420766
0.0422903
0.0425689
0.0429237
0.0433668
0.0439009
0.0445584
0.0450908
0.0461888
0.0439381
0.0473045
0.017439
0.0431729
0.0430293
0.0428862
0.0427739
0.0426774
0.0425698
0.042461
0.0423695
0.0422942
0.0422301
0.0421822
0.042156
0.0421535
0.0421775
0.0422328
0.0423247
0.0424591
0.042644
0.0428895
0.0432079
0.0436155
0.0441322
0.0447821
0.0455928
0.0465999
0.0477321
0.0493172
0.0490667
0.0525324
0.0310618
0.0432526
0.0431532
0.043053
0.0429578
0.042876
0.0427971
0.0427217
0.042661
0.042617
0.0425871
0.0425757
0.0425885
0.0426284
0.0426992
0.0428066
0.0429575
0.04316
0.0434243
0.0437639
0.0441956
0.0447419
0.0454314
0.0463017
0.0474013
0.0487878
0.0504977
0.0526998
0.0542155
0.0581618
0.0443175
0.0433808
0.0433141
0.0432497
0.0431781
0.043116
0.0430629
0.0430174
0.042987
0.042975
0.0429808
0.0430081
0.0430624
0.0431476
0.0432683
0.0434315
0.0436455
0.0439206
0.0442694
0.0447088
0.0452606
0.0459535
0.0468256
0.0479278
0.0493286
0.0511137
0.0533935
0.056293
0.059379
0.0640875
0.0570944
0.0435486
0.0435099
0.0434766
0.0434293
0.0433898
0.0433643
0.0433506
0.0433527
0.0433742
0.043416
0.043482
0.0435781
0.0437093
0.0438812
0.0441022
0.044382
0.0447329
0.0451704
0.0457149
0.0463929
0.0472399
0.048303
0.0496466
0.0513583
0.0535533
0.0563979
0.0600373
0.0645219
0.070221
0.0692098
0.0437525
0.0437395
0.0437347
0.0437126
0.0436971
0.0436987
0.0437151
0.0437485
0.0438031
0.0438811
0.0439868
0.0441264
0.0443057
0.0445314
0.0448129
0.0451617
0.0455921
0.0461224
0.0467766
0.0475861
0.0485928
0.049853
0.0514438
0.0534717
0.0560804
0.0594815
0.0638716
0.0696019
0.0764497
0.0805022
0.0439884
0.0439997
0.0440215
0.0440242
0.0440333
0.0440621
0.0441088
0.0441743
0.044263
0.044378
0.0445242
0.0447081
0.0449363
0.0452168
0.0455602
0.0459796
0.0464915
0.047117
0.0478836
0.0488274
0.0499967
0.0514567
0.0532968
0.0556408
0.0586595
0.0626019
0.0677272
0.0745613
0.082642
0.0908135
0.0442527
0.0442868
0.0443332
0.0443604
0.0443943
0.04445
0.0445263
0.0446235
0.0447459
0.0448978
0.0450844
0.0453128
0.0455904
0.0459263
0.0463324
0.0468235
0.047418
0.0481398
0.0490198
0.0500988
0.0514312
0.0530904
0.0551773
0.0578315
0.0612481
0.065707
0.071529
0.07933
0.0886409
0.09994
0.0445402
0.0445955
0.0446645
0.0447154
0.0447738
0.044856
0.0449612
0.0450894
0.0452452
0.0454336
0.0456603
0.0459327
0.0462594
0.0466504
0.0471188
0.0476809
0.0483574
0.0491745
0.0501666
0.0513788
0.052871
0.0547243
0.0570501
0.0600018
0.0637953
0.0687354
0.0751963
0.0838282
0.0942686
0.107642
0.0448446
0.0449191
0.0450086
0.0450822
0.0451645
0.0452722
0.0454051
0.0455632
0.0457513
0.0459749
0.0462403
0.0465555
0.0469298
0.0473742
0.0479031
0.0485342
0.0492901
0.0501995
0.0512998
0.0526399
0.054285
0.0563229
0.0588738
0.062103
0.0662436
0.0716186
0.0786447
0.0879676
0.099356
0.113861
0.0451583
0.0452502
0.0453579
0.0454528
0.0455578
0.0456895
0.0458483
0.0460344
0.0462529
0.0465097
0.0468117
0.0471672
0.0475865
0.0480814
0.0486673
0.0493635
0.0501942
0.0511903
0.0523918
0.0538511
0.055638
0.0578457
0.060602
0.0640814
0.0685301
0.0742828
0.081787
0.0916543
0.103779
0.118848
0.0454732
0.0455803
0.0457035
0.0458175
0.0459433
0.0460971
0.0462795
0.046491
0.0467371
0.0470243
0.0473595
0.0477518
0.0482119
0.0487529
0.0493907
0.050146
0.0510445
0.0521189
0.0534116
0.054978
0.0568911
0.0592489
0.0621848
0.0658799
0.070589
0.0766524
0.0845358
0.0947957
0.107453
0.12257
0.0457801
0.0458998
0.0460356
0.0461662
0.0463105
0.0464835
0.0466865
0.04692
0.0471901
0.0475035
0.0478677
0.0482919
0.0487875
0.0493682
0.0500511
0.0508575
0.0518144
0.0529562
0.054327
0.0559844
0.0580042
0.0604875
0.0635713
0.0674407
0.0723546
0.0786526
0.0868062
0.0973044
0.11027
0.124741
0.0460695
0.0461991
0.0463443
0.0464884
0.0466482
0.0468371
0.0470568
0.0473082
0.0475976
0.0479324
0.04832
0.0487698
0.049294
0.0499069
0.0506259
0.0514733
0.0524771
0.0536727
0.0551056
0.0568347
0.0589377
0.0615173
0.0647123
0.0687087
0.0737651
0.0802136
0.0885187
0.0990891
0.112077
0.125333
0.0463326
0.0464692
0.0466204
0.0467745
0.046946
0.0471468
0.0473787
0.047643
0.0479463
0.0482965
0.0487009
0.0491691
0.0497137
0.0503494
0.0510942
0.0519708
0.0530078
0.0542413
0.0557175
0.0574962
0.0596555
0.0622986
0.0655637
0.0696351
0.0747662
0.0812748
0.0896044
0.100056
0.112696
0.124526
0.0465614
0.0467019
0.0468559
0.047016
0.0471948
0.0474029
0.047642
0.0479136
0.0482247
0.0485833
0.0489969
0.0494752
0.0500308
0.0506789
0.0514377
0.0523301
0.053385
0.0546387
0.0561376
0.0579414
0.0601278
0.0627987
0.0660901
0.0701808
0.0753153
0.0817889
0.0900096
0.10014
0.112149
0.122266
0.0467502
0.0468915
0.0470448
0.0472065
0.0473879
0.0475983
0.0478388
0.0481114
0.0484235
0.0487833
0.0491979
0.049677
0.0502335
0.0508826
0.0516426
0.0525364
0.0535928
0.0548478
0.0563474
0.0581504
0.0603332
0.0629949
0.0662669
0.07032
0.0753848
0.0817264
0.0897078
0.0993269
0.110587
0.118302
0.0468956
0.0470348
0.0471844
0.0473431
0.047522
0.0477295
0.0479658
0.048233
0.048539
0.0488919
0.0492988
0.049769
0.0503157
0.050954
0.0517018
0.0525818
0.0536225
0.0548592
0.0563368
0.0581126
0.0602604
0.0628756
0.0660831
0.070043
0.0749687
0.0810864
0.0887137
0.0976403
0.108089
0.112718
0.046998
0.0471319
0.0472743
0.0474258
0.0475973
0.0477962
0.0480223
0.0482777
0.0485702
0.0489081
0.0492982
0.0497497
0.0502755
0.0508907
0.0516128
0.0524641
0.053472
0.0546711
0.0561047
0.0578277
0.0599105
0.0624434
0.0655434
0.0693568
0.074077
0.0798815
0.0870534
0.0951129
0.104702
0.105821
0.04706
0.0471855
0.0473174
0.0474578
0.0476172
0.0478023
0.0480124
0.0482496
0.0485219
0.0488374
0.0492025
0.0496263
0.0501214
0.0507024
0.0513862
0.0521943
0.0531533
0.0542963
0.0556645
0.05731
0.059299
0.0617151
0.0646659
0.0682811
0.0727323
0.0781396
0.0847691
0.091808
0.100493
0.0975082
0.0470877
0.0472025
0.0473211
0.0474465
0.0475897
0.0477561
0.0479446
0.0481571
0.0484017
0.0486858
0.0490158
0.0494009
0.0498537
0.0503881
0.0510204
0.0517713
0.0526662
0.053736
0.0550197
0.0565656
0.058435
0.060704
0.0634694
0.0668419
0.0709711
0.075912
0.0819319
0.0877995
0.0955592
0.0876288
0.0470902
0.0471915
0.0472932
0.0474002
0.0475236
0.0476676
0.0478301
0.0480141
0.0482275
0.0484766
0.0487672
0.0491085
0.0495124
0.0499919
0.0505624
0.0512436
0.0520594
0.053039
0.0542184
0.0556424
0.0573665
0.0594588
0.0620044
0.0650935
0.0688538
0.0732663
0.0786224
0.0831559
0.0900151
0.0763316
0.0470777
0.0471642
0.047247
0.0473327
0.0474337
0.0475514
0.0476812
0.0478263
0.0479964
0.0481972
0.0484343
0.0487179
0.0490604
0.0494741
0.0499733
0.0505765
0.0513053
0.0521863
0.0532521
0.054543
0.0561082
0.0580064
0.0603103
0.0630877
0.0664451
0.0702778
0.0749308
0.0779773
0.0839699
0.0638299
0.0470615
0.0471308
0.0471904
0.0472518
0.0473304
0.0474243
0.0475255
0.0476379
0.0477725
0.0479307
0.0481181
0.0483447
0.0486223
0.0489607
0.049374
0.0498815
0.0505036
0.0512651
0.0521957
0.0533315
0.0547155
0.0563971
0.0584361
0.0608763
0.0638047
0.0670158
0.0709466
0.0723418
0.0775283
0.0503475
0.0470561
0.0471063
0.0471384
0.0471742
0.0472284
0.0472883
0.0473437
0.0474048
0.0474843
0.0475829
0.0477017
0.0478593
0.0480713
0.048341
0.0486785
0.049101
0.0496241
0.0502715
0.0510692
0.0520483
0.0532452
0.0546997
0.0564593
0.0585425
0.0610211
0.0635714
0.0667804
0.0663288
0.070847
0.0361138
0.0470765
0.0470969
0.0470959
0.0471101
0.0471529
0.0471924
0.0472095
0.0472284
0.0472626
0.04731
0.0473667
0.0474445
0.0475585
0.0477234
0.047956
0.0482675
0.0486704
0.0491878
0.0498417
0.050658
0.0516655
0.0528927
0.0543733
0.056097
0.0581258
0.0599871
0.0625171
0.0600122
0.0640827
0.0213309
0.0471612
0.0470879
0.0470307
0.0470585
0.0471059
0.0471876
0.0471984
0.0471596
0.0471275
0.0470965
0.0470768
0.0470855
0.0471298
0.0472143
0.0473516
0.0475541
0.047835
0.0482128
0.048709
0.0493465
0.0501487
0.051135
0.0523262
0.0536826
0.0552623
0.056408
0.0583246
0.0535536
0.0573678
0.00621864
0.0474228
0.047175
0.0469707
0.0468857
0.0468758
0.0469037
0.0468638
0.046819
0.0468079
0.0467377
0.0466352
0.0465532
0.0465106
0.0465076
0.0465537
0.0466578
0.0468294
0.0470806
0.0474292
0.0478938
0.0484932
0.0492373
0.0501382
0.0511183
0.052267
0.0526387
0.0541059
0.0467716
0.050606
-0.00897509
-0.0225083
-0.0369904
-0.0535158
-0.0708938
-0.0883711
-0.105724
-0.122746
-0.139139
-0.154505
-0.168356
-0.180115
-0.189255
-0.19504
-0.197107
-0.195732
-0.19115
-0.183938
-0.174768
-0.164606
-0.153829
-0.142768
-0.13211
-0.122231
-0.112998
-0.104317
-0.0962356
-0.0887649
-0.0818011
-0.0752489
-0.0690015
0.0435298
0.0330599
0.0216106
0.010104
-0.00205449
-0.0151033
-0.0287733
-0.0428349
-0.0570809
-0.0710972
-0.0847839
-0.0977425
-0.109079
-0.117843
-0.123929
-0.127973
-0.129042
-0.126711
-0.121716
-0.115139
-0.107599
-0.0994597
-0.091269
-0.0834687
-0.0761585
-0.0693959
-0.0632576
-0.0575808
-0.0524153
-0.0474791
0.0411396
0.0340153
0.0256674
0.0163964
0.00595827
-0.00566634
-0.0183831
-0.0316841
-0.0447099
-0.0572559
-0.06946
-0.0806835
-0.0903426
-0.0979247
-0.103027
-0.105556
-0.105082
-0.101481
-0.0955114
-0.0880924
-0.0801356
-0.0720373
-0.0639736
-0.0562137
-0.0489057
-0.0421167
-0.0358392
-0.0302455
-0.024992
-0.020121
0.0506716
0.045667
0.0392844
0.0320996
0.0239588
0.0146199
0.00413242
-0.00722651
-0.0191742
-0.031535
-0.0437901
-0.0552653
-0.0652625
-0.0731386
-0.0783971
-0.0807724
-0.0801936
-0.0769079
-0.0718035
-0.0654423
-0.0583902
-0.0511734
-0.0440622
-0.0372594
-0.0305614
-0.0242749
-0.0185305
-0.0129275
-0.00722979
-0.00170119
0.0498841
0.0464022
0.0420973
0.0368864
0.03066
0.023297
0.0147464
0.00504874
-0.00560916
-0.0168791
-0.0282632
-0.0391805
-0.0489513
-0.0568623
-0.0623232
-0.0650146
-0.0649358
-0.062426
-0.057748
-0.0518638
-0.0452877
-0.0384773
-0.0317011
-0.0250843
-0.0186912
-0.0124616
-0.00660634
-0.0010028
0.00438329
0.009248
0.0502138
0.0477106
0.0444229
0.0402848
0.0351936
0.0290139
0.0216845
0.0132004
0.00365944
-0.00664939
-0.017274
-0.0276465
-0.0370774
-0.0448141
-0.0502124
-0.0529036
-0.0528525
-0.05034
-0.0458439
-0.04015
-0.0338313
-0.0272971
-0.0207914
-0.0144563
-0.00833166
-0.00245495
0.00307062
0.00828295
0.0132267
0.0177668
0.0494575
0.047561
0.0450553
0.0418632
0.0377933
0.0327101
0.0265419
0.0192282
0.0107909
0.00145149
-0.00838759
-0.0181845
-0.0272418
-0.0347758
-0.040105
-0.0428227
-0.0428712
-0.0405535
-0.0363758
-0.0310227
-0.0250597
-0.0188747
-0.0127124
-0.00671343
-0.00095997
0.00446484
0.00949384
0.0140796
0.0182073
0.0216296
0.0487864
0.0473309
0.0453817
0.0428043
0.039437
0.0351652
0.0298964
0.0235132
0.0159948
0.00752419
-0.00155918
-0.0107679
-0.0194178
-0.0267134
-0.0319499
-0.0346886
-0.0348487
-0.0326972
-0.0287416
-0.0236281
-0.0179188
-0.0120048
-0.00613732
-0.000475436
0.0048702
0.00980949
0.0142773
0.0182219
0.0216436
0.0244355
0.0481057
0.0469324
0.0453571
0.0432339
0.0404087
0.0367824
0.0322402
0.026619
0.0198791
0.0121765
0.00378488
-0.00486366
-0.0131019
-0.020134
-0.0252426
-0.0279616
-0.0281813
-0.026155
-0.0223791
-0.0174896
-0.0120411
-0.00642357
-0.00089306
0.00437908
0.00927153
0.013695
0.0175931
0.0209288
0.0237305
0.0258963
0.0475308
0.0465553
0.0452467
0.0434524
0.0410304
0.0379065
0.0339423
0.0289413
0.0228626
0.0158375
0.00807139
-5.5814e-05
-0.00789687
-0.0146644
-0.0196363
-0.022324
-0.0225963
-0.0206872
-0.0170837
-0.0124108
-0.00721483
-0.00188668
0.00331107
0.00819877
0.0126528
0.0165917
0.0199746
0.0227864
0.0250712
0.0268178
0.0470626
0.0462231
0.0450981
0.0435348
0.0414208
0.0386989
0.0351998
0.0307039
0.025184
0.0187488
0.0115392
0.00388845
-0.00357895
-0.0100913
-0.014926
-0.0175764
-0.017891
-0.0160831
-0.0126329
-0.00815799
-0.00320024
0.001847
0.00671692
0.0112282
0.0152632
0.0187552
0.021684
0.0240603
0.0259518
0.0273564
0.0467022
0.0459608
0.0449655
0.0435668
0.041686
0.0392852
0.036157
0.0320704
0.0270219
0.0210971
0.0143774
0.00715636
3.44357e-05
-0.00623622
-0.0109359
-0.013543
-0.013889
-0.0121691
-0.00885948
-0.00457156
0.000156355
0.00493062
0.00948395
0.0136388
0.0172895
0.0203865
0.02293
0.0249537
0.0265332
0.0276828
0.0464398
0.0457716
0.0448644
0.043579
0.0418822
0.0397434
0.0369115
0.0331558
0.0285044
0.0230195
0.016729
0.00989273
0.00308636
-0.0029597
-0.00753037
-0.0100922
-0.010463
-0.00882283
-0.00564408
-0.00153219
0.00297788
0.00749322
0.011749
0.0155753
0.0188809
0.0216345
0.0238539
0.0255876
0.0269256
0.0278844
0.046264
0.0456535
0.0448042
0.0435944
0.0420464
0.0401238
0.0375297
0.0340424
0.0297238
0.0246147
0.0186977
0.0122038
0.00568304
-0.000156984
-0.004607
-0.00712462
-0.00751578
-0.00594786
-0.0028898
0.00105813
0.00536402
0.00963697
0.0136171
0.0171452
0.0201457
0.0226037
0.0245533
0.0260575
0.027202
0.0280153
0.0461643
0.0456017
0.0447874
0.0436253
0.0421948
0.0404553
0.0380545
0.0347876
0.0307481
0.025958
0.0203636
0.0141713
0.00790607
0.00225284
-0.0020859
-0.00456126
-0.00496944
-0.00346744
-0.000520362
0.0032762
0.00739299
0.0114422
0.0151706
0.0184313
0.0211651
0.0233719
0.0250987
0.0264164
0.0274071
0.0281096
0.046132
0.0456107
0.0448136
0.0436802
0.0423503
0.0407614
0.038519
0.0354337
0.0316271
0.0271062
0.0217889
0.0158601
0.00982043
0.00433391
9.5904e-05
-0.00234031
-0.002763
-0.00132064
0.00152563
0.00518422
0.00912803
0.012973
0.0164744
0.019498
0.0219995
0.0239923
0.025534
0.0266996
0.0275668
0.0281852
0.04616
0.0456737
0.0448802
0.0437626
0.0425174
0.0410561
0.0389453
0.0360099
0.032396
0.0281012
0.0230216
0.0173216
0.0114792
0.00613904
0.00199014
-0.000411339
-0.00084711
0.000541495
0.00329776
0.0068329
0.010621
0.0142817
0.0175796
0.020394
0.0226945
0.0245046
0.0258902
0.0269299
0.0276969
0.0282456
0.0462409
0.0457851
0.0449868
0.0438743
0.0426961
0.041343
0.0393472
0.0365396
0.0330842
0.0289765
0.0240985
0.018595
0.0129222
0.00770881
0.00363782
0.00126635
0.000818304
0.0021591
0.00483649
0.00826329
0.011914
0.0154111
0.0185275
0.021157
0.0232831
0.024938
0.0261935
0.0271276
0.0278094
0.0282955
0.0463674
0.0459384
0.0451322
0.0440188
0.0428913
0.0416287
0.0397361
0.0370392
0.0337126
0.0297577
0.0250501
0.0197142
0.014184
0.00907595
0.00507101
0.00272493
0.00226558
0.00356498
0.00617551
0.00950954
0.0130406
0.0163942
0.0193512
0.0218187
0.0237932
0.0253151
0.0264594
0.0273012
0.027908
0.0283441
0.0465279
0.0461255
0.0453158
0.0441973
0.0431044
0.0419137
0.0401154
0.0375182
0.034298
0.0304665
0.0259015
0.0207077
0.0152949
0.0102703
0.00631795
0.00399144
0.00352127
0.00478572
0.00734225
0.0106001
0.0140293
0.0172573
0.0200733
0.0224013
0.024247
0.0256518
0.026694
0.0274523
0.0279963
0.0283932
0.0466998
0.04634
0.0455356
0.0444101
0.0433351
0.042202
0.0404908
0.0379853
0.0348539
0.0311193
0.0266694
0.0215921
0.0162731
0.0113113
0.00739906
0.00508501
0.00460328
0.00584362
0.0083604
0.0115587
0.0149048
0.018026
0.020716
0.0229181
0.0246525
0.0259634
0.0269122
0.0275928
0.0280859
0.028447
0.046862
0.0465572
0.0457914
0.0446605
0.0435864
0.0424994
0.0408643
0.0384407
0.0353901
0.0317403
0.0273913
0.0224113
0.0171604
0.0122353
0.0083481
0.00607542
0.0055545
0.00677074
0.00925526
0.0124068
0.0156833
0.0187166
0.0213074
0.0234046
0.0250018
0.0261924
0.0270713
0.0276978
0.0281611
0.0284858
0.0470006
0.0467722
0.0460704
0.0449334
0.0438506
0.0428123
0.0412499
0.0388764
0.0358643
0.0322542
0.0279752
0.0230791
0.0178895
0.012985
0.00910964
0.00671345
0.00627952
0.00752396
0.0100182
0.0131559
0.0163829
0.0193266
0.0218224
0.0239006
0.0255187
0.0265969
0.0273525
0.0279136
0.028305
0.0285755
0.0470973
0.0469688
0.0463477
0.0452337
0.0441268
0.0430919
0.0417121
0.0395148
0.0366382
0.0330671
0.0288002
0.0239062
0.0187374
0.0138623
0.0100263
0.00782302
0.00710211
0.00829181
0.0107508
0.0138542
0.0170606
0.0199372
0.0222521
0.0240209
0.0253509
0.0264011
0.0271971
0.027779
0.0281703
0.0284916
0.0471339
0.0471309
0.046614
0.0455627
0.0445091
0.043292
0.0415661
0.0393492
0.03655
0.033005
0.0287933
0.0239854
0.0188848
0.014024
0.0100203
0.00768462
0.00738708
0.0087008
0.011271
0.0144066
0.0176221
0.0205793
0.023078
0.0250547
0.0264654
0.0274793
0.0281054
0.0285224
0.0287706
0.0287895
0.0471151
0.047268
0.0468703
0.0458476
0.0448369
0.0442001
0.0430797
0.0411954
0.0383943
0.0347609
0.0304036
0.0255143
0.0203353
0.0154622
0.0115738
0.00905663
0.00825739
0.0094001
0.01195
0.0150532
0.0181013
0.0207441
0.0227994
0.0244268
0.0256196
0.0264439
0.0270342
0.0274422
0.0278415
0.0283035
0.0470797
0.0473152
0.0471349
0.0462277
0.0447833
0.0431995
0.0414902
0.0395424
0.0368705
0.0334633
0.0293621
0.0245983
0.0194739
0.0145871
0.0106668
0.0083878
0.00808413
0.00950612
0.0122394
0.015521
0.0188244
0.0218133
0.0242727
0.0260443
0.0273494
0.028263
0.0289296
0.0293129
0.0292984
0.0289526
0.0470884
0.0472828
0.0472539
0.0467379
0.0460724
0.0453373
0.0441836
0.042506
0.0398921
0.0364043
0.0321281
0.0271371
0.0217359
0.0165473
0.0123656
0.00978294
0.00896367
0.0101298
0.0127822
0.0159733
0.0190407
0.0215999
0.0237143
0.0251918
0.0262291
0.0269069
0.0272731
0.0274385
0.027466
0.0282466
0.0471475
0.0472229
0.0473592
0.0465841
0.0449127
0.0433023
0.0421489
0.0405984
0.0381124
0.0347146
0.0305471
0.0257093
0.0204431
0.0154402
0.0114728
0.00907214
0.00864981
0.0101512
0.0130424
0.0164597
0.0197638
0.0226365
0.024878
0.0264778
0.0276096
0.02842
0.028911
0.0291935
0.029031
0.0286074
0.047261
0.0472626
0.0474739
0.0472894
0.0463645
0.045085
0.0441259
0.0427365
0.0404244
0.0371577
0.0329378
0.0278702
0.0222818
0.0168138
0.0123539
0.00962858
0.00902543
0.0105348
0.0135122
0.0170037
0.0202752
0.0230386
0.0251277
0.0265806
0.0275507
0.0281726
0.0284754
0.0285078
0.0284355
0.0283186
-0.0325917
-0.0102235
-0.00891937
0.0180951
0.0137894
0.0238068
0.0233855
0.0263281
0.026761
0.0277393
0.0282423
0.0286842
0.029021
0.0293004
0.0295361
0.0297393
0.0299201
0.0300825
0.0302318
0.03037
0.0305024
0.030624
0.0307536
0.0308127
0.0308457
0.0311902
0.0308152
0.0320402
0.0305544
0.0325069
-0.029113
-0.0136773
-0.00624292
0.0173401
0.0156904
0.0237996
0.0242958
0.0264258
0.0271092
0.0278861
0.0283898
0.0287829
0.0290912
0.0293428
0.0295544
0.0297359
0.029896
0.0300394
0.0301703
0.0302904
0.0304026
0.0305058
0.0305983
0.0307046
0.0306872
0.0310422
0.0306977
0.0315
0.0306672
0.0317031
-0.0267557
-0.016877
-0.00385945
0.0161343
0.0175009
0.0235645
0.0250494
0.0266002
0.0274521
0.0281043
0.0285807
0.0289337
0.0292086
0.0294309
0.0296169
0.0297767
0.0299185
0.0300472
0.0301664
0.0302779
0.0303835
0.0304844
0.0305773
0.0306883
0.0307147
0.0309063
0.0308127
0.0310886
0.0309016
0.0308826
-0.0248818
-0.0190729
-0.00240772
0.0158033
0.0194039
0.0240444
0.0260077
0.0272703
0.0280759
0.0286193
0.0290143
0.0293016
0.0295219
0.0297
0.0298507
0.029983
0.0301029
0.0302148
0.0303216
0.030425
0.0305256
0.0306242
0.0307158
0.030819
0.0308781
0.0309934
0.0310219
0.0311038
0.0311432
0.0310295
-0.0229375
-0.0202054
-0.00184187
0.0163765
0.0212505
0.0250817
0.0271209
0.0282028
0.0288592
0.0292822
0.029573
0.0297756
0.0299249
0.0300439
0.0301454
0.0302363
0.0303207
0.030402
0.0304824
0.0305627
0.0306432
0.0307247
0.0308027
0.030888
0.030956
0.0310386
0.0311035
0.0311498
0.0312405
0.031248
-0.0214705
-0.0206165
-0.00165818
0.0175348
0.0230823
0.0264128
0.02834
0.0292488
0.0297254
0.0300092
0.0301837
0.0302889
0.0303555
0.0304042
0.0304457
0.0304855
0.0305268
0.0305714
0.0306205
0.0306744
0.0307334
0.0307973
0.0308637
0.0309368
0.0310076
0.0310826
0.0311604
0.0312266
0.0313036
0.0313608
-0.0207456
-0.0205408
-0.00102933
0.019009
0.0249669
0.0279714
0.0297108
0.0304311
0.0307091
0.0308283
0.0308707
0.0308684
0.0308458
0.0308194
0.0307981
0.0307857
0.0307835
0.0307921
0.0308113
0.0308409
0.03088
0.0309281
0.0309838
0.0310474
0.0311158
0.0311884
0.0312658
0.0313408
0.031413
0.0314868
-0.0201983
-0.0199254
0.000337734
0.0206541
0.0270054
0.0297838
0.0312884
0.0317968
0.0318561
0.0317841
0.0316733
0.0315486
0.0314258
0.0313159
0.0312243
0.0311523
0.0310994
0.0310644
0.0310461
0.0310433
0.0310544
0.0310786