/*--------------------------------*- C++ -*----------------------------------*\
  =========                 |
  \\      /  F ield         | OpenFOAM: The Open Source CFD Toolbox
   \\    /   O peration     | Website:  https://openfoam.org
    \\  /    A nd           | Version:  11
     \\/     M anipulation  |
\*---------------------------------------------------------------------------*/
FoamFile
{
    format      ascii;
    class       volVectorField;
    location    "0.2";
    object      U;
}
// * * * * * * * * * * * * * * * * * * * * * * * * * * * * * * * * * * * * * //

dimensions      [0 1 -1 0 0 0 0];

internalField   nonuniform List<vector> 
12600
(
(0.430616 2.72579e-05 0)
(0.428183 -0.00268212 0)
(0.406858 -0.00206145 0)
(0.406819 0.00381283 0)
(0.412089 0.00474699 0)
(0.407107 0.00120223 0)
(0.403781 -0.0013177 0)
(0.405975 -0.00145468 0)
(0.408766 -0.00104526 0)
(0.410164 -0.000654337 0)
(0.410952 -0.000466377 0)
(0.411671 -0.000340306 0)
(0.412318 -0.000262044 0)
(0.412885 -0.000227739 0)
(0.413436 -0.000224007 0)
(0.414026 -0.000239792 0)
(0.414687 -0.000269078 0)
(0.415445 -0.000310005 0)
(0.416328 -0.000362523 0)
(0.417367 -0.000427508 0)
(0.418597 -0.00050652 0)
(0.420055 -0.000601682 0)
(0.42179 -0.000715333 0)
(0.423852 -0.00084968 0)
(0.426297 -0.00100562 0)
(0.42919 -0.00118727 0)
(0.43257 -0.00137017 0)
(0.43651 -0.00158968 0)
(0.441018 -0.00182427 0)
(0.44536 -0.00144568 0)
(0.430519 0.000185801 0)
(0.429339 -0.00307659 0)
(0.392005 -0.00210503 0)
(0.39949 0.00493626 0)
(0.421985 0.00580238 0)
(0.420473 0.00136971 0)
(0.414408 -0.00146543 0)
(0.412865 -0.00153711 0)
(0.413892 -0.0011232 0)
(0.413961 -0.000913351 0)
(0.4139 -0.00079512 0)
(0.414099 -0.000673706 0)
(0.41445 -0.000600735 0)
(0.414854 -0.00058945 0)
(0.415316 -0.000621859 0)
(0.415842 -0.000686413 0)
(0.416451 -0.000780562 0)
(0.417161 -0.000904649 0)
(0.417993 -0.00106058 0)
(0.418975 -0.00125204 0)
(0.420138 -0.00148428 0)
(0.42152 -0.00176381 0)
(0.423165 -0.00209786 0)
(0.425124 -0.00249355 0)
(0.427452 -0.0029557 0)
(0.430239 -0.00349238 0)
(0.433434 -0.00405854 0)
(0.437588 -0.00477987 0)
(0.441318 -0.00524763 0)
(0.44724 -0.00498534 0)
(0.43144 0.000356424 0)
(0.42996 -0.000814453 0)
(0.39498 -0.00101818 0)
(0.397856 0.00118116 0)
(0.418602 0.00201281 0)
(0.419032 0.000605062 0)
(0.413194 -0.00056736 0)
(0.413112 -0.000630555 0)
(0.414188 -0.000696916 0)
(0.414111 -0.000812502 0)
(0.414012 -0.00083556 0)
(0.414189 -0.000813237 0)
(0.414503 -0.000823602 0)
(0.414862 -0.000879097 0)
(0.415278 -0.00096998 0)
(0.41577 -0.0010948 0)
(0.416349 -0.00125866 0)
(0.417028 -0.00146619 0)
(0.417828 -0.00172277 0)
(0.418773 -0.00203588 0)
(0.419894 -0.00241503 0)
(0.421227 -0.00287149 0)
(0.422816 -0.00341784 0)
(0.424714 -0.0040671 0)
(0.426975 -0.00483093 0)
(0.4297 -0.00571801 0)
(0.432836 -0.00672312 0)
(0.437017 -0.00782916 0)
(0.440573 -0.00906386 0)
(0.447799 -0.00959607 0)
(0.431675 0.000114823 0)
(0.430164 -0.00070898 0)
(0.395366 -0.000466643 0)
(0.399837 0.00118273 0)
(0.419559 0.00148781 0)
(0.417981 0.000315179 0)
(0.412444 -0.000542079 0)
(0.4129 -0.000746786 0)
(0.414125 -0.000845094 0)
(0.414083 -0.00092468 0)
(0.414015 -0.000968008 0)
(0.41418 -0.00100134 0)
(0.414465 -0.00106189 0)
(0.414795 -0.00116135 0)
(0.415181 -0.00130074 0)
(0.415642 -0.00148338 0)
(0.416186 -0.00171528 0)
(0.416826 -0.00200355 0)
(0.417579 -0.0023571 0)
(0.418471 -0.00278726 0)
(0.419529 -0.00330794 0)
(0.420789 -0.00393549 0)
(0.422293 -0.00468846 0)
(0.424094 -0.00558677 0)
(0.426249 -0.00665041 0)
(0.428863 -0.00789574 0)
(0.431892 -0.00933701 0)
(0.435954 -0.0109459 0)
(0.439593 -0.0128861 0)
(0.446276 -0.0140677 0)
(0.431784 2.13529e-05 0)
(0.430265 -0.000327009 0)
(0.395523 -0.000147389 0)
(0.400624 0.000660338 0)
(0.419631 0.000663311 0)
(0.417606 -3.6281e-05 0)
(0.412255 -0.000568461 0)
(0.41279 -0.000761959 0)
(0.413992 -0.000856322 0)
(0.414012 -0.00095489 0)
(0.413951 -0.00105522 0)
(0.414117 -0.0011521 0)
(0.414385 -0.00126664 0)
(0.414687 -0.0014151 0)
(0.415042 -0.00160511 0)
(0.415466 -0.00184379 0)
(0.415967 -0.00213997 0)
(0.416557 -0.00250396 0)
(0.417252 -0.00294812 0)
(0.418074 -0.00348759 0)
(0.419049 -0.00414067 0)
(0.420211 -0.00492902 0)
(0.4216 -0.00587763 0)
(0.423269 -0.00701431 0)
(0.425274 -0.00836876 0)
(0.427722 -0.0099688 0)
(0.430586 -0.0118453 0)
(0.434442 -0.013978 0)
(0.438102 -0.0165377 0)
(0.444137 -0.0185753 0)
(0.431805 -1.10834e-05 0)
(0.430287 -0.000194441 0)
(0.395533 -0.000129864 0)
(0.400996 0.00024673 0)
(0.419612 0.000231636 0)
(0.417346 -0.000195561 0)
(0.412081 -0.000579368 0)
(0.41267 -0.000783201 0)
(0.413883 -0.000915539 0)
(0.413915 -0.00104137 0)
(0.413862 -0.00117105 0)
(0.414023 -0.00130638 0)
(0.414272 -0.00146057 0)
(0.414545 -0.00164947 0)
(0.414865 -0.00188371 0)
(0.415247 -0.00217259 0)
(0.415698 -0.00252695 0)
(0.416228 -0.0029596 0)
(0.416851 -0.00348588 0)
(0.417588 -0.00412444 0)
(0.418461 -0.00489787 0)
(0.419502 -0.00583319 0)
(0.420747 -0.00696214 0)
(0.422246 -0.00832114 0)
(0.424057 -0.00995081 0)
(0.426284 -0.0118933 0)
(0.428911 -0.0141939 0)
(0.432501 -0.0168676 0)
(0.435996 -0.0200521 0)
(0.441874 -0.0230006 0)
(0.431809 -3.03994e-05 0)
(0.430297 -0.000145113 0)
(0.395605 -0.000143157 0)
(0.40114 3.39067e-07 0)
(0.419543 -6.29027e-05 0)
(0.417124 -0.000362079 0)
(0.411907 -0.000646827 0)
(0.412547 -0.000837423 0)
(0.413771 -0.000985521 0)
(0.413809 -0.00112749 0)
(0.413754 -0.00127928 0)
(0.413903 -0.00144504 0)
(0.414131 -0.00163312 0)
(0.414373 -0.00185784 0)
(0.414654 -0.00213128 0)
(0.414989 -0.00246443 0)
(0.415383 -0.00286988 0)
(0.415844 -0.00336257 0)
(0.416386 -0.00396046 0)
(0.417024 -0.0046854 0)
(0.417778 -0.00556402 0)
(0.418674 -0.00662852 0)
(0.419748 -0.00791745 0)
(0.421042 -0.00947625 0)
(0.422612 -0.0113573 0)
(0.42456 -0.0136196 0)
(0.426869 -0.0163236 0)
(0.430121 -0.0195316 0)
(0.433244 -0.0233711 0)
(0.438733 -0.027261 0)
(0.431812 -3.99289e-05 0)
(0.430303 -0.000134148 0)
(0.395617 -0.000187154 0)
(0.401208 -0.000182523 0)
(0.419484 -0.000283892 0)
(0.416958 -0.000507419 0)
(0.411757 -0.000725247 0)
(0.412429 -0.000900421 0)
(0.413653 -0.00105756 0)
(0.413695 -0.00121318 0)
(0.413631 -0.0013823 0)
(0.413763 -0.0015707 0)
(0.413966 -0.00178546 0)
(0.414175 -0.00203955 0)
(0.414413 -0.00234559 0)
(0.414697 -0.00271567 0)
(0.415029 -0.00316368 0)
(0.415415 -0.0037062 0)
(0.415865 -0.00436331 0)
(0.416392 -0.00515958 0)
(0.417011 -0.00612519 0)
(0.417745 -0.00729711 0)
(0.41862 -0.00872042 0)
(0.419676 -0.0104495 0)
(0.42096 -0.0125493 0)
(0.422571 -0.015096 0)
(0.424475 -0.0181728 0)
(0.427317 -0.0218775 0)
(0.429859 -0.0263402 0)
(0.434953 -0.0312404 0)
(0.43181 -4.46019e-05 0)
(0.430306 -0.000138364 0)
(0.395627 -0.000240812 0)
(0.401229 -0.000322757 0)
(0.419423 -0.000448175 0)
(0.416831 -0.000630788 0)
(0.411627 -0.000808485 0)
(0.412316 -0.000969218 0)
(0.413532 -0.00112924 0)
(0.413573 -0.0012944 0)
(0.413495 -0.00147562 0)
(0.413606 -0.00167993 0)
(0.413782 -0.00191484 0)
(0.413956 -0.00219201 0)
(0.414149 -0.00252379 0)
(0.414378 -0.0029229 0)
(0.414643 -0.00340406 0)
(0.414948 -0.00398502 0)
(0.4153 -0.00468739 0)
(0.415706 -0.00553784 0)
(0.416179 -0.00656944 0)
(0.416732 -0.00782321 0)
(0.417387 -0.00935003 0)
(0.418174 -0.0112127 0)
(0.41913 -0.0134883 0)
(0.420345 -0.0162701 0)
(0.421772 -0.0196706 0)
(0.424062 -0.023814 0)
(0.425945 -0.0288643 0)
(0.430448 -0.034789 0)
(0.431806 -4.7235e-05 0)
(0.430307 -0.000150933 0)
(0.395632 -0.000294017 0)
(0.401229 -0.000430562 0)
(0.419368 -0.00057432 0)
(0.416731 -0.000736101 0)
(0.411512 -0.000889031 0)
(0.41221 -0.00103728 0)
(0.413415 -0.00119573 0)
(0.413445 -0.00136591 0)
(0.413348 -0.00155543 0)
(0.413437 -0.00177079 0)
(0.413584 -0.00201995 0)
(0.41372 -0.00231374 0)
(0.413867 -0.00266403 0)
(0.414038 -0.00308373 0)
(0.414234 -0.00358794 0)
(0.414454 -0.004195 0)
(0.414702 -0.00492743 0)
(0.414982 -0.00581323 0)
(0.415298 -0.00688742 0)
(0.41566 -0.00819404 0)
(0.416077 -0.00978854 0)
(0.41657 -0.0117408 0)
(0.417163 -0.0141389 0)
(0.417928 -0.0170928 0)
(0.418805 -0.0207415 0)
(0.420417 -0.0252477 0)
(0.421503 -0.0308163 0)
(0.425101 -0.0376905 0)
(0.431806 -4.92148e-05 0)
(0.430305 -0.000165447 0)
(0.395626 -0.000342026 0)
(0.401219 -0.000515478 0)
(0.419318 -0.000673518 0)
(0.41665 -0.000824768 0)
(0.41141 -0.000961915 0)
(0.412108 -0.00109969 0)
(0.413294 -0.00125406 0)
(0.413316 -0.00142531 0)
(0.413198 -0.00161937 0)
(0.413261 -0.0018415 0)
(0.413377 -0.00209944 0)
(0.413474 -0.00240349 0)
(0.413573 -0.00276501 0)
(0.413686 -0.00319665 0)
(0.41381 -0.00371346 0)
(0.413943 -0.00433376 0)
(0.414085 -0.00508026 0)
(0.414235 -0.00598137 0)
(0.414391 -0.00707298 0)
(0.414553 -0.0084007 0)
(0.414722 -0.0100229 0)
(0.414904 -0.0120144 0)
(0.415106 -0.0144717 0)
(0.415379 -0.0175195 0)
(0.415639 -0.0213184 0)
(0.416464 -0.0260772 0)
(0.4166 -0.0320297 0)
(0.418961 -0.039692 0)
(0.431806 -5.10306e-05 0)
(0.430304 -0.000178516 0)
(0.395617 -0.000382959 0)
(0.401208 -0.000583671 0)
(0.419272 -0.000752415 0)
(0.416581 -0.000897748 0)
(0.411317 -0.00102386 0)
(0.412013 -0.00115218 0)
(0.413176 -0.00130147 0)
(0.413184 -0.00147148 0)
(0.413044 -0.00166626 0)
(0.41308 -0.00189064 0)
(0.413164 -0.00215219 0)
(0.413221 -0.00246049 0)
(0.413272 -0.00282614 0)
(0.413327 -0.00326119 0)
(0.41338 -0.00378013 0)
(0.413427 -0.0044007 0)
(0.413464 -0.005145 0)
(0.413484 -0.00604086 0)
(0.413479 -0.00712371 0)
(0.413441 -0.00843906 0)
(0.413358 -0.0100458 0)
(0.413222 -0.0120211 0)
(0.413018 -0.0144659 0)
(0.412772 -0.0175153 0)
(0.412362 -0.0213449 0)
(0.412321 -0.026205 0)
(0.411354 -0.0323524 0)
(0.412173 -0.0405624 0)
(0.431805 -5.24444e-05 0)
(0.430303 -0.000189517 0)
(0.395607 -0.000416868 0)
(0.401195 -0.000638189 0)
(0.419231 -0.000814664 0)
(0.416522 -0.000955935 0)
(0.411233 -0.00107339 0)
(0.411923 -0.00119294 0)
(0.413062 -0.00133611 0)
(0.413054 -0.00150252 0)
(0.41289 -0.00169478 0)
(0.412899 -0.00191751 0)
(0.41295 -0.00217795 0)
(0.412968 -0.00248483 0)
(0.412971 -0.0028478 0)
(0.412969 -0.00327802 0)
(0.412953 -0.00378894 0)
(0.412917 -0.00439712 0)
(0.412851 -0.00512325 0)
(0.412745 -0.00599352 0)
(0.412585 -0.00704144 0)
(0.412352 -0.00831047 0)
(0.412023 -0.00985752 0)
(0.411573 -0.0117581 0)
(0.410964 -0.014113 0)
(0.410192 -0.0170604 0)
(0.40909 -0.0207837 0)
(0.40813 -0.0255568 0)
(0.405963 -0.0316578 0)
(0.404972 -0.0400809 0)
(0.431805 -5.33514e-05 0)
(0.430302 -0.000197825 0)
(0.395596 -0.000443787 0)
(0.401182 -0.000681117 0)
(0.419193 -0.00086304 0)
(0.416469 -0.00100061 0)
(0.411155 -0.00111008 0)
(0.41184 -0.00122072 0)
(0.412953 -0.00135658 0)
(0.412927 -0.00151733 0)
(0.412739 -0.00170432 0)
(0.41272 -0.0019219 0)
(0.412739 -0.00217691 0)
(0.412718 -0.00247716 0)
(0.412675 -0.00283118 0)
(0.412618 -0.00324889 0)
(0.412537 -0.00374231 0)
(0.412422 -0.00432622 0)
(0.412261 -0.00501913 0)
(0.412038 -0.00584449 0)
(0.411732 -0.00683245 0)
(0.411316 -0.00802231 0)
(0.410757 -0.00946603 0)
(0.41001 -0.0112334 0)
(0.409015 -0.0134191 0)
(0.407735 -0.0161555 0)
(0.405953 -0.0196235 0)
(0.404066 -0.0240959 0)
(0.400668 -0.0298695 0)
(0.397706 -0.0380676 0)
(0.431804 -5.37424e-05 0)
(0.430301 -0.00020348 0)
(0.395586 -0.00046433 0)
(0.40117 -0.000714062 0)
(0.41916 -0.00089933 0)
(0.416424 -0.00103263 0)
(0.411084 -0.00113377 0)
(0.411763 -0.00123493 0)
(0.41285 -0.00136226 0)
(0.412805 -0.00151541 0)
(0.412592 -0.00169464 0)
(0.412546 -0.00190399 0)
(0.412533 -0.00214978 0)
(0.412476 -0.00243878 0)
(0.41239 -0.00277824 0)
(0.412282 -0.00317659 0)
(0.412141 -0.00364403 0)
(0.411954 -0.00419304 0)
(0.411705 -0.00483923 0)
(0.411376 -0.00560229 0)
(0.41094 -0.00650758 0)
(0.410362 -0.0075882 0)
(0.409597 -0.00888818 0)
(0.408585 -0.0104672 0)
(0.407243 -0.0124076 0)
(0.405501 -0.0148256 0)
(0.403094 -0.0178878 0)
(0.400327 -0.0218324 0)
(0.39576 -0.0269798 0)
(0.390816 -0.0344479 0)
(0.431804 -5.35764e-05 0)
(0.4303 -0.000206791 0)
(0.395577 -0.000479299 0)
(0.401159 -0.000738333 0)
(0.419131 -0.000924951 0)
(0.416384 -0.00105288 0)
(0.41102 -0.00114454 0)
(0.411692 -0.00123521 0)
(0.412754 -0.00135306 0)
(0.412689 -0.00149687 0)
(0.412453 -0.00166595 0)
(0.41238 -0.00186434 0)
(0.412337 -0.00209768 0)
(0.412245 -0.00237152 0)
(0.412119 -0.00269168 0)
(0.411965 -0.00306487 0)
(0.41177 -0.00349914 0)
(0.411519 -0.00400428 0)
(0.411196 -0.00459236 0)
(0.410776 -0.00527848 0)
(0.410229 -0.00608191 0)
(0.409515 -0.00702773 0)
(0.408577 -0.0081493 0)
(0.407344 -0.0094921 0)
(0.405714 -0.0111196 0)
(0.403584 -0.0131223 0)
(0.400655 -0.0156377 0)
(0.397103 -0.0188417 0)
(0.391581 -0.023065 0)
(0.384761 -0.0292513 0)
(0.431803 -5.28064e-05 0)
(0.430299 -0.000207947 0)
(0.395568 -0.000489445 0)
(0.40115 -0.000755277 0)
(0.419107 -0.000941431 0)
(0.41635 -0.00106239 0)
(0.410962 -0.00114282 0)
(0.41163 -0.00122165 0)
(0.412665 -0.00132904 0)
(0.412581 -0.00146199 0)
(0.412321 -0.00161875 0)
(0.412223 -0.00180384 0)
(0.412152 -0.00202215 0)
(0.412027 -0.00227773 0)
(0.411866 -0.00257481 0)
(0.411671 -0.00291825 0)
(0.41143 -0.00331375 0)
(0.411126 -0.00376805 0)
(0.410741 -0.00428927 0)
(0.410248 -0.00488726 0)
(0.409614 -0.00557426 0)
(0.408794 -0.00636585 0)
(0.407726 -0.00728248 0)
(0.406329 -0.00835195 0)
(0.404486 -0.00961317 0)
(0.402068 -0.0111236 0)
(0.398758 -0.0129707 0)
(0.394592 -0.0152615 0)
(0.388423 -0.0182977 0)
(0.380023 -0.022666 0)
(0.431803 -5.13955e-05 0)
(0.430297 -0.000207116 0)
(0.39556 -0.000495873 0)
(0.401142 -0.000766762 0)
(0.419089 -0.000950372 0)
(0.416324 -0.00106197 0)
(0.410913 -0.00112918 0)
(0.411578 -0.0011946 0)
(0.412586 -0.00129015 0)
(0.412482 -0.0014108 0)
(0.4122 -0.00155365 0)
(0.412077 -0.00172374 0)
(0.411979 -0.0019251 0)
(0.411827 -0.00216015 0)
(0.411634 -0.00243144 0)
(0.411405 -0.00274189 0)
(0.411126 -0.00309471 0)
(0.41078 -0.00349348 0)
(0.410346 -0.00394211 0)
(0.4098 -0.00444483 0)
(0.409106 -0.00500628 0)
(0.408215 -0.00563163 0)
(0.407065 -0.00632698 0)
(0.405568 -0.00710009 0)
(0.4036 -0.00796161 0)
(0.401021 -0.00892888 0)
(0.397493 -0.0100293 0)
(0.392986 -0.0112931 0)
(0.386465 -0.0128665 0)
(0.376858 -0.0149974 0)
(0.431803 -4.92928e-05 0)
(0.430296 -0.000203632 0)
(0.395553 -0.000498996 0)
(0.401135 -0.000775559 0)
(0.419078 -0.000954252 0)
(0.416306 -0.00105255 0)
(0.410872 -0.00110423 0)
(0.411535 -0.00115458 0)
(0.412517 -0.00123663 0)
(0.412392 -0.00134358 0)
(0.412089 -0.0014714 0)
(0.411944 -0.00162538 0)
(0.411822 -0.00180861 0)
(0.411644 -0.00202177 0)
(0.411425 -0.00226568 0)
(0.411168 -0.0025413 0)
(0.410859 -0.00284939 0)
(0.410482 -0.00319034 0)
(0.410017 -0.00356387 0)
(0.409437 -0.00396856 0)
(0.408709 -0.00440132 0)
(0.407785 -0.0048567 0)
(0.406602 -0.00532598 0)
(0.405075 -0.00579604 0)
(0.403079 -0.00624785 0)
(0.400473 -0.0066553 0)
(0.396926 -0.00697729 0)
(0.392367 -0.00717707 0)
(0.385878 -0.00717957 0)
(0.376196 -0.00682656 0)
(0.431802 -4.64913e-05 0)
(0.430293 -0.000198033 0)
(0.395546 -0.00049986 0)
(0.401128 -0.000783691 0)
(0.419075 -0.00095493 0)
(0.416299 -0.00103479 0)
(0.410841 -0.00106872 0)
(0.411504 -0.00110256 0)
(0.412461 -0.00116871 0)
(0.412313 -0.00126033 0)
(0.41199 -0.00137263 0)
(0.411823 -0.00151018 0)
(0.411679 -0.00167487 0)
(0.41148 -0.0018657 0)
(0.411239 -0.00208176 0)
(0.410961 -0.00232213 0)
(0.410632 -0.00258525 0)
(0.410235 -0.00286852 0)
(0.409752 -0.00316771 0)
(0.40916 -0.00347605 0)
(0.408424 -0.00378313 0)
(0.407503 -0.00407331 0)
(0.406338 -0.00432378 0)
(0.404849 -0.00450096 0)
(0.402921 -0.004558 0)
(0.400432 -0.00442593 0)
(0.397041 -0.00400379 0)
(0.392802 -0.00316346 0)
(0.386544 -0.00163355 0)
(0.377491 0.00108626 0)
(0.431802 -4.30793e-05 0)
(0.430291 -0.000188315 0)
(0.395536 -0.000498907 0)
(0.401118 -0.000799649 0)
(0.419069 -0.000958277 0)
(0.416312 -0.0010073 0)
(0.410825 -0.00102173 0)
(0.41149 -0.00103858 0)
(0.412419 -0.00108578 0)
(0.412247 -0.00116033 0)
(0.411903 -0.00125746 0)
(0.411716 -0.00137931 0)
(0.411552 -0.00152604 0)
(0.411334 -0.00169507 0)
(0.411077 -0.0018839 0)
(0.410784 -0.00208994 0)
(0.410442 -0.00230956 0)
(0.410037 -0.00253758 0)
(0.409551 -0.00276627 0)
(0.408963 -0.00298418 0)
(0.408246 -0.00317443 0)
(0.407362 -0.00331246 0)
(0.40626 -0.00336278 0)
(0.404873 -0.00327461 0)
(0.403103 -0.00297417 0)
(0.400848 -0.00235556 0)
(0.397818 -0.00126106 0)
(0.394132 0.00049967 0)
(0.3886 0.00331527 0)
(0.381281 0.00799341 0)
(0.431802 -3.94321e-05 0)
(0.430288 -0.000173379 0)
(0.395527 -0.000493109 0)
(0.4011 -0.00081859 0)
(0.419068 -0.000968947 0)
(0.416348 -0.000983873 0)
(0.410837 -0.000964844 0)
(0.411485 -0.000960818 0)
(0.412386 -0.000986756 0)
(0.412192 -0.00104351 0)
(0.411827 -0.00112647 0)
(0.41162 -0.00123404 0)
(0.411439 -0.00136421 0)
(0.411207 -0.00151288 0)
(0.410938 -0.00167612 0)
(0.410636 -0.00184994 0)
(0.410289 -0.00202908 0)
(0.409884 -0.00220627 0)
(0.409407 -0.00237102 0)
(0.408842 -0.00250814 0)
(0.408164 -0.00259563 0)
(0.407345 -0.00260186 0)
(0.406346 -0.00248107 0)
(0.405117 -0.00216887 0)
(0.40358 -0.0015712 0)
(0.401678 -0.000553563 0)
(0.39914 0.00107434 0)
(0.396244 0.00355793 0)
(0.391669 0.00727684 0)
(0.386314 0.0134118 0)
(0.4318 -3.65273e-05 0)
(0.430282 -0.000146268 0)
(0.395512 -0.000480565 0)
(0.401061 -0.000855326 0)
(0.419078 -0.00100769 0)
(0.416419 -0.000959281 0)
(0.410878 -0.000890803 0)
(0.41149 -0.000863375 0)
(0.412365 -0.000870192 0)
(0.412147 -0.000910063 0)
(0.411761 -0.000980236 0)
(0.411535 -0.00107571 0)
(0.411339 -0.00119153 0)
(0.411096 -0.00132204 0)
(0.410819 -0.00146216 0)
(0.410513 -0.00160684 0)
(0.410168 -0.00174971 0)
(0.409772 -0.0018821 0)
(0.409315 -0.00199166 0)
(0.408784 -0.00206063 0)
(0.408163 -0.00206334 0)
(0.407432 -0.00196384 0)
(0.406567 -0.00171 0)
(0.405534 -0.00122632 0)
(0.404287 -0.000406396 0)
(0.402804 0.000891335 0)
(0.400873 0.00287251 0)
(0.3989 0.00585431 0)
(0.395549 0.0101813 0)
(0.392289 0.0171639 0)
(0.431796 -3.79609e-05 0)
(0.430271 -0.000104815 0)
(0.395482 -0.000444871 0)
(0.400978 -0.000923462 0)
(0.419093 -0.00108616 0)
(0.416539 -0.000942328 0)
(0.410949 -0.000795299 0)
(0.41151 -0.000740675 0)
(0.412354 -0.000733766 0)
(0.412113 -0.000758627 0)
(0.411704 -0.000818316 0)
(0.41146 -0.000905428 0)
(0.411251 -0.00101028 0)
(0.410999 -0.00112549 0)
(0.410719 -0.00124549 0)
(0.410414 -0.00136473 0)
(0.410075 -0.00147637 0)
(0.409694 -0.00157109 0)
(0.409264 -0.0016357 0)
(0.408777 -0.00165115 0)
(0.408225 -0.00159041 0)
(0.407597 -0.00141419 0)
(0.406884 -0.00106799 0)
(0.406075 -0.000473605 0)
(0.405148 0.000476589 0)
(0.404128 0.00192941 0)
(0.402861 0.00410538 0)
(0.401856 0.00732237 0)
(0.399816 0.0119008 0)
(0.398707 0.0191181 0)
(0.431792 -4.07767e-05 0)
(0.430257 -1.37302e-05 0)
(0.395398 -0.00038688 0)
(0.400823 -0.0010569 0)
(0.419134 -0.00123001 0)
(0.416714 -0.000928689 0)
(0.411046 -0.000670914 0)
(0.411547 -0.000592189 0)
(0.412353 -0.000577036 0)
(0.412091 -0.000586976 0)
(0.411654 -0.00063876 0)
(0.411391 -0.000722823 0)
(0.411171 -0.000821589 0)
(0.410915 -0.000925367 0)
(0.410634 -0.00102886 0)
(0.410334 -0.00112682 0)
(0.410006 -0.00121267 0)
(0.409644 -0.00127739 0)
(0.409246 -0.00130803 0)
(0.408808 -0.00128558 0)
(0.40833 -0.00118366 0)
(0.407813 -0.000963513 0)
(0.407259 -0.000570857 0)
(0.406677 6.94033e-05 0)
(0.406081 0.0010583 0)
(0.405532 0.00254634 0)
(0.404927 0.00473862 0)
(0.404873 0.00792897 0)
(0.404105 0.0124161 0)
(0.405042 0.0193026 0)
(0.431784 -6.90484e-05 0)
(0.430238 0.000153358 0)
(0.395358 -0.000286191 0)
(0.400463 -0.00133686 0)
(0.419088 -0.00149984 0)
(0.416959 -0.000902297 0)
(0.411186 -0.000480893 0)
(0.411596 -0.000402009 0)
(0.412367 -0.000398486 0)
(0.412081 -0.000400563 0)
(0.411609 -0.000449304 0)
(0.411324 -0.000534378 0)
(0.411096 -0.00063042 0)
(0.41084 -0.000725707 0)
(0.410562 -0.000815619 0)
(0.41027 -0.000895947 0)
(0.409955 -0.00096118 0)
(0.409615 -0.00100342 0)
(0.40925 -0.00101084 0)
(0.408862 -0.000966309 0)
(0.408457 -0.000844481 0)
(0.408046 -0.00061115 0)
(0.407647 -0.000216944 0)
(0.407288 0.000406094 0)
(0.407007 0.0013529 0)
(0.4069 0.00275661 0)
(0.406907 0.00479688 0)
(0.40773 0.00772857 0)
(0.408098 0.0118128 0)
(0.410821 0.0178563 0)
(0.431675 -0.000138639 0)
(0.430142 0.000599356 0)
(0.395233 0.000156759 0)
(0.399656 -0.0017076 0)
(0.419006 -0.00213737 0)
(0.41733 -0.00106472 0)
(0.411313 -0.00028168 0)
(0.41164 -0.000152823 0)
(0.412391 -0.000134012 0)
(0.412081 -0.000135342 0)
(0.411565 -0.000211074 0)
(0.411257 -0.000323104 0)
(0.411026 -0.000430721 0)
(0.410772 -0.000524933 0)
(0.410502 -0.000605988 0)
(0.410219 -0.000672926 0)
(0.409919 -0.00072263 0)
(0.4096 -0.000749418 0)
(0.409266 -0.00074379 0)
(0.408925 -0.000691305 0)
(0.408588 -0.00057045 0)
(0.408275 -0.000351318 0)
(0.408014 5.87089e-06 0)
(0.407852 0.000556862 0)
(0.407847 0.0013841 0)
(0.408125 0.00259929 0)
(0.408659 0.00433818 0)
(0.410232 0.00683064 0)
(0.411506 0.0102813 0)
(0.415683 0.0150161 0)
(0.431449 -0.000377895 0)
(0.429961 0.000745561 0)
(0.394824 0.000790849 0)
(0.397683 -0.00158793 0)
(0.418124 -0.00251638 0)
(0.41834 -0.00113029 0)
(0.4121 -2.90089e-05 0)
(0.411792 -4.1947e-05 0)
(0.412371 -3.26055e-05 0)
(0.412031 3.41873e-05 0)
(0.41147 -1.09424e-05 0)
(0.411157 -0.000133226 0)
(0.410942 -0.000248365 0)
(0.410704 -0.000337523 0)
(0.410447 -0.000407185 0)
(0.410177 -0.000460867 0)
(0.409892 -0.00049766 0)
(0.409593 -0.00051427 0)
(0.409287 -0.000504251 0)
(0.408986 -0.000456536 0)
(0.408706 -0.000354347 0)
(0.408472 -0.000173557 0)
(0.408324 0.000111821 0)
(0.408322 0.000543579 0)
(0.408541 0.00118815 0)
(0.40912 0.00213008 0)
(0.410091 0.00345354 0)
(0.412171 0.00534918 0)
(0.41426 0.00800247 0)
(0.419501 0.0110798 0)
(0.430502 -0.000206583 0)
(0.429338 0.0029898 0)
(0.391963 0.00194091 0)
(0.399382 -0.0051967 0)
(0.421449 -0.00607207 0)
(0.419734 -0.00163871 0)
(0.413349 0.00111601 0)
(0.411442 0.00115808 0)
(0.412032 0.000694029 0)
(0.411738 0.000434025 0)
(0.411265 0.000277313 0)
(0.410998 9.98123e-05 0)
(0.410831 -4.96777e-05 0)
(0.410632 -0.000148573 0)
(0.4104 -0.000213406 0)
(0.410149 -0.000257138 0)
(0.409881 -0.00028391 0)
(0.4096 -0.000293901 0)
(0.409314 -0.000284374 0)
(0.409039 -0.000249166 0)
(0.408797 -0.000178113 0)
(0.408622 -5.59312e-05 0)
(0.408583 0.000135133 0)
(0.408679 0.000422509 0)
(0.409046 0.000844638 0)
(0.409825 0.00145813 0)
(0.411093 0.00229012 0)
(0.413483 0.00353945 0)
(0.416165 0.00506936 0)
(0.422786 0.00616742 0)
(0.430618 -2.64982e-05 0)
(0.428147 0.00265278 0)
(0.406665 0.00202865 0)
(0.406408 -0.0038859 0)
(0.411469 -0.00479168 0)
(0.406224 -0.0012539 0)
(0.402597 0.00122321 0)
(0.404484 0.00132716 0)
(0.406928 0.000901505 0)
(0.407916 0.000490311 0)
(0.408245 0.000282801 0)
(0.408463 0.0001403 0)
(0.408556 3.88257e-05 0)
(0.408501 -2.27777e-05 0)
(0.408349 -5.56062e-05 0)
(0.408144 -7.67948e-05 0)
(0.407907 -8.88689e-05 0)
(0.407653 -9.28231e-05 0)
(0.4074 -8.83986e-05 0)
(0.407168 -7.3849e-05 0)
(0.406986 -4.58657e-05 0)
(0.406891 -4.71454e-06 0)
(0.406937 6.52311e-05 0)
(0.407207 0.000172571 0)
(0.407805 0.000325852 0)
(0.408876 0.00054603 0)
(0.410601 0.000842191 0)
(0.413254 0.00124376 0)
(0.417106 0.00185579 0)
(0.422852 0.00191707 0)
(0.448958 -0.00309118 1.55165e-21)
(0.451237 -0.00492305 3.02454e-21)
(0.453613 -0.00692891 4.09059e-20)
(0.455582 -0.00907162 1.3526e-20)
(0.457212 -0.0113431 -1.37346e-20)
(0.458739 -0.0139866 0)
(0.460252 -0.0170632 0)
(0.461668 -0.0205126 -2.4339e-20)
(0.463034 -0.0243086 2.47615e-20)
(0.464418 -0.0284413 6.47456e-20)
(0.465804 -0.0329072 -6.59219e-20)
(0.46719 -0.0377214 0)
(0.468573 -0.0429102 9.44622e-20)
(0.469958 -0.0485262 -9.62916e-20)
(0.471329 -0.0546517 0)
(0.472665 -0.0613839 -2.45721e-19)
(0.473933 -0.0688409 -1.38386e-19)
(0.475103 -0.077169 -1.50116e-19)
(0.476173 -0.0865402 -1.61087e-19)
(0.477158 -0.0971529 -1.77876e-19)
(0.478061 -0.109279 1.84946e-19)
(0.47885 -0.123288 -5.92311e-19)
(0.479417 -0.139664 0)
(0.47967 -0.158985 4.84665e-19)
(0.479184 -0.182168 -2.62706e-19)
(0.478056 -0.2099 5.92078e-19)
(0.474329 -0.244508 1.07375e-18)
(0.4695 -0.286804 0)
(0.459635 -0.33498 0)
(0.438702 -0.429724 4.13838e-19)
(0.451673 -0.00745567 6.60517e-21)
(0.45294 -0.00956204 0)
(0.454387 -0.0120519 0)
(0.455676 -0.0145462 2.32511e-20)
(0.456776 -0.0171499 -2.86893e-20)
(0.457907 -0.0201028 -3.61723e-20)
(0.459084 -0.0234024 1.52095e-20)
(0.460241 -0.0270052 -1.54768e-20)
(0.461366 -0.0309223 -4.91273e-20)
(0.462503 -0.0351596 -1.12235e-19)
(0.46363 -0.0397217 6.57707e-20)
(0.46471 -0.0446352 -1.22727e-19)
(0.465738 -0.0499444 -7.95284e-20)
(0.466694 -0.0557106 -8.3902e-20)
(0.467532 -0.0620135 -1.06892e-19)
(0.468225 -0.0689513 -2.46127e-19)
(0.46877 -0.0766354 0)
(0.469149 -0.0851997 1.5393e-19)
(0.469356 -0.0948208 1.54572e-19)
(0.469382 -0.105719 0)
(0.469175 -0.118164 -1.74396e-19)
(0.468627 -0.132501 -1.49725e-19)
(0.467555 -0.149177 3.26711e-19)
(0.465765 -0.168709 0)
(0.462703 -0.191915 -2.09837e-19)
(0.458324 -0.219336 -1.56543e-19)
(0.450517 -0.2532 4.44963e-19)
(0.441302 -0.292966 -3.84679e-19)
(0.424238 -0.341081 4.03971e-19)
(0.398609 -0.424329 -3.41867e-19)
(0.450989 -0.0122338 -6.71773e-21)
(0.451813 -0.0142098 0)
(0.452893 -0.0166392 1.69914e-21)
(0.454018 -0.0192358 -3.42151e-20)
(0.454874 -0.0220042 2.3231e-20)
(0.455761 -0.0250488 5.11639e-20)
(0.456763 -0.0283667 -3.66623e-20)
(0.457689 -0.0319854 1.37635e-20)
(0.458533 -0.0359415 5.93659e-20)
(0.459383 -0.0402446 4.53534e-20)
(0.460183 -0.0449034 -2.28803e-20)
(0.460883 -0.0499503 2.06309e-19)
(0.461499 -0.0554303 -1.54352e-19)
(0.461995 -0.0613911 2.79314e-19)
(0.462338 -0.0678927 0)
(0.462503 -0.0750227 2.53574e-19)
(0.46245 -0.0828935 0)
(0.462143 -0.0916378 0)
(0.461538 -0.101426 -3.2297e-19)
(0.460561 -0.11248 0)
(0.459108 -0.125071 0)
(0.457042 -0.139521 3.42184e-19)
(0.454148 -0.15623 -3.41128e-19)
(0.450169 -0.175656 0)
(0.444526 -0.198502 0)
(0.437068 -0.225232 3.9474e-19)
(0.425629 -0.257823 -4.06432e-19)
(0.412235 -0.295197 7.88311e-20)
(0.388434 -0.342306 1.47845e-19)
(0.358642 -0.414516 0)
(0.449828 -0.0171388 -1.66431e-22)
(0.45047 -0.0192455 -6.74573e-23)
(0.451193 -0.0218342 8.88616e-21)
(0.452084 -0.0245027 4.49903e-21)
(0.452766 -0.027248 -4.55375e-22)
(0.453369 -0.0302807 -3.94263e-21)
(0.454053 -0.0336562 2.07857e-20)
(0.454661 -0.0373817 0)
(0.455165 -0.0414624 -4.53195e-20)
(0.455635 -0.045896 1.29963e-19)
(0.456038 -0.0506922 -6.43267e-20)
(0.456338 -0.0558838 -5.61201e-20)
(0.456527 -0.0615113 1.65647e-19)
(0.456573 -0.0676212 0)
(0.456423 -0.0742771 0)
(0.456022 -0.0815631 -1.89023e-19)
(0.455308 -0.0895865 -2.12498e-19)
(0.454206 -0.098479 -1.33598e-19)
(0.452632 -0.108401 7.8033e-22)
(0.45049 -0.119553 1.40294e-19)
(0.447655 -0.132179 0)
(0.44396 -0.146563 0)
(0.43916 -0.163055 5.70579e-20)
(0.432953 -0.18206 2.20101e-19)
(0.424747 -0.204169 0)
(0.414263 -0.229769 -1.44661e-20)
(0.399277 -0.260562 -3.11104e-19)
(0.381801 -0.295174 3.0182e-19)
(0.351705 -0.339694 -8.26694e-20)
(0.319208 -0.400762 0)
(0.447993 -0.0220922 0)
(0.448343 -0.0242681 2.20309e-20)
(0.448718 -0.0268965 -7.22604e-21)
(0.449375 -0.0296384 3.38142e-21)
(0.449836 -0.0325065 6.38658e-22)
(0.450152 -0.0356625 -6.5075e-22)
(0.450533 -0.0391476 1.26139e-20)
(0.450835 -0.0429604 0)
(0.450988 -0.0471004 2.05689e-20)
(0.451072 -0.0515796 -4.83469e-20)
(0.451057 -0.0564247 8.14144e-20)
(0.450881 -0.0616684 -6.84106e-20)
(0.450535 -0.06735 -1.37373e-19)
(0.449991 -0.0735215 2.64576e-20)
(0.449193 -0.0802492 -1.8525e-19)
(0.448078 -0.0876139 2.32808e-19)
(0.446572 -0.095712 1.77601e-19)
(0.444581 -0.104662 9.86462e-20)
(0.441994 -0.114608 0)
(0.438681 -0.125723 0)
(0.434479 -0.138213 0)
(0.429185 -0.152323 -6.08174e-20)
(0.422522 -0.168353 -1.30812e-19)
(0.414148 -0.186645 -1.07745e-19)
(0.403447 -0.20769 -1.71885e-20)
(0.390011 -0.231799 -1.92276e-19)
(0.371692 -0.260367 1.44731e-19)
(0.350378 -0.291848 -2.87413e-19)
(0.314901 -0.332662 1.5372e-19)
(0.280782 -0.383105 7.3633e-20)
(0.445437 -0.0269686 -3.21482e-20)
(0.445474 -0.0292294 -2.25071e-20)
(0.445534 -0.0319355 -3.53467e-20)
(0.445921 -0.0347354 0)
(0.446129 -0.037669 0)
(0.446142 -0.0408844 -2.65486e-20)
(0.446172 -0.0444167 0)
(0.44609 -0.0482648 1.64856e-20)
(0.445827 -0.0524364 2.93461e-21)
(0.445455 -0.0569517 3.84404e-21)
(0.444941 -0.0618379 3.09155e-21)
(0.44422 -0.0671228 7.0259e-20)
(0.443278 -0.0728418 3.31833e-21)
(0.442088 -0.0790447 1.69493e-20)
(0.440589 -0.0857927 7.31463e-20)
(0.438709 -0.093159 1.32623e-19)
(0.436365 -0.101233 -9.99961e-20)
(0.433445 -0.11012 -4.47364e-20)
(0.429816 -0.119944 -1.30695e-20)
(0.425318 -0.130854 4.70013e-20)
(0.419755 -0.143021 2.45283e-20)
(0.412889 -0.156648 0)
(0.404408 -0.171978 3.23498e-20)
(0.393924 -0.189286 0)
(0.380813 -0.208952 -2.61729e-19)
(0.36459 -0.231202 1.24365e-19)
(0.343253 -0.257106 2.51704e-19)
(0.31844 -0.285049 1.80012e-19)
(0.278604 -0.321192 -2.28832e-19)
(0.24377 -0.361636 6.38118e-19)
(0.442112 -0.0316658 3.15968e-20)
(0.441825 -0.034003 -1.37314e-21)
(0.441531 -0.0367652 4.41317e-20)
(0.441615 -0.0396133 2.01213e-20)
(0.441529 -0.0426035 0)
(0.4412 -0.0458699 2.72456e-20)
(0.440851 -0.0494419 3.06526e-20)
(0.440371 -0.0533205 -2.51334e-20)
(0.439682 -0.0575187 -9.93616e-21)
(0.438842 -0.0620508 1.62653e-20)
(0.437816 -0.0669367 4.26944e-21)
(0.436533 -0.072202 -1.32026e-20)
(0.434967 -0.0778805 -1.85374e-20)
(0.433079 -0.084018 -3.33527e-20)
(0.430804 -0.0906723 6.43525e-20)
(0.428068 -0.097913 7.00574e-23)
(0.424784 -0.105822 -1.65784e-20)
(0.420837 -0.114492 2.8619e-21)
(0.416085 -0.124027 -3.3921e-20)
(0.410353 -0.134548 5.41839e-20)
(0.403421 -0.146188 -3.83291e-21)
(0.395019 -0.159104 1.26421e-19)
(0.384803 -0.17348 0)
(0.37235 -0.189519 -8.23742e-20)
(0.357034 -0.207491 3.67271e-19)
(0.338302 -0.227528 0)
(0.314349 -0.250375 -9.56609e-19)
(0.286477 -0.274474 1.6663e-19)
(0.243465 -0.305246 0)
(0.20864 -0.336497 -7.36446e-19)
(0.437938 -0.0360738 -3.35162e-20)
(0.437291 -0.0384744 -3.85029e-21)
(0.436635 -0.0412471 -2.99738e-20)
(0.436377 -0.0441085 -3.00914e-20)
(0.435944 -0.0471228 7.58505e-21)
(0.435235 -0.0504016 -7.74905e-21)
(0.434477 -0.0539717 -2.36619e-20)
(0.433558 -0.0578343 -4.02432e-20)