/*--------------------------------*- C++ -*----------------------------------*\
  =========                 |
  \\      /  F ield         | OpenFOAM: The Open Source CFD Toolbox
   \\    /   O peration     | Website:  https://openfoam.org
    \\  /    A nd           | Version:  11
     \\/     M anipulation  |
\*---------------------------------------------------------------------------*/
FoamFile
{
    format      ascii;
    class       volScalarField;
    location    "6";
    object      p;
}
// * * * * * * * * * * * * * * * * * * * * * * * * * * * * * * * * * * * * * //

dimensions      [0 2 -2 0 0 0 0];

internalField   nonuniform List<scalar> 
12600
(
0.955761
0.955626
0.955555
0.955525
0.955491
0.955445
0.955389
0.955324
0.955248
0.955158
0.955049
0.954919
0.954763
0.954574
0.954344
0.954064
0.953722
0.953304
0.952787
0.952152
0.95138
0.950428
0.949248
0.94778
0.945949
0.943656
0.940769
0.937119
0.932515
0.926613
0.95569
0.955618
0.955559
0.955525
0.955491
0.955445
0.95539
0.955326
0.955252
0.955163
0.955056
0.954928
0.954773
0.954586
0.954359
0.954084
0.953747
0.953337
0.952826
0.952196
0.951434
0.950497
0.949333
0.947884
0.946075
0.943809
0.940952
0.937342
0.932745
0.92689
0.955658
0.955622
0.95557
0.955531
0.955495
0.955452
0.955398
0.955335
0.955261
0.955174
0.955069
0.954943
0.954792
0.954609
0.954387
0.954117
0.953788
0.953385
0.952887
0.952277
0.951533
0.950616
0.949478
0.948062
0.946294
0.944075
0.941275
0.937736
0.933183
0.927444
0.955637
0.955614
0.955572
0.955532
0.955497
0.955456
0.955405
0.955344
0.955272
0.955187
0.955086
0.954964
0.954818
0.95464
0.954426
0.954165
0.953847
0.953457
0.952979
0.952392
0.951673
0.950787
0.949689
0.948321
0.946612
0.944466
0.941752
0.938317
0.933869
0.928273
0.955625
0.955609
0.955576
0.95554
0.955505
0.955465
0.955416
0.955357
0.955288
0.955207
0.95511
0.954993
0.954853
0.954683
0.954478
0.954229
0.953925
0.953553
0.953098
0.952539
0.951853
0.951008
0.949961
0.948657
0.947025
0.944975
0.942374
0.939079
0.934783
0.929382
0.955618
0.955606
0.955579
0.955546
0.955512
0.955474
0.955428
0.955372
0.955307
0.955229
0.955137
0.955027
0.954894
0.954734
0.95454
0.954305
0.954019
0.953669
0.953241
0.952716
0.952071
0.951276
0.950291
0.949065
0.947528
0.945595
0.943137
0.940016
0.93592
0.930765
0.955615
0.955606
0.955584
0.955554
0.955522
0.955486
0.955443
0.955391
0.955329
0.955257
0.95517
0.955067
0.954943
0.954794
0.954614
0.954395
0.954129
0.953805
0.953409
0.952922
0.952325
0.951589
0.950677
0.949541
0.948116
0.946321
0.944034
0.94112
0.937269
0.932413
0.955616
0.955608
0.955589
0.955563
0.955534
0.9555
0.955459
0.955411
0.955354
0.955287
0.955208
0.955112
0.954999
0.954862
0.954697
0.954497
0.954254
0.953958
0.953597
0.953155
0.952612
0.951942
0.951112
0.950078
0.948781
0.947144
0.945052
0.94238
0.93882
0.934317
0.955619
0.955612
0.955596
0.955573
0.955546
0.955515
0.955478
0.955434
0.955382
0.955321
0.955249
0.955163
0.95506
0.954937
0.954789
0.95461
0.954392
0.954128
0.953806
0.953412
0.952928
0.952332
0.951593
0.950672
0.949515
0.948055
0.946182
0.943781
0.940557
0.936462
0.955624
0.955619
0.955605
0.955585
0.95556
0.955532
0.955498
0.955459
0.955412
0.955358
0.955294
0.955217
0.955127
0.955018
0.954888
0.954732
0.954542
0.954312
0.954032
0.953689
0.95327
0.952752
0.952112
0.951313
0.95031
0.94904
0.947408
0.945308
0.942461
0.938828
0.955632
0.955627
0.955615
0.955597
0.955576
0.95555
0.95552
0.955486
0.955445
0.955397
0.955341
0.955276
0.955198
0.955105
0.954995
0.954862
0.954702
0.954508
0.954272
0.953985
0.953633
0.9532
0.952664
0.951995
0.951155
0.950089
0.948715
0.946939
0.944508
0.941388
0.955641
0.955637
0.955626
0.955611
0.955592
0.95557
0.955544
0.955514
0.955479
0.955439
0.955392
0.955337
0.955273
0.955197
0.955107
0.954999
0.95487
0.954714
0.954525
0.954295
0.954014
0.953668
0.953241
0.952709
0.952038
0.951187
0.950084
0.948652
0.946669
0.944105
0.955651
0.955648
0.955639
0.955626
0.955609
0.95559
0.955568
0.955543
0.955514
0.955482
0.955444
0.955401
0.955351
0.955292
0.955223
0.955141
0.955044
0.954927
0.954786
0.954615
0.954408
0.954153
0.953838
0.953445
0.952949
0.952318
0.951496
0.950421
0.948909
0.946937
0.955663
0.95566
0.955652
0.955641
0.955627
0.955611
0.955594
0.955573
0.955551
0.955526
0.955498
0.955466
0.955431
0.955389
0.955342
0.955287
0.955222
0.955145
0.955053
0.954943
0.95481
0.954647
0.954445
0.954194
0.953876
0.953468
0.95293
0.952218
0.951191
0.94983
0.955675
0.955673
0.955667
0.955657
0.955646
0.955633
0.955619
0.955604
0.955588
0.955571
0.955553
0.955533
0.955512
0.955489
0.955463
0.955435
0.955403
0.955366
0.955324
0.955275
0.955216
0.955145
0.955057
0.954947
0.954805
0.954619
0.954364
0.954013
0.953472
0.952728
0.955689
0.955687
0.955682
0.955674
0.955665
0.955655
0.955646
0.955636
0.955626
0.955616
0.955608
0.9556
0.955593
0.955588
0.955584
0.955583
0.955584
0.955588
0.955595
0.955606
0.955622
0.955642
0.955667
0.955695
0.955726
0.955756
0.955777
0.955778
0.955709
0.955569
0.955703
0.955701
0.955697
0.955691
0.955684
0.955678
0.955672
0.955667
0.955663
0.955662
0.955662
0.955666
0.955674
0.955687
0.955705
0.95573
0.955763
0.955807
0.955863
0.955934
0.956022
0.956131
0.956266
0.956429
0.956627
0.956865
0.957148
0.957482
0.957861
0.958291
0.955718
0.955717
0.955713
0.955708
0.955704
0.9557
0.955698
0.955698
0.9557
0.955706
0.955716
0.955732
0.955754
0.955784
0.955823
0.955874
0.95594
0.956022
0.956125
0.956254
0.956413
0.956608
0.956848
0.95714
0.957497
0.95793
0.958458
0.9591
0.959887
0.960836
0.955733
0.955732
0.955729
0.955726
0.955723
0.955721
0.955723
0.955728
0.955736
0.955749
0.955769
0.955796
0.955831
0.955878
0.955938
0.956015
0.956111
0.956231
0.95638
0.956564
0.95679
0.957068
0.957407
0.957821
0.958326
0.95894
0.959691
0.960609
0.961755
0.963153
0.955749
0.955748
0.955745
0.955742
0.955741
0.955743
0.955748
0.955757
0.955771
0.955791
0.955819
0.955857
0.955906
0.955969
0.956049
0.956149
0.956274
0.95643
0.956623
0.95686
0.95715
0.957505
0.957939
0.958465
0.959106
0.959884
0.960833
0.96199
0.963437
0.965203
0.955765
0.955764
0.955762
0.955759
0.955759
0.955763
0.955771
0.955784
0.955804
0.955831
0.955867
0.955915
0.955976
0.956055
0.956153
0.956276
0.95643
0.956619
0.956852
0.957139
0.957489
0.957917
0.958436
0.959066
0.95983
0.960753
0.961874
0.963232
0.964919
0.966962
0.955782
0.955781
0.955778
0.955775
0.955776
0.955782
0.955793
0.95581
0.955834
0.955868
0.955912
0.955969
0.956043
0.956135
0.956251
0.956396
0.956574
0.956795
0.957067
0.957399
0.957804
0.958298
0.958896
0.95962
0.960492
0.961542
0.962807
0.964326
0.966191
0.968422
0.9558
0.955798
0.955793
0.95579
0.955792
0.9558
0.955814
0.955834
0.955863
0.955902
0.955953
0.956019
0.956103
0.956209
0.956341
0.956505
0.956707
0.956957
0.957263
0.957637
0.958092
0.958645
0.959314
0.96012
0.961089
0.962246
0.963629
0.965272
0.967258
0.969591
0.955818
0.955814
0.955808
0.955804
0.955806
0.955816
0.955833
0.955856
0.955889
0.955933
0.955991
0.956065
0.956158
0.956276
0.956422
0.956604
0.956828
0.957103
0.95744
0.957851
0.958351
0.958957
0.959688
0.960566
0.961616
0.962863
0.96434
0.966074
0.96813
0.970494
0.955837
0.955832
0.955822
0.955816
0.955819
0.955831
0.955849
0.955875
0.955911
0.95596
0.956024
0.956104
0.956207
0.956335
0.956494
0.956691
0.956933
0.957231
0.957595
0.958038
0.958577
0.959229
0.960014
0.960955
0.962074
0.963393
0.964942
0.966739
0.968827
0.971165
0.955858
0.955849
0.955834
0.955826
0.955831
0.955844
0.955864
0.955892
0.955931
0.955984
0.956052
0.956139
0.956249
0.956386
0.956555
0.956765
0.957024
0.957341
0.957728
0.958199
0.958771
0.959462
0.960292
0.961284
0.96246
0.963838
0.96544
0.967277
0.969371
0.971651
0.955883
0.955867
0.955843
0.955834
0.95584
0.955854
0.955875
0.955905
0.955947
0.956003
0.956075
0.956167
0.956282
0.956426
0.956605
0.956826
0.957098
0.95743
0.957836
0.95833
0.958929
0.959651
0.960518
0.961553
0.962774
0.964196
0.965838
0.967699
0.969789
0.971999
0.955912
0.955885
0.955852
0.955842
0.955849
0.955864
0.955885
0.955917
0.955961
0.956019
0.956094
0.95619
0.95631
0.956459
0.956645
0.956874
0.957156
0.9575
0.957921
0.958432
0.959051
0.959798
0.960694
0.961763
0.96302
0.964474
0.966143
0.968018
0.970105
0.972263
0.955951
0.955888
0.95585
0.955845
0.955854
0.955868
0.95589
0.955923
0.955968
0.956028
0.956106
0.956204
0.956328
0.956481
0.956672
0.956907
0.957195
0.957548
0.957979
0.958502
0.959135
0.959898
0.960813
0.961911
0.963199
0.964677
0.966366
0.968246
0.970321
0.972439
0.956027
0.955899
0.955849
0.955848
0.955859
0.955873
0.955894
0.955927
0.955973
0.956035
0.956114
0.956213
0.956338
0.956495
0.956688
0.956926
0.957219
0.957578
0.958015
0.958546
0.959189
0.959964
0.960892
0.962001
0.9633
0.964794
0.966495
0.968388
0.970424
0.972405
0.920961
0.918724
0.91691
0.915395
0.913779
0.91196
0.910001
0.90795
0.90581
0.903567
0.901209
0.898718
0.896071
0.893235
0.890166
0.886812
0.883107
0.878969
0.874295
0.86895
0.862763
0.855507
0.846886
0.836474
0.823788
0.807801
0.788342
0.759691
0.736507
0.663598
0.922151
0.92028
0.918633
0.917133
0.91553
0.913776
0.911942
0.91006
0.908114
0.906081
0.903943
0.901684
0.899278
0.896694
0.893895
0.890832
0.887448
0.883671
0.879408
0.87454
0.868917
0.862338
0.854543
0.845168
0.833779
0.819515
0.802158
0.777491
0.754992
0.693887
0.922466
0.920926
0.919542
0.91815
0.916671
0.915113
0.913504
0.911846
0.910118
0.908303
0.90639
0.904364
0.902204
0.899884
0.897369
0.89462
0.891585
0.888199
0.884383
0.880033
0.875017
0.869163
0.862246
0.853957
0.843916
0.831426
0.816213
0.795108
0.774448
0.723723
0.923324
0.922123
0.921019
0.919774
0.918424
0.917034
0.91561
0.914137
0.9126
0.910989
0.909295
0.907504
0.905595
0.903544
0.901323
0.898896
0.89622
0.893237
0.889881
0.886062
0.881668
0.876553
0.870525
0.863327
0.854629
0.843881
0.830761
0.812916
0.794587
0.752965
0.92452
0.923558
0.922662
0.92155
0.920334
0.919113
0.917881
0.916606
0.915274
0.91388
0.912416
0.910868
0.909218
0.907449
0.905534
0.903444
0.901142
0.898582
0.895705
0.892439
0.888688
0.884331
0.879209
0.873109
0.865753
0.856708
0.845638
0.830837
0.815056
0.781527
0.926031
0.925287
0.924595
0.923641
0.92258
0.921537
0.920496
0.919417
0.918288
0.917109
0.915873
0.914571
0.913186
0.911703
0.910103
0.90836
0.906444
0.904317
0.901931
0.899228
0.896129
0.892536
0.888318
0.883303
0.877262
0.869856
0.860762
0.848778
0.835567
0.809146
0.927855
0.927315
0.926819
0.926022
0.925117
0.924247
0.923394
0.922511
0.921588
0.920628
0.919627
0.918576
0.917463
0.916275
0.914996
0.913608
0.912086
0.9104
0.908514
0.906379
0.903934
0.9011
0.897774
0.893819
0.889049
0.883203
0.875988
0.866579
0.855865
0.835594
0.929989
0.929643
0.929334
0.928696
0.927951
0.927257
0.926594
0.92591
0.925195
0.924456
0.923692
0.922895
0.922056
0.921166
0.920213
0.919184
0.918059
0.916817
0.915429
0.913859
0.912059
0.90997
0.907509
0.904572
0.90101
0.896626
0.891166
0.884071
0.875709
0.860663
0.932426
0.932265
0.932134
0.931655
0.931071
0.930553
0.930078
0.929592
0.929086
0.928569
0.928043
0.927502
0.926938
0.926347
0.92572
0.925049
0.924319
0.923516
0.922619
0.921602
0.920429
0.919057
0.917423
0.915447
0.913014
0.909978
0.906119
0.901067
0.894868
0.884163
0.935152
0.935162
0.935199
0.934878
0.934456
0.934113
0.933825
0.933536
0.933237
0.932941
0.932651
0.932363
0.932073
0.931778
0.931473
0.931153
0.93081
0.930435
0.930013
0.929527
0.928953
0.928259
0.927399
0.926315
0.924915
0.923096
0.920665
0.917382
0.913112
0.90591
0.938139
0.938308
0.938499
0.938333
0.938074
0.937903
0.937797
0.937701
0.937606
0.937527
0.937468
0.937428
0.937404
0.937397
0.937404
0.937423
0.937453
0.937486
0.937515
0.937531
0.937517
0.937451
0.937302
0.937027
0.936555
0.935813
0.934626
0.932851
0.930249
0.92575
0.941348
0.941661
0.941992
0.941977
0.941877
0.941873
0.941944
0.942034
0.942136
0.942265
0.942429
0.942627
0.942859
0.943126
0.943429
0.943771
0.94415
0.944565
0.945014
0.945492
0.94599
0.946494
0.946983
0.947426
0.947769
0.947957
0.947835
0.947338
0.946138
0.943643
0.944726
0.945167
0.945621
0.945749
0.945804
0.945961
0.946198
0.946464
0.946753
0.94708
0.947453
0.947875
0.948346
0.948869
0.949448
0.950086
0.950787
0.951551
0.952381
0.953275
0.954229
0.955237
0.956283
0.957346
0.958383
0.959355
0.960122
0.960682
0.96062
0.95968
0.948209
0.948758
0.949318
0.94958
0.949782
0.950088
0.95048
0.950908
0.951369
0.951879
0.952445
0.953072
0.95376
0.954516
0.955344
0.956249
0.957237
0.958311
0.959475
0.960732
0.962081
0.963519
0.965037
0.966618
0.968228
0.969834
0.971313
0.972683
0.973463
0.973828
0.951718
0.952356
0.953002
0.953385
0.953724
0.954167
0.954697
0.955272
0.955888
0.95656
0.957298
0.958106
0.958987
0.959947
0.960993
0.96213
0.963365
0.964704
0.966152
0.967714
0.969392
0.971185
0.973086
0.975082
0.977144
0.979239
0.981261
0.983218
0.984623
0.985891
0.955167
0.955875
0.956587
0.957078
0.957539
0.958102
0.958752
0.959453
0.960203
0.961016
0.961901
0.962864
0.963908
0.96504
0.966267
0.967597
0.969036
0.970592
0.972271
0.974078
0.976016
0.978086
0.980283
0.982592
0.984989
0.987438
0.989848
0.992198
0.994047
0.995887
0.958468
0.959227
0.959986
0.960566
0.961134
0.961797
0.962547
0.963352
0.964212
0.96514
0.966145
0.967232
0.968407
0.969676
0.971047
0.972527
0.974125
0.975847
0.977701
0.979691
0.981821
0.984092
0.986497
0.989023
0.991644
0.994319
0.99697
0.999537
1.00167
1.0038
0.961537
0.962328
0.963115
0.963767
0.96442
0.965164
0.96599
0.966876
0.96782
0.968834
0.969929
0.971109
0.97238
0.973749
0.975224
0.976812
0.978521
0.980358
0.982331
0.984443
0.986699
0.989096
0.991628
0.994278
0.997019
0.999804
1.00255
1.00517
1.00742
1.00949
0.9643
0.965105
0.965904
0.966607
0.967325
0.968126
0.969005
0.969945
0.970946
0.972019
0.973172
0.974412
0.975744
0.977175
0.978712
0.980364
0.982138
0.984041
0.986078
0.988254
0.990571
0.993025
0.995608
0.998301
1.00107
1.00386
1.00659
1.00914
1.01131
1.01295
0.966699
0.967504
0.968299
0.969033
0.969792
0.970628
0.971536
0.972504
0.973534
0.974635
0.975816
0.977083
0.97844
0.979895
0.981456
0.983129
0.984922
0.986841
0.988891
0.991076
0.993394
0.995842
0.998408
1.00107
1.00379
1.00651
1.00913
1.01153
1.01353
1.01472
0.968702
0.969492
0.97027
0.971014
0.971792
0.97264
0.973552
0.974522
0.975554
0.976655
0.977832
0.979092
0.980441
0.981884
0.983429
0.985083
0.986851
0.988741
0.990755
0.992895
0.99516
0.997544
1.00003
1.00259
1.00519
1.00776
1.01021
1.01237
1.0141
1.01489
0.970299
0.971062
0.97181
0.972547
0.973321
0.974156
0.97505
0.975998
0.977004
0.978076
0.979221
0.980443
0.981749
0.983145
0.984638
0.986232
0.987935
0.989751
0.991683
0.993731
0.995892
0.998156
1.00051
1.00291
1.00532
1.00767
1.00985
1.01168
1.01298
1.01323
0.971507
0.972232
0.972941
0.973651
0.9744
0.975203
0.976055
0.976958
0.977914
0.978931
0.980014
0.981169
0.982401
0.983717
0.985121
0.98662
0.988218
0.98992
0.991725
0.993635
0.995642
0.997736
0.999894
1.00208
1.00424
1.0063
1.00812
1.00953
1.01034
1.00986
0.972366
0.973045
0.973705
0.974372
0.975077
0.975826
0.976618
0.977453
0.978337
0.979274
0.980271
0.981332
0.982463
0.983668
0.984953
0.986323
0.987782
0.989331
0.990972
0.992701
0.994509
0.996382
0.998294
1.0002
1.00205
1.00374
1.00515
1.00604
1.00631
1.00478
0.972936
0.973562
0.974164
0.974773
0.975415
0.976094
0.976806
0.977555
0.978344
0.97918
0.980068
0.981011
0.982015
0.983083
0.984222
0.985433
0.986719
0.988083
0.989522
0.991031
0.992599
0.994207
0.995824
0.997399
0.99887
1.00013
1.00105
1.00134
1.00102
0.998074
0.973291
0.973862
0.974397
0.974933
0.975497
0.976091
0.97671
0.977354
0.978029
0.978741
0.979493
0.980289
0.981135
0.982033
0.982989
0.984005
0.985081
0.986217
0.987412
0.988658
0.989942
0.99124
0.992518
0.993727
0.99478
0.995556
0.995916
0.995506
0.994544
0.99008
0.973528
0.974036
0.974484
0.974928
0.975399
0.975895
0.976407
0.976939
0.977494
0.978076
0.978688
0.979332
0.980012
0.98073
0.981488
0.982288
0.983131
0.984015
0.984934
0.985877
0.986828
0.987762
0.988639
0.989398
0.989952
0.990158
0.989881
0.988659
0.986982
0.980925
0.9738
0.974203
0.974515
0.974855
0.975235
0.975622
0.976007
0.976395
0.976794
0.977212
0.977652
0.978116
0.978604
0.979117
0.979655
0.980218
0.980806
0.981414
0.982034
0.982654
0.983251
0.983791
0.984228
0.984492
0.984488
0.984052
0.983059
0.980906
0.978421
0.970449
0.974318
0.974473
0.974512
0.974716
0.975
0.975289
0.975584
0.97587
0.976132
0.97639
0.976653
0.976923
0.9772
0.977484
0.977773
0.978065
0.978358
0.978646
0.978921
0.979167
0.97936
0.979461
0.979412
0.97913
0.978509
0.977357
0.975563
0.972332
0.969039
0.958655
0.9751
0.974929
0.974735
0.974795
0.97494
0.975078
0.975197
0.975302
0.975404
0.975503
0.975592
0.975667
0.975734
0.975791
0.975825
0.975831
0.975806
0.975744
0.975634
0.975459
0.975196
0.974802
0.974215
0.973338
0.972049
0.97011
0.967466
0.962869
0.959112
0.94552
0.931561
0.916493
0.899592
0.881349
0.86208
0.841586
0.819745
0.796719
0.772968
0.749032
0.725582
0.703337
0.682759
0.665668
0.653812
0.647156
0.644138
0.6433
0.644074
0.646065
0.649911
0.655156
0.660653
0.664411
0.665335
0.664731
0.662133
0.650331
0.626124
0.600321
0.949095
0.935906
0.920566
0.904005
0.886235
0.866872
0.845856
0.823143
0.798849
0.773351
0.747052
0.720932
0.69602
0.673777
0.657726
0.648697
0.64451
0.643705
0.644814
0.647281
0.651427
0.657186
0.662777
0.665819
0.665662
0.663211
0.655437
0.634916
0.602096
0.577853
0.95293
0.940611
0.926655
0.911342
0.894145
0.874965
0.853905
0.831175
0.806895
0.781286
0.75479
0.728118
0.702504
0.679207
0.66201
0.652077
0.647251
0.646018
0.646871
0.649219
0.653929
0.660166
0.665488
0.667505
0.665863
0.660082
0.644803
0.614632
0.579124
0.563999
0.959437
0.949057
0.936429
0.922053
0.905933
0.887613
0.86694
0.844107
0.819193
0.792523
0.764765
0.736793
0.709846
0.685434
0.667101
0.656152
0.650729
0.649266
0.650163
0.652858
0.658027
0.664461
0.668871
0.669047
0.664719
0.65469
0.632423
0.599551
0.573736
0.570927
0.963062
0.953677
0.94229
0.929502
0.914651
0.897421
0.877649
0.855363
0.830602
0.803616
0.775032
0.745831
0.717439
0.691669
0.67189
0.65979
0.653828
0.652271
0.653506
0.656814
0.662323
0.668637
0.671689
0.669252
0.661881
0.648028
0.623367
0.596558
0.585048
0.596856
0.965962
0.957817
0.947796
0.936025
0.922171
0.905821
0.886759
0.86491
0.840297
0.813126
0.783953
0.75377
0.724149
0.697134
0.676066
0.662987
0.656616
0.655063
0.656657
0.660411
0.666006
0.671724
0.672899
0.667697
0.657655
0.64204
0.620428
0.604427
0.60902
0.634164
0.968053
0.960937
0.95201
0.94135
0.928566
0.913227
0.895017
0.873732
0.849331
0.821995
0.792262
0.761155
0.730362
0.702143
0.679895
0.665923
0.659174
0.65765
0.659557
0.663604
0.66899
0.673817
0.672741
0.66517
0.653426
0.638589
0.623354
0.621426
0.643944
0.680109
0.969621
0.963427
0.955522
0.945877
0.934084
0.919724
0.902409
0.881815
0.857789
0.83044
0.800265
0.768307
0.736362
0.706921
0.683503
0.66865
0.661522
0.660029
0.662209
0.66648
0.671682
0.675374
0.67237
0.663222
0.651244
0.639786
0.635385
0.651551
0.689806
0.730584
0.970809
0.965424
0.958429
0.949703
0.938844
0.925422
0.908995
0.889134
0.865577
0.838344
0.807862
0.775158
0.74212
0.711467
0.686891
0.671178
0.663687
0.662242
0.664693
0.6692
0.674228
0.676777
0.673008
0.664068
0.65467
0.650965
0.661266
0.693021
0.738167
0.771285
0.971725
0.967053
0.960868
0.952976
0.94298
0.930453
0.914899
0.895792
0.872762
0.845729
0.815037
0.781681
0.747615
0.715776
0.690067
0.673526
0.665698
0.664316
0.667023
0.671784
0.676656
0.678427
0.675264
0.668618
0.664665
0.671716
0.695372
0.733451
0.774838
0.795761
0.972444
0.968398
0.962933
0.955797
0.946598
0.934917
0.920212
0.901873
0.87942
0.852662
0.821845
0.787913
0.752876
0.719876
0.693054
0.675712
0.66758
0.666265
0.669241
0.67427
0.67901
0.680738
0.678768
0.675314
0.678265
0.695148
0.726727
0.765725
0.79742
0.807325
0.973014
0.969521
0.964698
0.958247
0.949785
0.938898
0.925009
0.907437
0.885599
0.859182
0.828318
0.793885
0.757927
0.723785
0.695864
0.677747
0.66936
0.668097
0.671394
0.67672
0.68148
0.683654
0.683027
0.683285
0.693005
0.717411
0.752791
0.788673
0.810662
0.811812
0.973468
0.970464
0.966218
0.96039
0.95261
0.942466
0.929355
0.912538
0.891338
0.865316
0.834477
0.799611
0.762779
0.727515
0.698506
0.679635
0.670976
0.669836
0.6735
0.679164
0.68421
0.686992
0.68795
0.692146
0.708021
0.737861
0.773936
0.804443
0.817497
0.812496
0.973831
0.97126
0.967531
0.962275
0.955127
0.945678
0.933308
0.917228
0.896677
0.871093
0.840341
0.805105
0.767445
0.731074
0.700985
0.68138
0.672473
0.6715
0.675574
0.681654
0.687168
0.69072
0.69346
0.70162
0.722843
0.756036
0.790447
0.814549
0.81983
0.811648
0.97412
0.971934
0.968665
0.963935
0.957381
0.948585
0.936916
0.921553
0.901655
0.876543
0.845932
0.810384
0.771936
0.734475
0.703312
0.682989
0.673866
0.673098
0.677631
0.684225
0.69035
0.694778
0.699401
0.711396
0.737026
0.771705
0.802707
0.820318
0.819336
0.810756
0.974348
0.972504
0.969648
0.9654
0.959403
0.951225
0.940224
0.925552
0.906305
0.88169
0.851269
0.815463
0.776266
0.737728
0.705494
0.684467
0.675163
0.674639
0.679688
0.686896
0.693737
0.699078
0.705587
0.721162
0.750206
0.784732
0.811239
0.823009
0.817545
0.810584
0.974523
0.972982
0.970499
0.966691
0.961221
0.953631
0.943267
0.929262
0.910659
0.886558
0.856369
0.820354
0.780444
0.74084
0.707537
0.685823
0.676367
0.676131
0.681768
0.689681
0.697297
0.703517
0.711863
0.730671
0.762125
0.795155
0.816725
0.823637
0.815669
0.811795
0.974655
0.973379
0.971234
0.967828
0.962854
0.955827
0.946074
0.932712
0.914742
0.89117
0.861248
0.825069
0.784481
0.743819
0.709447
0.687062
0.677483
0.677583
0.683883
0.692583
0.70099
0.70799
0.718044
0.739759
0.772655
0.803176
0.819973
0.822994
0.814493
0.815096
0.974752
0.973708
0.971864
0.968828
0.964316
0.957832
0.94867
0.935931
0.918582
0.895547
0.865923
0.829622
0.788385
0.746673
0.711232
0.688189
0.678515
0.679005
0.686046
0.695597
0.704772
0.712428
0.723928
0.748262
0.781772
0.809189
0.821694
0.821746
0.814437
0.819899
0.974824
0.973978
0.972401
0.969704
0.965623
0.959662
0.951074
0.938941
0.922201
0.899706
0.870407
0.834021
0.792165
0.749408
0.712896
0.689213
0.679463
0.680404
0.688267
0.698714
0.708575
0.71669
0.729573
0.756081
0.789503
0.813658
0.822433
0.820527
0.815836
0.82558
0.974877
0.974202
0.972856
0.970468
0.966788
0.961329
0.953304
0.941761
0.925617
0.903666
0.874715
0.83828
0.79583
0.752031
0.714444
0.690144
0.68033
0.68179
0.690552
0.701921
0.712334
0.720436
0.735073
0.763227
0.795997
0.816849
0.82256
0.820031
0.81865
0.831926
0.974914
0.974388
0.973241
0.97113
0.967821
0.962843
0.955371
0.944407
0.92885
0.907442
0.878857
0.842405
0.799386
0.754546
0.715881
0.690986
0.681116
0.683168
0.692906
0.705201
0.716038
0.723889
0.740041
0.76964
0.801583
0.819288
0.822366
0.820626
0.822514
0.838898
0.974942
0.974544
0.973568
0.971702
0.968732
0.964213
0.957286
0.946894
0.931915
0.91105
0.88285
0.846409
0.802844
0.75696
0.717212
0.691709
0.681828
0.684548
0.695331
0.708525
0.719576
0.727258
0.74439
0.77537
0.806468
0.821038
0.822276
0.822348
0.827292
0.8464
0.974965
0.974677
0.973848
0.972194
0.969531
0.965448
0.959057
0.949233
0.934823
0.914498
0.886696
0.850296
0.806207
0.759279
0.71844
0.692335
0.682479
0.685934
0.697833
0.711855
0.722725
0.730289
0.748323
0.780762
0.811141
0.82236
0.8226
0.825043
0.832968
0.854199
0.974985
0.974797
0.974089
0.972614
0.970227
0.966556
0.960687
0.951432
0.937597
0.917814
0.89042
0.854081
0.809482
0.761502
0.719564
0.692805
0.68306
0.687326
0.700419
0.715218
0.725404
0.732741
0.75212
0.78622
0.815461
0.823433
0.823509
0.828445
0.83945
0.862066
0.974998
0.974905
0.974304
0.972968
0.970821
0.967547
0.962185
0.953487
0.940217
0.92098
0.894014
0.857771
0.812688
0.763652
0.720632
0.693293
0.683632
0.688754
0.703088
0.718613
0.728248
0.73493
0.756262
0.792195
0.819338
0.824435
0.825004
0.832476
0.846643
0.870039
0.974985
0.974993
0.974513
0.973281
0.971312
0.968418
0.963575
0.955443
0.942741
0.924038
0.897477
0.861324
0.815764
0.765652
0.721416
0.693425
0.684031
0.690151
0.705774
0.721583
0.731093
0.737824
0.760633
0.798612
0.82263
0.825205
0.826684
0.83718
0.854304
0.878122
0.974961
0.975056
0.974728
0.973591
0.971741
0.969145
0.964802
0.957236
0.945156
0.927076
0.901
0.864987
0.819022
0.767957
0.722721
0.693879
0.684565
0.691643
0.708443
0.723758
0.732404
0.741243
0.767534
0.804822
0.82548
0.826345
0.829962
0.84301
0.862198
0.88597
0.974962
0.975089
0.974921
0.973921
0.972186
0.969868
0.965933
0.958758
0.947095
0.929445
0.90371
0.867705
0.821208
0.76906
0.722896
0.693708
0.684827
0.693086
0.710905
0.725627
0.731997
0.742434
0.772557
0.810516
0.827397
0.826103
0.831487
0.847301
0.869718
0.8932
0.974986
0.975084
0.975011
0.974202
0.972713
0.970676
0.967327
0.960957
0.950158
0.933355
0.908415
0.872802
0.825846
0.772417
0.724369
0.693876
0.685115
0.694538
0.713207
0.728245
0.736499
0.750231
0.781845
0.816932
0.829828
0.828764
0.838059
0.856565
0.879956
0.900382
0.655438
0.633757
0.642857
0.702821
0.751309
0.751216
0.725602
0.70762
0.694976
0.6878
0.685729
0.687404
0.691662
0.697613
0.704583
0.712098
0.719834
0.727565
0.735121
0.742383
0.74929
0.755812
0.76196
0.767724
0.773213
0.778644
0.784666
0.791409
0.799094
0.792119
0.626491
0.605024
0.639627
0.725369
0.778729
0.780297
0.743006
0.711735
0.692702
0.681596
0.676809
0.676985
0.680585
0.686359
0.693455
0.701274
0.709384
0.7175
0.725446
0.733101
0.740394
0.747276
0.753736
0.759752
0.765334
0.770407
0.775073
0.77865
0.7833
0.78433
0.594298
0.568411
0.612408
0.71754
0.79135
0.801187
0.760604
0.716142
0.690145
0.674068
0.665323
0.663492
0.666392
0.671976
0.679212
0.68744
0.696123
0.704893
0.713528
0.721887
0.729879
0.73745
0.744571
0.751215
0.75738
0.762978
0.768152
0.772544
0.777341
0.782295
0.579604
0.552948
0.582994
0.679946
0.769955
0.79835
0.767976
0.714736
0.678905
0.660656
0.64985
0.646027
0.648849
0.655377
0.663735
0.673108
0.682975
0.69293
0.702702
0.712128
0.721118
0.729628
0.737643
0.745158
0.752208
0.758784
0.764995
0.770714
0.775989
0.780983
0.581048
0.557155
0.567583
0.640104
0.715775
0.750971
0.743665
0.704402
0.66049
0.635202
0.625219
0.622233
0.624833
0.632726
0.64327
0.654671
0.666304
0.677876
0.689136
0.699901
0.710089
0.719677
0.728667
0.737071
0.744924
0.752238
0.759049
0.76537
0.771094
0.776437
0.589528
0.572715
0.562862
0.597322
0.648733
0.678291
0.678989
0.660233
0.628531
0.59982
0.586645
0.586178
0.591547
0.601012
0.614441
0.629193
0.643571
0.657422
0.670726
0.683314
0.695097
0.706081
0.716301
0.725794
0.734604
0.742777
0.750349
0.757399
0.763882
0.770034
0.600746
0.594958
0.560721
0.554958
0.579562
0.598208
0.599666
0.588376
0.570307
0.549975
0.53576
0.535145
0.544536
0.557674
0.574448
0.594299
0.613345
0.630749
0.646974
0.662116
0.67611
0.688997
0.70087
0.711815
0.721911
0.73124
0.739865
0.747875
0.755239
0.762212
0.594006
0.607611
0.547432
0.512004
0.514648
0.520253
0.517039
0.507567
0.49524
0.482935
0.473053
0.471292
0.48215
0.500709
0.52174
0.545879
0.571886
0.595328
0.61614
0.635018
0.652162
0.667684
0.681774
0.694614
0.706348
0.717107
0.72699
0.73612
0.74448
0.752368
0.540833
0.574317
0.510831
0.464849
0.452328
0.445467
0.435899
0.425105
0.414487
0.405435
0.399606
0.399007
0.407689
0.428152
0.455669
0.484957
0.516368
0.547604
0.575283
0.59966
0.621333
0.640593
0.657749
0.673126
0.686988
0.699551
0.710983
0.721466
0.731016
0.739994
0.442225
0.504486
0.453541
0.41025
0.389596
0.373266
0.357808
0.344296
0.333161
0.32478
0.32042
0.321217
0.328894
0.346879
0.375255
0.410607
0.44823
0.48594
0.521806
0.55367
0.581595
0.606046
0.627459
0.646309
0.66302
0.677945
0.691356
0.70352
0.714507
0.724761
0.32862
0.411636
0.381625
0.348308
0.325357
0.303403
0.283368
0.26671
0.253676
0.244715
0.240348
0.241528
0.248762
0.263912
0.289525
0.325083
0.36722
0.411737
0.45515
0.495531
0.531327
0.56255
0.589628
0.613132
0.633638
0.651663
0.66762
0.681895
0.694642
0.7064
0.219167
0.313199
0.303883
0.282137
0.260767
0.236474
0.213338
0.193577
0.177912
0.167137
0.161943
0.162777
0.169657
0.183007
0.204908
0.237222
0.279309
0.327703
0.37802
0.42633
0.470499
0.509604
0.543602
0.572946
0.598276
0.620247
0.639423
0.656331
0.671236
0.684787
0.128705
0.221592
0.227314
0.216914
0.199134
0.174506
0.149449
0.126902
0.108417
0.0951954
0.088159
0.0877203
0.0939603
0.106321
0.125566
0.153976
0.193001
0.241281
0.294954
0.349518
0.401434
0.448591
0.490159
0.526189
0.557201
0.583891
0.606939
0.627007
0.64449
0.660135
0.0627132
0.14871
0.165058
0.160711
0.145574
0.12103
0.0944888
0.0693513
0.0480054
0.0321046
0.0226368
0.0201643
0.0249182
0.0363068
0.0538762
0.079089
0.114209
0.159866
0.213781
0.27175
0.329439
0.383596
0.43239
0.475206
0.512223
0.544037
0.571358
0.594935
0.615295
0.633242
0.0317299
0.106407
0.125144
0.121409
0.106233
0.0807103
0.0521623
0.024188
-0.00018783
-0.0189541
-0.0310778
-0.0359593
-0.0334055
-0.0235404
-0.00734842
0.0155846
0.0473601
0.0896894
0.141892
0.200713
0.261742
0.320994
0.375739
0.424532
0.46709
0.503792
0.535279
0.562317
0.585545
0.605753
0.0394345
0.0970934
0.112786
0.104813
0.0866791
0.0585857
0.0268707
-0.00467818
-0.0326456
-0.0547288
-0.0697447
-0.0772246
-0.0770217
-0.0693106
-0.0546507
-0.0333971
-0.00402114
0.0355065
0.0855128
0.143707
0.205992
0.26801
0.326983
0.380224
0.427085
0.467733
0.50265
0.532563
0.5582
0.580253
0.0840919
0.114854
0.126233
0.112983
0.0903066
0.0586151
0.022985
-0.0127991
-0.045139
-0.0713694
-0.0899815
-0.100417
-0.102732
-0.0973374
-0.0843493
-0.0643393
-0.0363358
0.00153415
0.0499506
0.107227
0.16971
0.233139
0.293887
0.34925
0.398398
0.441341
0.478288
0.509905
0.536978
0.560034
0.158064
0.163192
0.166301
0.146983
0.118841
0.0827595
0.0428557
0.00272468
-0.0339946
-0.0645238
-0.0872682
-0.101386
-0.106645
-0.10352
-0.0923453
-0.0732151
-0.045544
-0.00797983
0.0398826
0.0964285
0.15826
0.221334
0.281538
0.336939
0.386401
0.429564
0.466696
0.498426
0.52556
0.548445
0.25354
0.239485
0.230454
0.20419
0.170915
0.131068
0.0877075
0.0438447
0.00292336
-0.0320677
-0.0590106
-0.0766292
-0.0844664
-0.0828749
-0.0729782
-0.0541097
-0.0259715
0.0122577
0.0602643
0.116013
0.176056
0.236531
0.294147
0.347185
0.394547
0.435662
0.470958
0.501018
0.526647
0.548058
0.358942
0.330826
0.310994
0.278801
0.2418
0.200092
0.155552
0.110319
0.0672748
0.029354
-0.00103736
-0.0221729
-0.0330435
-0.0335599
-0.0242332
-0.00489052
0.0246382