/*--------------------------------*- C++ -*----------------------------------*\
  =========                 |
  \\      /  F ield         | OpenFOAM: The Open Source CFD Toolbox
   \\    /   O peration     | Website:  https://openfoam.org
    \\  /    A nd           | Version:  11
     \\/     M anipulation  |
\*---------------------------------------------------------------------------*/
FoamFile
{
    format      ascii;
    class       volScalarField;
    location    "6";
    object      p;
}
// * * * * * * * * * * * * * * * * * * * * * * * * * * * * * * * * * * * * * //

dimensions      [0 2 -2 0 0 0 0];

internalField   nonuniform List<scalar> 
12600
(
0.141552
0.141464
0.14141
0.141384
0.141362
0.141334
0.141301
0.141264
0.141222
0.141172
0.141115
0.141049
0.14097
0.140877
0.140766
0.140632
0.140471
0.140276
0.140039
0.13975
0.139397
0.138964
0.138432
0.137778
0.136972
0.135981
0.134765
0.133274
0.131485
0.129262
0.141487
0.141447
0.141407
0.141383
0.141362
0.141336
0.141305
0.141268
0.141226
0.141177
0.141121
0.141057
0.14098
0.14089
0.140781
0.140651
0.140494
0.140304
0.140073
0.139792
0.139448
0.139025
0.138506
0.137865
0.137074
0.136098
0.134895
0.133417
0.131607
0.12939
0.141463
0.141444
0.141416
0.14139
0.141367
0.141341
0.141311
0.141275
0.141235
0.141189
0.141135
0.141072
0.140999
0.140911
0.140807
0.140682
0.140532
0.14035
0.14013
0.13986
0.139531
0.139126
0.138627
0.13801
0.137246
0.136299
0.135123
0.133674
0.13186
0.129672
0.141447
0.141436
0.141413
0.141391
0.141369
0.141345
0.141317
0.141284
0.141246
0.141201
0.141151
0.141091
0.141022
0.14094
0.140842
0.140725
0.140584
0.140415
0.140209
0.139958
0.13965
0.139272
0.138804
0.138223
0.1375
0.1366
0.135471
0.134068
0.132282
0.130122
0.14144
0.141433
0.141416
0.141397
0.141376
0.141354
0.141327
0.141297
0.141261
0.14122
0.141173
0.141118
0.141053
0.140978
0.140888
0.140781
0.140652
0.140498
0.140311
0.140082
0.139803
0.139458
0.139031
0.138498
0.137831
0.136993
0.135932
0.134598
0.132868
0.130761
0.141438
0.141432
0.14142
0.141403
0.141384
0.141363
0.141339
0.141311
0.141278
0.141241
0.141197
0.141147
0.141089
0.141021
0.140941
0.140845
0.140731
0.140595
0.14043
0.14023
0.139984
0.139681
0.139304
0.138832
0.138235
0.137478
0.136506
0.135269
0.133627
0.131604
0.141439
0.141435
0.141425
0.141411
0.141394
0.141375
0.141353
0.141328
0.141298
0.141265
0.141226
0.141182
0.141131
0.141071
0.141002
0.14092
0.140822
0.140706
0.140567
0.140398
0.140192
0.139937
0.139619
0.139218
0.138707
0.13805
0.137192
0.136081
0.134563
0.132666
0.141443
0.14144
0.141432
0.14142
0.141405
0.141388
0.141369
0.141346
0.141321
0.141291
0.141258
0.14122
0.141176
0.141126
0.141068
0.141
0.140921
0.140828
0.140716
0.140582
0.140419
0.140219
0.139967
0.139648
0.139237
0.1387
0.137982
0.137031
0.135682
0.133962
0.14145
0.141447
0.141441
0.141431
0.141418
0.141403
0.141386
0.141367
0.141345
0.14132
0.141292
0.14126
0.141225
0.141184
0.141138
0.141086
0.141026
0.140956
0.140875
0.140779
0.140662
0.14052
0.140342
0.140114
0.139816
0.139416
0.138864
0.13811
0.136981
0.135504
0.141459
0.141457
0.141451
0.141443
0.141432
0.141419
0.141405
0.141389
0.14137
0.14135
0.141327
0.141303
0.141275
0.141245
0.141212
0.141175
0.141134
0.141089
0.141039
0.140981
0.140914
0.140833
0.140733
0.140603
0.140428
0.140183
0.139823
0.139301
0.138449
0.137292
0.141469
0.141468
0.141463
0.141456
0.141447
0.141437
0.141425
0.141412
0.141397
0.141381
0.141364
0.141346
0.141327
0.141306
0.141286
0.141265
0.141243
0.141223
0.141203
0.141184
0.141166
0.141148
0.141129
0.141102
0.141057
0.14098
0.140832
0.140578
0.140062
0.139306
0.141481
0.14148
0.141476
0.141471
0.141463
0.141455
0.141446
0.141435
0.141424
0.141413
0.141401
0.141389
0.141378
0.141368
0.141359
0.141353
0.141351
0.141353
0.141363
0.141382
0.141412
0.141457
0.141516
0.141593
0.141683
0.14178
0.141861
0.141903
0.141775
0.141501
0.141494
0.141493
0.14149
0.141486
0.14148
0.141474
0.141467
0.141459
0.141452
0.141444
0.141438
0.141432
0.141428
0.141427
0.14143
0.141438
0.141453
0.141478
0.141515
0.141569
0.141645
0.141748
0.141883
0.14206
0.142281
0.142554
0.142869
0.143223
0.143524
0.143801
0.141508
0.141507
0.141505
0.141501
0.141497
0.141493
0.141488
0.141483
0.141479
0.141475
0.141473
0.141473
0.141477
0.141484
0.141497
0.141517
0.141548
0.141593
0.141655
0.14174
0.141856
0.142012
0.142216
0.142484
0.142829
0.143267
0.143811
0.144477
0.145223
0.146091
0.141522
0.141522
0.14152
0.141518
0.141515
0.141512
0.141509
0.141506
0.141505
0.141505
0.141508
0.141513
0.141522
0.141537
0.141559
0.14159
0.141634
0.141695
0.141778
0.14189
0.14204
0.142239
0.142503
0.142849
0.1433
0.143886
0.144637
0.145593
0.14677
0.148227
0.141537
0.141537
0.141536
0.141534
0.141532
0.141531
0.14153
0.141529
0.141531
0.141534
0.14154
0.14155
0.141564
0.141585
0.141614
0.141654
0.141709
0.141783
0.141882
0.142014
0.14219
0.142423
0.142731
0.143138
0.143673
0.144377
0.145298
0.146499
0.148052
0.150042
0.141552
0.141552
0.141551
0.14155
0.14155
0.141549
0.14155
0.141551
0.141555
0.141561
0.14157
0.141583
0.141602
0.141628
0.141662
0.141709
0.141772
0.141855
0.141965
0.14211
0.142302
0.142557
0.142893
0.143339
0.143929
0.144711
0.14575
0.147127
0.148962
0.151367
0.141568
0.141568
0.141567
0.141567
0.141567
0.141567
0.141569
0.141572
0.141578
0.141586
0.141597
0.141613
0.141635
0.141664
0.141703
0.141754
0.141821
0.141909
0.142024
0.142175
0.142374
0.142637
0.142983
0.143443
0.144054
0.144869
0.145962
0.147425
0.149415
0.15206
0.141583
0.141583
0.141583
0.141583
0.141583
0.141585
0.141587
0.141592
0.141599
0.141609
0.141622
0.14164
0.141664
0.141695
0.141736
0.141789
0.141857
0.141945
0.14206
0.14221
0.142405
0.142662
0.143
0.143447
0.144044
0.144841
0.145916
0.147364
0.149356
0.152027
0.141599
0.141599
0.141599
0.141599
0.1416
0.141601
0.141605
0.14161
0.141618
0.141629
0.141644
0.141663
0.141688
0.14172
0.141761
0.141814
0.14188
0.141965
0.142074
0.142215
0.142397
0.142634
0.142944
0.143354
0.1439
0.144629
0.145613
0.146942
0.148779
0.151248
0.141615
0.141615
0.141614
0.141614
0.141615
0.141617
0.141621
0.141627
0.141636
0.141647
0.141663
0.141683
0.141708
0.14174
0.141779
0.141829
0.141891
0.141969
0.142068
0.142193
0.142352
0.142557
0.142824
0.143173
0.143634
0.144249
0.145075
0.146189
0.147724
0.149779
0.141631
0.14163
0.14163
0.141629
0.14163
0.141632
0.141636
0.141642
0.141651
0.141663
0.141679
0.141699
0.141723
0.141754
0.141791
0.141837
0.141892
0.14196
0.142044
0.142148
0.142277
0.142441
0.142649
0.142917
0.143267
0.143728
0.144341
0.145159
0.146274
0.147745
0.141647
0.141646
0.141645
0.141643
0.141644
0.141646
0.14165
0.141656
0.141665
0.141677
0.141693
0.141712
0.141735
0.141763
0.141797
0.141837
0.141884
0.14194
0.142006
0.142085
0.142179
0.142293
0.142432
0.142606
0.142824
0.143102
0.143462
0.143929
0.144544
0.145322
0.141663
0.141662
0.14166
0.141657
0.141656
0.141658
0.141662
0.141668
0.141677
0.141689
0.141704
0.141722
0.141744
0.141769
0.141799
0.141833
0.14187
0.141912
0.141959
0.14201
0.142066
0.142126
0.142191
0.14226
0.142335
0.142416
0.142501
0.142588
0.142667
0.142707
0.14168
0.141679
0.141674
0.14167
0.141668
0.141669
0.141673
0.141679
0.141687
0.141698
0.141713
0.14173
0.14175
0.141772
0.141797
0.141824
0.141852
0.14188
0.141907
0.14193
0.141946
0.141951
0.14194
0.141905
0.141834
0.141714
0.141523
0.141229
0.140777
0.140095
0.141699
0.141696
0.141688
0.141681
0.141679
0.14168
0.141683
0.141688
0.141696
0.141707
0.14172
0.141736
0.141754
0.141774
0.141794
0.141815
0.141833
0.141848
0.141855
0.141851
0.14183
0.141783
0.141699
0.141563
0.141355
0.141045
0.140592
0.139942
0.139
0.137661
0.141721
0.141714
0.141701
0.141691
0.141687
0.141687
0.14169
0.141694
0.141702
0.141712
0.141725
0.14174
0.141756
0.141773
0.141789
0.141804
0.141814
0.141816
0.141806
0.141778
0.141724
0.14163
0.141482
0.141257
0.140926
0.140447
0.139766
0.138806
0.137446
0.135552
0.141747
0.141734
0.141714
0.141701
0.141696
0.141696
0.141698
0.141702
0.141709
0.141719
0.141731
0.141744
0.141759
0.141774
0.141787
0.141796
0.1418
0.141792
0.141768
0.14172
0.141638
0.141506
0.141305
0.141008
0.140576
0.139961
0.139094
0.137886
0.136205
0.133893
0.141782
0.141746
0.141716
0.141704
0.1417
0.141699
0.1417
0.141704
0.141711
0.14172
0.141732
0.141745
0.141759
0.141772
0.141783
0.141789
0.141788
0.141773
0.141739
0.141677
0.141577
0.141419
0.14118
0.14083
0.140326
0.139613
0.138612
0.137224
0.135329
0.132757
0.141857
0.141769
0.141721
0.141708
0.141706
0.141705
0.141705
0.141709
0.141715
0.141724
0.141736
0.141748
0.141762
0.141774
0.141784
0.141789
0.141785
0.141767
0.141728
0.141659
0.141547
0.141374
0.141114
0.140735
0.140191
0.139421
0.138343
0.136848
0.134783
0.132017
0.127117
0.126046
0.125426
0.125056
0.124631
0.124096
0.123503
0.12288
0.122221
0.121512
0.120747
0.119917
0.119009
0.118006
0.116883
0.115613
0.114161
0.112482
0.110521
0.108205
0.105438
0.10209
0.0979837
0.0928767
0.0864066
0.0781032
0.0672426
0.0516995
0.0364789
-0.00832966
0.127734
0.127057
0.126527
0.126095
0.125605
0.125036
0.124438
0.123832
0.123206
0.122543
0.121832
0.121065
0.120228
0.119304
0.118272
0.117108
0.115782
0.114257
0.112484
0.110401
0.107926
0.104951
0.101326
0.0968515
0.0912286
0.084079
0.0747153
0.0620906
0.0474187
0.0124996
0.127786
0.127279
0.126856
0.126432
0.125973
0.125486
0.124987
0.124477
0.123939
0.123362
0.122739
0.122063
0.121324
0.120509
0.119601
0.118579
0.11742
0.116092
0.114555
0.112758
0.110635
0.108097
0.105024
0.101257
0.0965559
0.0906244
0.08289
0.0727328
0.0597911
0.0333846
0.128177
0.127851
0.12758
0.12722
0.126811
0.126391
0.125966
0.125522
0.125051
0.124549
0.124012
0.123434
0.122806
0.122116
0.121351
0.120495
0.119529
0.118428
0.117162
0.115689
0.113959
0.111904
0.109431
0.106417
0.102674
0.0979817
0.0918641
0.0839474
0.0732473
0.0540246
0.128788
0.128587
0.128418
0.128109
0.127745
0.127394
0.127049
0.126693
0.126316
0.125917
0.125493
0.125039
0.124548
0.124011
0.12342
0.122762
0.122024
0.121189
0.120233
0.11913
0.11784
0.116315
0.114487
0.112267
0.109513
0.106064
0.101533
0.0957224
0.0874385
0.0741773
0.129618
0.129533
0.129473
0.129239
0.128946
0.128681
0.128434
0.128179
0.127909
0.127625
0.127328
0.127014
0.126679
0.126318
0.125925
0.125493
0.125014
0.124477
0.123868
0.123169
0.122356
0.121395
0.120243
0.118835
0.117072
0.114841
0.111836
0.107984
0.102074
0.0936396
0.130693
0.130726
0.130783
0.130633
0.130421
0.13025
0.13011
0.129968
0.129819
0.129669
0.129519
0.129368
0.129214
0.129054
0.128887
0.12871
0.12852
0.128313
0.128081
0.127816
0.127506
0.127133
0.126669
0.126075
0.125284
0.124218
0.122646
0.120571
0.116857
0.112264
0.132047
0.132203
0.132382
0.132329
0.132211
0.132148
0.132128
0.132117
0.132108
0.132109
0.132125
0.132157
0.132205
0.132269
0.132351
0.132452
0.132575
0.13272
0.132887
0.133076
0.133283
0.133502
0.133721
0.133918
0.134051
0.134068
0.133801
0.133278
0.1315
0.129835
0.13371
0.133992
0.1343
0.134355
0.134343
0.134401
0.134515
0.134648
0.134794
0.134963
0.135163
0.135396
0.135664
0.13597
0.13632
0.136718
0.13717
0.137682
0.138258
0.138905
0.139627
0.140426
0.141301
0.142242
0.143224
0.144212
0.145085
0.14586
0.145706
0.146148
0.1357
0.136112
0.13655
0.136723
0.136831
0.137021
0.137281
0.137571
0.137885
0.138235
0.138633
0.13908
0.139581
0.140142
0.140771
0.141474
0.142261
0.143141
0.144123
0.145218
0.146435
0.147781
0.149262
0.150875
0.152605
0.154425
0.156241
0.158042
0.159171
0.161002
0.138016
0.138555
0.139121
0.13942
0.139658
0.13999
0.140405
0.140859
0.141349
0.14189
0.142492
0.14316
0.1439
0.144719
0.145627
0.146633
0.147749
0.148986
0.150355
0.15187
0.153543
0.155384
0.157401
0.159593
0.16195
0.164445
0.166995
0.169557
0.171629
0.174238
0.140624
0.141282
0.141967
0.142395
0.142772
0.14325
0.143821
0.144443
0.145112
0.145843
0.146649
0.147536
0.14851
0.14958
0.150757
0.152052
0.153476
0.155043
0.156765
0.158657
0.16073
0.162996
0.165461
0.168126
0.170977
0.173985
0.17707
0.180163
0.182876
0.185792
0.143441
0.144205
0.144994
0.145549
0.146066
0.146689
0.147413
0.148197
0.149038
0.149952
0.150952
0.152046
0.153239
0.154542
0.155965
0.15752
0.15922
0.161077
0.163104
0.165314
0.167718
0.170326
0.173143
0.176163
0.179371
0.18273
0.186162
0.189579
0.19267
0.195629
0.146331
0.147182
0.148052
0.148726
0.149378
0.150139
0.151003
0.151935
0.152934
0.154014
0.155189
0.156466
0.157853
0.159358
0.160993
0.16277
0.164701
0.166796
0.169068
0.171528
0.174186
0.177047
0.180111
0.18337
0.186798
0.190352
0.193945
0.197467
0.200645
0.203471
0.149104
0.150016
0.150943
0.151719
0.152494
0.153376
0.154359
0.155418
0.156551
0.157772
0.159093
0.160522
0.162067
0.163736
0.165541
0.167492
0.1696
0.171875
0.174327
0.176966
0.179796
0.182821
0.186034
0.189421
0.192948
0.196559
0.200157
0.203602
0.206631
0.209022
0.151526
0.152473
0.153429
0.154286
0.155163
0.156141
0.157218
0.158374
0.15961
0.160938
0.16237
0.163913
0.165574
0.167363
0.169289
0.171362
0.17359
0.175984
0.178551
0.181297
0.184224
0.187332
0.190608
0.194031
0.197561
0.201131
0.204636
0.207913
0.210707
0.212684
0.153351
0.154308
0.155269
0.156179
0.157129
0.158173
0.159311
0.16053
0.161834
0.163231
0.164734
0.166348
0.168081
0.169942
0.171938
0.174079
0.176373
0.178827
0.181447
0.184236
0.187194
0.190315
0.193585
0.196975
0.200439
0.203904
0.207258
0.210328
0.21287
0.214477
0.154366
0.155309
0.156253
0.157186
0.158173
0.159249
0.160413
0.161659
0.162991
0.164418
0.165949
0.167591
0.16935
0.171235
0.173253
0.175412
0.177718
0.180178
0.182796
0.185572
0.188504
0.191583
0.19479
0.198093
0.20144
0.204752
0.207908
0.210721
0.212933
0.214042
0.154425
0.155335
0.156246
0.15717
0.158157
0.159228
0.160381
0.161617
0.162938
0.164353
0.16587
0.167496
0.169237
0.171101
0.173093
0.175222
0.177493
0.17991
0.182477
0.185192
0.188049
0.191038
0.194136
0.197308
0.200496
0.203614
0.206532
0.209051
0.210918
0.211625
0.15349
0.154348
0.155213
0.156097
0.157044
0.158071
0.159179
0.160366
0.161638
0.163001
0.164464
0.166032
0.167712
0.169511
0.171435
0.173489
0.17568
0.17801
0.180482
0.183092
0.185834
0.188692
0.191644
0.19465
0.197647
0.200542
0.203198
0.205403
0.206911
0.207069
0.151638
0.152425
0.153231
0.154047
0.154916
0.155864
0.156891
0.157995
0.15918
0.160454
0.161824
0.163295
0.164875
0.166568
0.168382
0.170321
0.172391
0.174593
0.176928
0.179394
0.181981
0.184675
0.187446
0.190251
0.193024
0.195664
0.198029
0.199879
0.201
0.200324
0.14905
0.149747
0.150476
0.151193
0.15195
0.152785
0.153699
0.154686
0.15575
0.156898
0.158138
0.159476
0.160916
0.162466
0.164131
0.165916
0.167825
0.169859
0.172018
0.174299
0.17669
0.179175
0.181721
0.184283
0.186789
0.189131
0.191162
0.192609
0.193366
0.191693
0.145968
0.146551
0.14718
0.147771
0.148386
0.149077
0.149846
0.150685
0.151595
0.152584
0.153659
0.154828
0.156094
0.157463
0.15894
0.160531
0.162238
0.164063
0.166004
0.168056
0.170207
0.172437
0.174713
0.176985
0.179177
0.18117
0.182816
0.183786
0.184125
0.181591
0.142663
0.143106
0.143609
0.144047
0.144495
0.145015
0.145613
0.146274
0.147
0.1478
0.14868
0.149646
0.150704
0.151858
0.153114
0.154474
0.155942
0.157518
0.1592
0.160981
0.162847
0.164777
0.166733
0.168662
0.17048
0.172059
0.173246
0.173633
0.173408
0.1698
0.139392
0.139669
0.140017
0.140282
0.140542
0.140871
0.141273
0.141732
0.14225
0.142833
0.143491
0.144228
0.145049
0.145958
0.146959
0.148056
0.149251
0.150542
0.151926
0.153394
0.154931
0.156511
0.158095
0.159619
0.160997
0.162078
0.16271
0.162388
0.161432
0.156388
0.136381
0.136466
0.136626
0.136697
0.136754
0.136872
0.137057
0.137293
0.13758
0.137926
0.138339
0.138823
0.139382
0.14002
0.140741
0.141546
0.142436
0.143409
0.144459
0.145576
0.146741
0.147923
0.149079
0.150138
0.151001
0.151497
0.151467
0.150294
0.148457
0.141561
0.133807
0.133673
0.133617
0.133482
0.13333
0.133225
0.133175
0.133169
0.133207
0.133297
0.133446
0.133656
0.133933
0.134279
0.134696
0.135186
0.135747
0.136376
0.137063
0.137795
0.138549
0.139291
0.139968
0.140499
0.140774
0.140592
0.139789
0.13761
0.134758
0.125545
0.131821
0.1314
0.131063
0.130708
0.130351
0.130019
0.129721
0.129458
0.129234
0.129056
0.128927
0.12885
0.128828
0.128863
0.128957
0.12911
0.129319
0.129577
0.129875
0.130194
0.130506
0.13077
0.130925
0.130878
0.130501
0.129562
0.127884
0.124552
0.120615
0.108507
0.130673
0.12987
0.129173
0.12858
0.128015
0.127461
0.126913
0.126378
0.125866
0.125395
0.124971
0.124593
0.124261
0.123977
0.123742
0.123551
0.123401
0.123281
0.123177
0.123066
0.122915
0.122672
0.122267
0.121589
0.120494
0.118707
0.116038
0.111346
0.106348
0.0905825
0.129777
0.128664
0.127779
0.127022
0.126212
0.125348
0.124528
0.123739
0.122947
0.122174
0.121433
0.120727
0.120055
0.11942
0.11882
0.118254
0.117714
0.117188
0.116659
0.116098
0.115465
0.114701
0.113722
0.112398
0.110562
0.107894
0.104208
0.0978763
0.0922918
0.0719444
0.0533317
0.0343131
0.0142604
-0.00611935
-0.0262164
-0.0457552
-0.0645109
-0.0822003
-0.0982473
-0.112494
-0.124653
-0.134326
-0.140947
-0.144403
-0.144505
-0.140887
-0.133768
-0.126378
-0.122556
-0.125638
-0.131307
-0.134819
-0.135638
-0.134386
-0.131937
-0.130552
-0.130016
-0.12898
-0.126829
-0.124391
0.0789631
0.0626467
0.0447815
0.0267699
0.00885273
-0.00898809
-0.0263848
-0.0429404
-0.0585503
-0.0731469
-0.0862106
-0.0974705
-0.105861
-0.11145
-0.115221
-0.116609
-0.115486
-0.113312
-0.114131
-0.121028
-0.129942
-0.134074
-0.13345
-0.130552
-0.128836
-0.12989
-0.13127
-0.130705
-0.128208
-0.124442
0.0846723
0.0690823
0.0525976
0.0358978
0.0185802
0.00118497
-0.0158331
-0.0323858
-0.0484066
-0.0633872
-0.0767784
-0.0881477
-0.0970783
-0.103482
-0.107715
-0.109645
-0.109844
-0.108685
-0.109987
-0.114893
-0.120587
-0.123227
-0.12386
-0.12402
-0.125509
-0.128098
-0.129507
-0.129041
-0.126904
-0.122035
0.093432
0.0801702
0.0652872
0.04965
0.0337189
0.017588
0.00124647
-0.0150658
-0.0309098
-0.0458551
-0.0594351
-0.0712364
-0.0809251
-0.0883266
-0.0935749
-0.0968358
-0.0985545
-0.0995203
-0.101711
-0.105289
-0.108727
-0.110788
-0.112348
-0.113892
-0.116296
-0.118906
-0.120591
-0.120607
-0.117992
-0.112325
0.0982608
0.0860429
0.0722729
0.0580272
0.0433032
0.0279889
0.0122172
-0.00355255
-0.0190077
-0.0337756
-0.0474232
-0.0595257
-0.06972
-0.0777782
-0.0837321
-0.0877923
-0.0903899
-0.0922359
-0.0943664
-0.0970746
-0.0997457
-0.101544
-0.102503
-0.103094
-0.104164
-0.105293
-0.105727
-0.10468
-0.102741
-0.098608
0.102014
0.0910671
0.0785911
0.0654611
0.0517035
0.0371863
0.0220849
0.00677374
-0.00839556
-0.0230486
-0.036756
-0.0490768
-0.0596321
-0.0681814
-0.0747063
-0.0794
-0.082656
-0.0850366
-0.0872303
-0.0895398
-0.0915549
-0.0926652
-0.092963
-0.0929434
-0.0928381
-0.0922175
-0.0911659
-0.0895536
-0.0878872
-0.0848467
0.104725
0.0948002
0.0833525
0.0712139
0.0583566
0.0446564
0.0302576
0.0154847
0.000698327
-0.0137266
-0.0273687
-0.0397857
-0.0505874
-0.0595121
-0.0664941
-0.0716797
-0.075402
-0.0781274
-0.080362
-0.0823166
-0.0837193
-0.0842365
-0.0839709
-0.0832007
-0.0820239
-0.0804107
-0.0784169
-0.075893
-0.073698
-0.0733897
0.106782
0.0977433
0.0872269
0.0759652
0.063922
0.0509611
0.0371986
0.0229356
0.00852477
-0.00566182
-0.0192085
-0.0316731
-0.0426535
-0.0518631
-0.0591949
-0.0647459
-0.0687919
-0.0717181
-0.0739032
-0.0755075
-0.0763883
-0.0763677
-0.0755174
-0.0740282
-0.0720018
-0.069455
-0.0664894
-0.0633325
-0.060724
-0.059169
0.108387
0.100099
0.0903792
0.0798901
0.068578
0.0562943
0.0431327
0.0293695
0.0153387
0.00140481
-0.0120191
-0.0244884
-0.0355881
-0.0450077
-0.0526037
-0.0584263
-0.0626953
-0.0657248
-0.0678117
-0.0690936
-0.0695042
-0.0689495
-0.0674969
-0.0652995
-0.0624566
-0.0590143
-0.055086
-0.0508613
-0.0466531
-0.0428299
0.109692
0.102039
0.093005
0.0831963
0.0725368
0.0608661
0.0482595
0.0349693
0.0213092
0.00763305
-0.00564948
-0.0180911
-0.0292656
-0.03884
-0.0466365
-0.0526603
-0.0570782
-0.0601451
-0.0621022
-0.0630713
-0.0630315
-0.0619444
-0.0598792
-0.0569664
-0.0532982
-0.0489341
-0.0439412
-0.0384453
-0.0323675
-0.0262985
0.110799
0.103685
0.0952356
0.0860226
0.0759454
0.0648286
0.05273
0.0398804
0.026574
0.0131518
1.86616e-05
-0.0123758
-0.0235944
-0.0332829
-0.0412307
-0.0474008
-0.0519113
-0.0549675
-0.0567683
-0.0574243
-0.0569449
-0.0553295
-0.0526508
-0.0490225
-0.044525
-0.0392093
-0.0330824
-0.0262098
-0.0183474
-0.0101068
0.111782
0.105122
0.0971721
0.0884791
0.0789196
0.0683005
0.0566632
0.0442202
0.0312465
0.0180691
0.00508677
-0.00724901
-0.0184905
-0.0282627
-0.036324
-0.042598
-0.0471587
-0.050168
-0.0517919
-0.0521328
-0.0512208
-0.0490813
-0.0457913
-0.0414517
-0.0361317
-0.0298642
-0.0226285
-0.0144382
-0.00506563
0.00494652
0.11269
0.106416
0.0988904
0.0906506
0.0815502
0.0713769
0.0601563
0.0480851
0.0354203
0.0224742
0.00963851
-0.00263371
-0.0138844
-0.0237188
-0.0318657
-0.0382117
-0.0427902
-0.0457256
-0.0471575
-0.0471807
-0.0458405
-0.0431821
-0.0392866
-0.0342477
-0.0281282
-0.0209535
-0.0127062
-0.00338423
0.00712246
0.0182418
0.113561
0.107614
0.100448
0.0926035
0.0839095
0.0741343
0.0632883
0.0515541
0.0391725
0.026441
0.0137436
0.00153441
-0.00971841
-0.0196007
-0.0278131
-0.0342072
-0.0387795
-0.0416208
-0.0428487
-0.0425522
-0.0407872
-0.0376163
-0.0331267
-0.0274109
-0.0205344
-0.012531
-0.0034103
0.00679021
0.0180334
0.0296763
0.114418
0.108751
0.10189
0.0943893
0.0860548
0.0766339
0.066123
0.0546925
0.0425675
0.0300315
0.0174607
0.0053098
-0.00594323
-0.0158652
-0.0241294
-0.0305545
-0.0351025
-0.0378349
-0.0388502
-0.0382315
-0.0360459
-0.0323712
-0.0273044
-0.0209439
-0.0133686
-0.00463662
0.00519277
0.0160123
0.0276527
0.0394182
0.115281
0.109852
0.103251
0.0960459
0.088031
0.0789253
0.0687134
0.0575543
0.0456594
0.0332985
0.0208398
0.00873878
-0.00251693
-0.0124753
-0.020783
-0.0272272
-0.0317379
-0.0343497
-0.0351467
-0.0342044
-0.031603
-0.0274359
-0.0218134
-0.0148484
-0.00664331
0.00270581
0.0130768
0.024288
0.0360626
0.0476915
0.116161
0.110937
0.104556
0.0976097
0.0898755
0.0810495
0.0711032
0.0601852
0.048494
0.0362866
0.0239236
0.0118611
0.000596504
-0.00939927
-0.0177466
-0.0242024
-0.0286669
-0.0311514
-0.031724
-0.030458
-0.0274465
-0.0227999
-0.0166471
-0.00912288
-0.000362437
0.00949183
0.0202511
0.0316678
0.0433842
0.0547223
0.117065
0.112021
0.105827
0.0991072
0.0916193
0.0830406
0.0733292
0.0626237
0.0511103
0.0390342
0.0267488
0.0147109
0.003428
-0.0066098
-0.0149968
-0.0214603
-0.0258731
-0.0282252
-0.0285695
-0.0269805
-0.0235649
-0.0184531
-0.0117977
-0.00376211
0.00547905
0.0157334
0.0267481
0.0382257
0.0497517
0.0607109
0.117997
0.113112
0.10708
0.100558
0.0932874
0.0849269
0.0754224
0.0649027
0.0535419
0.0415744
0.0293471
0.0173176
0.00600429
-0.00408341
-0.0125132
-0.0189837
-0.0233423
-0.0255581
-0.0256717
-0.0237608
-0.0199473
-0.0143854
-0.00725594
0.00124332
0.010894
0.0214544
0.0326147
0.0440461
0.0552988
0.0658393
0.11896
0.114217
0.108325
0.101978
0.0948999
0.0867319
0.0774092
0.0670504
0.055818
0.0439363
0.0317463
0.0197073
0.00834854
-0.00179986
-0.0102786
-0.0167577
-0.0210617
-0.0231391
-0.0230207
-0.0207889
-0.0165834
-0.0105861
-0.00301067
0.00590658
0.0159019
0.0266874
0.0379052
0.0492167
0.0601507
0.0702687
0.119951
0.11534
0.109573
0.10338
0.0964732
0.0884752
0.0793123
0.0690914
0.0579639
0.0461453
0.0339709
0.0219023
0.010481
0.000258302
-0.00827805
-0.0147696
-0.0190192
-0.020959
-0.0206076
-0.0180553
-0.0134629
-0.00704398
0.000950978
0.0102443
0.020527
0.0314703
0.0426791
0.0538275
0.0644243
0.0741296
0.12097
0.116482
0.11083
0.104777
0.0980206
0.0901732
0.0811507
0.0710471
0.0600023
0.0482239
0.0360424
0.0239228
0.0124195
0.00210638
-0.00649857
-0.0130081
-0.0172031
-0.0190099
-0.0184247
-0.0155516
-0.0105766
-0.00374841
0.0046421
0.0142743
0.0247962
0.0358439
0.046997
0.0579646
0.0682176
0.0775032
0.12201
0.117643
0.112101
0.106175
0.099553
0.0918396
0.0829413
0.0729361
0.0619529
0.0501927
0.0379806
0.0257865
0.014179
0.00375653
-0.00493019
-0.0114646
-0.0156155
-0.0172847
-0.0164641
-0.0132683
-0.00791249
-0.000685149
0.00808
0.0180186
0.0287385
0.0398489
0.0509252
0.0617185
0.0715969
0.0805039
0.123058
0.118819
0.113389
0.10758
0.101078
0.093486
0.0846987
0.0747746
0.063833
0.0520699
0.0398041
0.0275119
0.015777
0.00522387
-0.00355962
-0.0101272
-0.0142413
-0.0157735
-0.0147146
-0.0111936
-0.00545933
0.00215874
0.0112826
0.0215034
0.0323897
0.0435254
0.0545043
0.0651349
0.0746582
0.0833015
0.124103
0.120003
0.114698
0.109
0.102603
0.0951224
0.0864362
0.0765782
0.0656574
0.0538676
0.0415205
0.0291021
0.0172124
0.00650369
-0.00239437
-0.00900449
-0.0130994
-0.0145038
-0.0131993
-0.00934201
-0.00322302
0.00478314
0.0142545
0.0247419
0.0357847
0.0469484
0.0578169
0.0681805
0.077371
0.0859528
0.125145
0.121189
0.116026
0.110436
0.104128
0.0967549
0.0881654
0.0783708
0.0674634
0.0556343
0.0431878
0.0306197
0.0185493
0.00766084
-0.00136428
-0.00799242
-0.0120653
-0.0133612
-0.0118224
-0.00763682
-0.00114074
0.00724085
0.0170347
0.0277477
0.0389001
0.0500903
0.0609744
0.0712974
0.0802064
0.0886173
0.126168
0.122367
0.117374
0.11191
0.105643
0.0983566
0.0898257
0.0800632
0.0691431
0.0572368
0.044666
0.0319155
0.0196262
0.00851234
-0.000694627
-0.00749574
-0.0114681
-0.0125767
-0.0107561
-0.00620456
0.000703707
0.00949581
0.0196478
0.0306053
0.0418305
0.0528885
0.0634022
0.0733128
0.0825481
0.0909464
0.127149
0.123519
0.118701
0.113417
0.107388
0.10021
0.091774
0.0820539
0.0711179
0.0591244
0.0464136
0.0334725
0.0209679
0.00964239
0.000327099
-0.00653304
-0.0107462
-0.0117907
-0.00973422
-0.00484761
0.0024463
0.0116336
0.0221643
0.0334731
0.0450294
0.0564343
0.0671606
0.076978
0.085556
0.0934761
0.128067
0.124668
0.119932
0.114518
0.108414
0.101319
0.0929817
0.0832769
0.0722691
0.0601464
0.0472461
0.0340823
0.0213444
0.0097841
0.000349458
-0.00649245
-0.0105287
-0.0113942
-0.00903423
-0.00378074
0.00386414
0.0133188
0.0239704
0.0352167
0.0465443
0.0576168
0.0681782
0.0780765
0.0872595
0.0951684
0.12896
0.126191
0.122015
0.116867
0.110944
0.104012
0.0958087
0.0861846
0.0751614
0.0628944
0.0497234
0.0361764
0.0229744
0.0109389
0.00102154
-0.00618218
-0.01032
-0.0110503
-0.0083326
-0.002529
0.00579985
0.0160184
0.0274109
0.0392947
0.0511614
0.0624719
0.0730271
0.0826979
0.0909971
0.0975106
0.0580413
0.0398319
0.0404709
0.0597654
0.0765518
0.0785968
0.077539
0.0773051
0.0776315
0.0784934
0.0801565
0.0825126
0.0853234
0.0884214
0.0916905
0.0950306
0.098354
0.101593
0.104697
0.10763
0.110382
0.112918
0.115316
0.117459
0.119611
0.121476
0.123505
0.125213
0.127603
0.126557
0.0639845
0.0378305
0.0427135
0.0632842
0.0818505
0.0845127
0.0813268
0.0792639
0.0782647
0.0778742
0.0785526
0.0802345
0.0825992
0.0854058
0.0885071
0.0917876
0.0951426
0.0984845
0.101748
0.104878
0.107849
0.110606
0.113182
0.115484
0.117628
0.119465
0.121248
0.122565
0.124221
0.124858
0.0689886
0.0442116
0.0485254
0.0674966
0.0888789
0.0928204
0.0870288
0.082401
0.0795842
0.0777373
0.0771672
0.077887
0.0795863
0.0819546
0.0847925
0.0879521
0.0913051
0.094743
0.0981823
0.101553
0.104809
0.107895
0.110798
0.113467
0.115919
0.118101
0.120113
0.121831
0.123555
0.125124
0.0640622
0.0490925
0.0532998
0.0777124
0.0996998
0.104016
0.0955284
0.0875983
0.0823313
0.0786165
0.0766192
0.0763019
0.0772809
0.0791648
0.0817136
0.084744
0.0880935
0.0916234
0.0952284
0.0988276
0.102362
0.105778
0.109042
0.11212
0.114996
0.11764
0.120068
0.122246
0.124196
0.12593
0.04804
0.0384102
0.0515247
0.0863668
0.111444
0.117588
0.106778
0.0948947
0.0869436
0.0806467
0.0764383
0.0746326
0.0747108
0.0759972
0.0781246
0.0808978
0.084151
0.0877129
0.0914432
0.0952391
0.0990254
0.102743
0.106346
0.109797
0.113066
0.116127
0.118961
0.121555
0.123885
0.125983
0.0334834
0.019709
0.0354306
0.0800328
0.118351
0.129549
0.11951
0.10336
0.0918515
0.0839203
0.0771177
0.0727583
0.0712244
0.0717394
0.073382
0.0758005
0.0788491
0.0823667
0.0861861
0.0901687
0.0942142
0.0982493
0.102218
0.106075
0.109783
0.113314
0.116641
0.119752
0.122613
0.125255
0.0304912
0.0157828
0.0214504
0.0605392
0.108274
0.130275
0.128396
0.112446
0.0959195
0.0849762
0.077557
0.0718851
0.0675831
0.0664932
0.0673114
0.0693223
0.0721226
0.0755335
0.0794002
0.0835612
0.0878781
0.0922515
0.0966144
0.100915
0.10511
0.109167
0.113053
0.116751
0.120217
0.123474
0.0366382
0.0243019
0.0201356
0.0431989
0.0811606
0.110974
0.123104
0.116794
0.0999606
0.0840507
0.0739376
0.0675063
0.0630744
0.0600784
0.0592872
0.0606539
0.0632524
0.0666038
0.0705074
0.07485
0.0794688
0.0842302
0.0890393
0.0938268
0.0985455
0.103161
0.107639
0.111964
0.116086
0.120026
0.042642
0.0357609
0.0259528
0.0341327
0.0582005
0.0815417
0.0959047
0.100747
0.0951643
0.0815979
0.0676657
0.0578538
0.0524022
0.0497305
0.0489324
0.0489043
0.0510936
0.054546
0.0586724
0.0632867
0.0681894
0.0733443
0.0786447
0.0839841
0.0892965
0.0945375
0.09967
0.104676
0.109505
0.114171
0.0454619
0.0444221
0.0337947
0.0308698
0.0409019
0.0551127
0.0666531
0.0727451
0.0732703
0.0679721
0.057632
0.0460681
0.0369236
0.0323388
0.031153
0.0319998
0.0339352
0.036669
0.0416117
0.0473298
0.0530037
0.0588085
0.0646841
0.0706233
0.0765839
0.0825051
0.0883435
0.0940845
0.099674
0.105125
0.041965
0.0472568
0.0359433
0.0277594
0.0285201
0.0336549
0.0393547
0.0432854
0.0441331
0.0418075
0.0365138
0.0284961
0.0191124
0.0112754
0.00670979
0.00648917
0.00921527
0.0129547
0.0168853
0.0222199
0.0298143
0.037708
0.0450603
0.0521467
0.0591356
0.0660059
0.0727216
0.079298
0.0857015
0.0919617
0.0301165
0.0365458
0.0294319
0.0217036
0.017342
0.0155201
0.0149268
0.0142579
0.012543
0.00933863
0.00481891
-0.00062876
-0.00701821
-0.014034
-0.020373
-0.0242507
-0.0245401
-0.0210028
-0.0151817
-0.00887374
-0.00265114
0.00544869
0.0153351
0.0247678
0.0337578
0.0423614
0.0505991
0.0585108
0.0660678
0.0733388
0.0122417
0.0207798
0.017601
0.0117542
0.00519099
-0.00104452
-0.00684064
-0.0125757
-0.0186506
-0.0251847
-0.0320254
-0.0387853
-0.0449083
-0.050388
-0.0553134
-0.0594731
-0.0618821
-0.0616482
-0.0582171
-0.051467
-0.0427684
-0.0335776
-0.0246106
-0.0141911
-0.00240316
0.00865061
0.0191727
0.029187
0.0385479
0.0473781
-0.00376644
0.00433442
0.00331742
-0.00103779
-0.00819557
-0.0168434
-0.0263561
-0.0364693
-0.0471338
-0.0580896
-0.068927
-0.0791929
-0.0884068
-0.0959037
-0.101358
-0.104983
-0.107036
-0.107444
-0.105672
-0.101281