/*--------------------------------*- C++ -*----------------------------------*\
  =========                 |
  \\      /  F ield         | OpenFOAM: The Open Source CFD Toolbox
   \\    /   O peration     | Website:  https://openfoam.org
    \\  /    A nd           | Version:  11
     \\/     M anipulation  |
\*---------------------------------------------------------------------------*/
FoamFile
{
    format      ascii;
    class       volScalarField;
    location    "6";
    object      p;
}
// * * * * * * * * * * * * * * * * * * * * * * * * * * * * * * * * * * * * * //

dimensions      [0 2 -2 0 0 0 0];

internalField   nonuniform List<scalar> 
12600
(
0.097124
0.0969873
0.0969251
0.0969092
0.0968967
0.0968794
0.0968609
0.0968433
0.0968264
0.0968096
0.0967925
0.096775
0.0967568
0.096738
0.0967183
0.0966973
0.0966747
0.0966501
0.0966225
0.096592
0.0965575
0.0965168
0.0964682
0.0964099
0.0963378
0.0962462
0.0961268
0.0959643
0.0957379
0.0953539
0.0970464
0.0969781
0.0969272
0.0969079
0.0968943
0.0968778
0.0968599
0.0968424
0.0968256
0.0968089
0.096792
0.0967745
0.0967565
0.0967378
0.0967182
0.0966974
0.096675
0.0966506
0.0966235
0.0965934
0.0965595
0.0965198
0.0964729
0.0964159
0.0963455
0.0962558
0.096143
0.0959908
0.0958234
0.0956711
0.0970113
0.0969792
0.0969349
0.0969096
0.0968943
0.0968785
0.096861
0.0968436
0.0968268
0.0968101
0.0967932
0.0967758
0.0967579
0.0967393
0.09672
0.0966994
0.0966774
0.096654
0.0966273
0.0965979
0.0965644
0.096526
0.0964806
0.0964258
0.0963586
0.0962744
0.0961685
0.0960332
0.0958788
0.0956941
0.0969859
0.0969659
0.0969316
0.0969063
0.0968906
0.0968757
0.0968591
0.0968421
0.0968256
0.0968092
0.0967926
0.0967754
0.0967577
0.0967394
0.0967205
0.0967001
0.0966785
0.0966549
0.0966298
0.0966013
0.0965691
0.0965325
0.0964896
0.0964381
0.0963754
0.0962975
0.0962001
0.0960781
0.0959254
0.0957317
0.096967
0.0969541
0.0969289
0.0969061
0.0968902
0.0968756
0.0968595
0.096843
0.0968267
0.0968104
0.096794
0.0967771
0.0967597
0.0967417
0.0967232
0.0967027
0.0966815
0.0966588
0.0966343
0.0966071
0.0965766
0.096542
0.0965019
0.0964543
0.0963969
0.0963265
0.0962388
0.0961292
0.0959846
0.0958025
0.0969527
0.0969439
0.0969248
0.0969045
0.0968884
0.0968739
0.0968585
0.0968424
0.0968263
0.0968102
0.0967939
0.0967772
0.0967601
0.0967422
0.0967233
0.0967043
0.0966838
0.0966619
0.0966385
0.0966127
0.096584
0.0965519
0.096515
0.096472
0.0964208
0.0963589
0.096282
0.0961865
0.0960568
0.0958938
0.0969416
0.0969351
0.0969202
0.0969026
0.0968869
0.0968727
0.096858
0.0968425
0.0968267
0.096811
0.096795
0.0967786
0.0967617
0.0967443
0.096726
0.0967073
0.0966875
0.0966665
0.0966441
0.0966198
0.0965932
0.0965637
0.0965306
0.0964926
0.0964482
0.0963955
0.0963308
0.0962514
0.0961414
0.0960049
0.0969328
0.0969277
0.0969157
0.0969004
0.0968856
0.0968718
0.0968575
0.0968424
0.096827
0.0968114
0.0967956
0.0967795
0.0967629
0.0967458
0.096728
0.0967098
0.0966908
0.0966707
0.0966495
0.0966269
0.0966025
0.0965759
0.0965467
0.0965141
0.096477
0.0964343
0.096383
0.0963215
0.0962354
0.0961311
0.0969259
0.0969217
0.0969118
0.0968983
0.0968844
0.0968709
0.096857
0.0968424
0.0968273
0.096812
0.0967965
0.0967807
0.0967645
0.0967478
0.0967306
0.096713
0.0966947
0.0966757
0.0966558
0.0966348
0.0966127
0.0965892
0.0965641
0.0965371
0.0965077
0.0964754
0.0964385
0.0963965
0.0963372
0.09627
0.0969204
0.0969169
0.0969083
0.0968964
0.0968833
0.0968702
0.0968567
0.0968425
0.0968277
0.0968127
0.0967975
0.0967819
0.096766
0.0967498
0.0967331
0.0967161
0.0966986
0.0966806
0.096662
0.0966428
0.096623
0.0966026
0.0965816
0.0965603
0.0965387
0.0965171
0.0964949
0.0964735
0.0964432
0.0964164
0.0969161
0.0969131
0.0969055
0.0968947
0.0968824
0.0968697
0.0968565
0.0968426
0.0968282
0.0968135
0.0967985
0.0967833
0.0967677
0.0967519
0.0967358
0.0967194
0.0967028
0.0966858
0.0966685
0.0966511
0.0966335
0.0966162
0.0965994
0.0965836
0.0965697
0.0965587
0.0965514
0.0965508
0.0965508
0.0965664
0.096913
0.0969102
0.0969034
0.0968934
0.0968817
0.0968694
0.0968565
0.0968429
0.0968288
0.0968143
0.0967996
0.0967847
0.0967695
0.0967541
0.0967385
0.0967228
0.0967069
0.096691
0.096675
0.0966592
0.0966439
0.0966295
0.0966166
0.0966062
0.0965996
0.0965989
0.096606
0.0966259
0.0966561
0.0967144
0.0969108
0.0969082
0.0969019
0.0968925
0.0968813
0.0968693
0.0968566
0.0968433
0.0968294
0.0968152
0.0968008
0.0967861
0.0967713
0.0967564
0.0967413
0.0967262
0.0967111
0.0966961
0.0966814
0.0966673
0.0966541
0.0966424
0.0966332
0.0966278
0.096628
0.0966367
0.0966573
0.0966963
0.0967556
0.0968551
0.0969095
0.0969071
0.096901
0.096892
0.0968812
0.0968694
0.0968569
0.0968438
0.0968302
0.0968162
0.096802
0.0967876
0.0967732
0.0967586
0.0967441
0.0967296
0.0967152
0.0967012
0.0966877
0.0966751
0.0966638
0.0966546
0.0966487
0.0966477
0.0966539
0.0966709
0.0967034
0.0967596
0.0968452
0.0969827
0.096909
0.0969067
0.0969008
0.096892
0.0968814
0.0968698
0.0968574
0.0968444
0.096831
0.0968172
0.0968033
0.0967892
0.096775
0.0967609
0.0967468
0.0967329
0.0967193
0.0967061
0.0966937
0.0966824
0.0966729
0.0966659
0.0966628
0.0966655
0.0966767
0.0967007
0.0967431
0.0968134
0.0969216
0.0970915
0.0969094
0.096907
0.0969012
0.0968924
0.0968819
0.0968703
0.0968581
0.0968452
0.0968319
0.0968183
0.0968045
0.0967907
0.0967769
0.0967631
0.0967495
0.0967362
0.0967232
0.0967109
0.0966994
0.0966893
0.0966812
0.0966761
0.0966753
0.0966809
0.096696
0.0967252
0.096775
0.096856
0.0969813
0.0971761
0.0969106
0.0969082
0.0969022
0.0968933
0.0968827
0.0968711
0.0968589
0.0968461
0.0968329
0.0968194
0.0968059
0.0967923
0.0967787
0.0967653
0.0967521
0.0967393
0.0967269
0.0967153
0.0967047
0.0966957
0.0966888
0.0966851
0.096686
0.0966937
0.0967114
0.0967439
0.0967984
0.0968857
0.0970218
0.0972321
0.0969126
0.0969101
0.0969038
0.0968946
0.0968837
0.0968721
0.0968598
0.0968471
0.0968339
0.0968206
0.0968072
0.0967938
0.0967805
0.0967675
0.0967547
0.0967423
0.0967305
0.0967195
0.0967096
0.0967014
0.0966955
0.0966928
0.0966948
0.0967037
0.0967227
0.0967566
0.0968125
0.0969017
0.0970414
0.0972563
0.0969154
0.0969128
0.0969061
0.0968964
0.0968851
0.0968732
0.0968609
0.0968481
0.096835
0.0968217
0.0968085
0.0967953
0.0967823
0.0967695
0.0967571
0.0967451
0.0967338
0.0967234
0.0967141
0.0967065
0.0967012
0.0966992
0.0967017
0.0967109
0.0967299
0.096763
0.0968174
0.0969036
0.0970392
0.097247
0.0969193
0.0969163
0.096909
0.0968985
0.0968867
0.0968746
0.0968622
0.0968493
0.0968361
0.0968229
0.0968098
0.0967968
0.096784
0.0967715
0.0967594
0.0967478
0.0967369
0.0967269
0.0967181
0.096711
0.0967061
0.0967043
0.0967068
0.0967155
0.0967331
0.0967636
0.0968135
0.096892
0.097016
0.0972047
0.0969242
0.0969208
0.0969125
0.0969009
0.0968884
0.0968761
0.0968635
0.0968505
0.0968372
0.096824
0.096811
0.0967982
0.0967856
0.0967733
0.0967615
0.0967502
0.0967397
0.0967301
0.0967216
0.0967148
0.0967101
0.0967082
0.0967101
0.0967175
0.0967326
0.0967587
0.0968014
0.096868
0.0969733
0.0971321
0.0969303
0.0969263
0.0969166
0.0969036
0.0968904
0.0968777
0.0968649
0.0968517
0.0968383
0.0968251
0.0968122
0.0967995
0.0967871
0.0967751
0.0967635
0.0967525
0.0967423
0.096733
0.0967248
0.0967182
0.0967134
0.0967111
0.0967121
0.0967175
0.0967291
0.0967495
0.0967826
0.0968337
0.0969146
0.097034
0.0969378
0.0969329
0.0969212
0.0969064
0.0968923
0.0968794
0.0968664
0.0968529
0.0968394
0.0968262
0.0968133
0.0968007
0.0967885
0.0967766
0.0967652
0.0967545
0.0967445
0.0967354
0.0967274
0.0967208
0.0967158
0.0967128
0.0967125
0.0967156
0.096723
0.0967364
0.0967583
0.0967915
0.0968435
0.0969168
0.0969471
0.0969407
0.0969262
0.0969091
0.0968943
0.0968812
0.0968679
0.096854
0.0968404
0.0968273
0.0968145
0.096802
0.0967899
0.0967782
0.0967671
0.0967566
0.0967468
0.0967379
0.09673
0.0967233
0.096718
0.0967143
0.0967124
0.0967127
0.0967155
0.0967213
0.0967309
0.0967447
0.0967656
0.0967894
0.0969587
0.09695
0.0969313
0.0969117
0.0968964
0.096883
0.0968692
0.0968549
0.0968411
0.0968279
0.0968152
0.0968028
0.0967907
0.0967792
0.0967682
0.0967579
0.0967483
0.0967395
0.0967317
0.0967249
0.0967191
0.0967146
0.0967111
0.0967086
0.0967066
0.0967045
0.0967016
0.0966956
0.0966855
0.09666
0.0969734
0.0969607
0.0969359
0.0969138
0.0968986
0.0968853
0.096871
0.0968564
0.0968425
0.0968293
0.0968166
0.0968043
0.0967923
0.0967809
0.0967701
0.0967599
0.0967504
0.0967417
0.0967339
0.0967269
0.0967208
0.0967154
0.0967103
0.096705
0.0966982
0.0966885
0.0966734
0.0966485
0.0966096
0.0965391
0.0969927
0.096973
0.0969391
0.0969144
0.0968996
0.096886
0.0968711
0.0968562
0.0968423
0.0968292
0.0968165
0.0968043
0.0967925
0.0967812
0.0967705
0.0967605
0.0967511
0.0967426
0.0967348
0.0967278
0.0967212
0.0967151
0.0967087
0.0967008
0.0966898
0.096673
0.0966467
0.0966045
0.096542
0.0964334
0.0970185
0.0969865
0.0969428
0.096918
0.0969036
0.0968891
0.0968733
0.0968581
0.0968441
0.0968309
0.0968182
0.0968059
0.0967941
0.0967828
0.0967722
0.0967623
0.096753
0.0967445
0.0967368
0.0967296
0.0967226
0.0967158
0.0967083
0.0966983
0.0966837
0.0966608
0.0966244
0.0965664
0.0964865
0.0963563
0.0970537
0.0969856
0.0969353
0.0969167
0.096904
0.0968887
0.0968724
0.0968573
0.0968434
0.0968304
0.0968178
0.0968056
0.0967939
0.0967828
0.0967723
0.0967625
0.0967534
0.096745
0.0967372
0.0967301
0.0967233
0.0967162
0.0967078
0.0966963
0.0966791
0.0966516
0.0966067
0.0965338
0.0964313
0.0963127
0.0971315
0.096995
0.0969334
0.0969181
0.0969065
0.0968904
0.0968736
0.0968584
0.0968445
0.0968313
0.0968187
0.0968065
0.0967948
0.0967837
0.0967733
0.0967634
0.0967543
0.096746
0.0967383
0.0967311
0.0967247
0.0967177
0.0967086
0.0966964
0.0966779
0.096648
0.0965977
0.0965134
0.0963566
0.0960755
0.0956205
0.0949917
0.0947249
0.0947929
0.0948511
0.0948139
0.0947331
0.0946596
0.0946018
0.0945578
0.0945296
0.0945205
0.0945332
0.0945695
0.0946321
0.0947242
0.0948498
0.0950133
0.0952192
0.0954719
0.0957752
0.0961265
0.0965341
0.0969011
0.0974464
0.0969991
0.0983454
0.0913592
0.0967898
0.0484475
0.0960503
0.095477
0.0951241
0.0951054
0.0950934
0.095024
0.0949403
0.0948779
0.0948439
0.0948281
0.094829
0.0948504
0.0948954
0.0949666
0.0950675
0.0952024
0.0953768
0.0955964
0.0958681
0.0961993
0.0965976
0.097069
0.0976187
0.0982136
0.0989273
0.0991432
0.100386
0.0958389
0.100149
0.0605558
0.0956039
0.0953166
0.0951461
0.0951607
0.0951723
0.0951259
0.0950783
0.0950552
0.0950536
0.0950663
0.0950955
0.0951469
0.0952245
0.0953316
0.0954724
0.0956524
0.0958782
0.0961575
0.0964991
0.096914
0.097414
0.0980123
0.098721
0.0995382
0.100493
0.101274
0.102679
0.100246
0.103931
0.0727674
0.0955458
0.095444
0.0953785
0.0953637
0.0953498
0.0953174
0.0952935
0.0952934
0.095314
0.0953517
0.0954096
0.0954927
0.0956051
0.0957505
0.095934
0.0961624
0.0964435
0.0967869
0.0972043
0.0977097
0.09832
0.0990554
0.0999374
0.100987
0.102226
0.103532
0.105281
0.104713
0.108214
0.0848834
0.0955911
0.0955481
0.095523
0.0955091
0.0955021
0.0954993
0.0955089
0.0955375
0.0955851
0.0956517
0.0957408
0.0958573
0.0960059
0.0961913
0.0964199
0.0966994
0.0970393
0.0974512
0.0979492
0.0985514
0.0992796
0.100161
0.101229
0.102522
0.104078
0.105887
0.108122
0.109202
0.11295
0.0968154
0.0956881
0.0956834
0.0956947
0.0956988
0.0957067
0.0957263
0.0957609
0.0958133
0.0958855
0.0959797
0.0960998
0.0962503
0.0964363
0.0966636
0.0969394
0.0972728
0.0976747
0.0981589
0.0987425
0.0994473
0.1003
0.101337
0.102601
0.10415
0.106044
0.108349
0.111163
0.113716
0.118025
0.108434
0.0958201
0.0958426
0.0958795
0.0959004
0.0959242
0.0959651
0.0960246
0.096103
0.0962024
0.0963262
0.0964785
0.0966643
0.0968893
0.0971601
0.0974852
0.0978748
0.0983416
0.0989017
0.0995752
0.100388
0.101372
0.102571
0.104041
0.105855
0.1081
0.1109
0.114349
0.118224
0.123332
0.119575
0.0959756
0.0960206
0.0960794
0.0961189
0.0961616
0.0962244
0.0963083
0.0964122
0.0965384
0.0966913
0.0968759
0.0970974
0.0973621
0.0976776
0.0980534
0.0985011
0.0990353
0.099674
0.100441
0.101365
0.102485
0.103852
0.105533
0.107619
0.110223
0.113515
0.117624
0.122685
0.128771
0.130054
0.0961498
0.0962142
0.0962924
0.0963503
0.096412
0.096496
0.0966033
0.0967321
0.0968853
0.0970678
0.097285
0.0975427
0.0978478
0.0982088
0.0986362
0.0991432
0.0997461
0.100465
0.101327
0.102365
0.103624
0.105162
0.107058
0.109418
0.112381
0.116156
0.120925
0.127046
0.134218
0.139708
0.0963365
0.0964182
0.0965138
0.0965896
0.0966704
0.0967751
0.0969051
0.0970585
0.0972383
0.0974499
0.0976994
0.097993
0.0983383
0.0987447
0.0992239
0.0997904
0.100462
0.101262
0.10222
0.103373
0.104771
0.10648
0.108589
0.11122
0.114535
0.118775
0.124181
0.131241
0.139538
0.148389
0.0965307
0.0966276
0.0967383
0.0968311
0.0969304
0.097055
0.0972065
0.0973835
0.0975889
0.0978288
0.0981096
0.0984382
0.0988228
0.0992738
0.0998039
0.100429
0.101169
0.102048
0.1031
0.104366
0.1059
0.107776
0.110093
0.112986
0.116638
0.121316
0.127315
0.13519
0.144571
0.155902
0.0967256
0.0968353
0.0969588
0.0970675
0.0971842
0.0973275
0.0974991
0.0976981
0.0979277
0.0981943
0.0985048
0.0988666
0.0992887
0.0997822
0.100361
0.101042
0.101847
0.102803
0.103945
0.105319
0.106984
0.109019
0.111532
0.114671
0.118636
0.123715
0.130247
0.138807
0.14914
0.161981
0.0969139
0.0970342
0.0971679
0.0972906
0.0974234
0.0975834
0.0977731
0.0979919
0.0982435
0.0985345
0.0988722
0.0992645
0.099721
0.100254
0.100878
0.101611
0.102476
0.103503
0.104729
0.106203
0.107988
0.11017
0.112863
0.116225
0.12047
0.125901
0.132891
0.142005
0.153093
0.166576
0.0970875
0.0972157
0.097357
0.0974914
0.0976382
0.0978127
0.0980178
0.0982536
0.0985242
0.0988363
0.0991976
0.0996166
0.100103
0.100671
0.101334
0.102113
0.103033
0.104123
0.105424
0.106986
0.108878
0.111189
0.11404
0.117594
0.122079
0.127804
0.135164
0.144693
0.156326
0.170087
0.0972382
0.0973715
0.0975173
0.0976609
0.0978189
0.0980049
0.098222
0.0984713
0.098757
0.099086
0.0994664
0.0999069
0.100418
0.101014
0.10171
0.102528
0.103492
0.104635
0.105998
0.107635
0.109616
0.112034
0.115014
0.118725
0.1234
0.129351
0.136985
0.146785
0.158763
0.172341
0.0973578
0.0974932
0.0976405
0.09779
0.0979559
0.0981497
0.0983749
0.0986332
0.0989293
0.0992701
0.0996638
0.10012
0.100649
0.101265
0.101986
0.102832
0.10383
0.105012
0.106423
0.108116
0.110165
0.112663
0.115739
0.119565
0.124374
0.130477
0.138279
0.148197
0.160292
0.172991
0.0974392
0.0975735
0.0977191
0.0978708
0.0980406
0.098238
0.0984665
0.0987288
0.0990297
0.0993762
0.0997767
0.100241
0.10078
0.101408
0.102143
0.103005
0.104024
0.105231
0.106672
0.108401
0.110492
0.113041
0.116176
0.120068
0.12495
0.131122
0.138979
0.148851
0.160768
0.172179
0.0974767
0.0976067
0.0977474
0.0978972
0.0980663
0.0982624
0.0984891
0.0987496
0.0990491
0.0993945
0.0997943
0.100258
0.100798
0.101427
0.102165
0.103032
0.104056
0.105271
0.106722
0.108464
0.11057
0.113136
0.116289
0.120197
0.125086
0.131241
0.139032
0.148677
0.160107
0.169987
0.0974671
0.0975896
0.0977221
0.0978657
0.098029
0.0982185
0.0984377
0.0986903
0.0989815
0.0993184
0.0997092
0.100164
0.100694
0.101314
0.102042
0.102899
0.103913
0.105118
0.106558
0.108288
0.11038
0.112929
0.116057
0.119927
0.124756
0.130802
0.138404
0.147635
0.158394
0.166314
0.0974103
0.097522
0.0976431
0.097776
0.0979283
0.0981055
0.0983113
0.0985494
0.0988252
0.0991457
0.099519
0.0999549
0.100465
0.101064
0.101769
0.102601
0.103589
0.104765
0.106172
0.107865
0.109914
0.112409
0.115469
0.119248
0.123948
0.129798
0.137093
0.145735
0.155755
0.160987
0.097309
0.0974065
0.097513
0.0976306
0.0977666
0.097926
0.0981124
0.0983294
0.0985826
0.0988788
0.0992259
0.0996336
0.100113
0.100679
0.101348
0.102142
0.103086
0.104214
0.105568
0.107198
0.109174
0.11158
0.114531
0.118167
0.122674
0.128242
0.135127
0.143014
0.152244
0.154228
0.0971704
0.0972507
0.097339
0.097437
0.0975514
0.0976875
0.0978485
0.098038
0.0982614
0.0985254
0.0988376
0.0992076
0.0996464
0.100168
0.100788
0.101529
0.102414
0.103476
0.104755
0.106299
0.108174
0.110459
0.11326
0.116704
0.120957
0.126161
0.132546
0.139519
0.147921
0.146284
0.0970031
0.097063
0.09713
0.097204
0.0972921
0.0973997
0.0975299
0.0976861
0.0978731
0.0980976
0.0983671
0.0986905
0.0990786
0.0995447
0.100105
0.100778
0.101589
0.102568
0.103752
0.105188
0.106936
0.109069
0.111683
0.11489
0.118833
0.123601
0.129412
0.135323
0.142858
0.136925
0.0968208
0.0968574
0.0968992
0.0969449
0.0970021
0.0970763
0.0971703
0.0972869
0.0974311
0.0976092
0.0978284
0.0980972
0.0984257
0.0988266
0.099315
0.0999096
0.100633
0.101514
0.102586
0.103894
0.105491
0.107445
0.10984
0.11277
0.116357
0.120627
0.125807
0.13051
0.137168
0.126149
0.0966364
0.0966468
0.096659
0.0966727
0.0966966
0.0967351
0.0967893
0.0968616
0.0969573
0.0970825
0.0972442
0.0974505
0.097711
0.0980375
0.0984444
0.098949
0.0995727
0.100341
0.101287
0.10245
0.103877
0.10563
0.107779
0.1104
0.113594
0.117314
0.121822
0.125154
0.130994
0.114155
0.0964707
0.0964514
0.0964249
0.0963988
0.0963845
0.0963833
0.0963941
0.0964192
0.0964634
0.0965321
0.0966317
0.0967699
0.0969561
0.0972012
0.0975185
0.0979241
0.0984379
0.0990836
0.0998902
0.100893
0.102135
0.103667
0.105549
0.107836
0.110609
0.113735
0.117547
0.119364
0.124449
0.10113
0.0963433
0.0962913
0.0962195
0.0961556
0.0961062
0.0960618
0.096021
0.0959906
0.0959763
0.095982
0.0960133
0.0960774
0.0961831
0.0963403
0.0965613
0.0968612
0.0972577
0.0977725
0.0984313
0.0992651
0.100311
0.10161
0.103211
0.105146
0.107478
0.109972
0.113088
0.113187
0.117652
0.0873173
0.0963
0.0961546
0.0959909
0.0958892
0.0958226
0.0957511
0.0956681
0.0955862
0.095514
0.0954543
0.0954136
0.0953996
0.0954202
0.0954837
0.0956016
0.0957879
0.0960588
0.0964336
0.0969352
0.09759
0.0984288
0.099484
0.100793
0.102362
0.104244
0.106071
0.108529
0.106686
0.110777
0.0729158
0.0965756
0.0962492
0.0959074
0.0957172
0.0955998
0.0954793
0.0953494
0.095217
0.0950823
0.0949544
0.0948377
0.0947431
0.0946777
0.0946472
0.094662
0.0947356
0.0948825
0.0951192
0.0954652
0.0959426
0.0965758
0.0973878
0.0984044
0.0996053
0.10104
0.102167
0.104033
0.100014
0.103964
0.0581297
0.0964255
0.0958947
0.0955984
0.0954995
0.0954286
0.0952945
0.0951146
0.0949191
0.0947199
0.0945224
0.0943232
0.0941419
0.0939821
0.0938445
0.09374
0.0936833
0.0936875
0.0937673
0.0939394
0.094222
0.0946338
0.0951878
0.0959022
0.0967209
0.0977234
0.0980859
0.0995284
0.0930036
0.0971391
0.0431789
0.0297517
0.0156572
-0.000254121
-0.0169458
-0.0337041
-0.0502841
-0.0664468
-0.0818577
-0.0960902
-0.108609
-0.118832
-0.126186
-0.130134
-0.130739
-0.128697
-0.125265
-0.121892
-0.119156
-0.117044
-0.115854
-0.115472
-0.115081
-0.114226
-0.112986
-0.111362
-0.109218
-0.106799
-0.104857
-0.103116
-0.101864
0.0900189
0.0795485
0.0680084
0.0565061
0.0444859
0.031621
0.0181627
0.00436803
-0.00954305
-0.0232614
-0.0365031
-0.0491513
-0.0601833
-0.0689771
-0.076353
-0.0823805
-0.0877029
-0.0929593
-0.0980458
-0.102803
-0.10698
-0.110089
-0.111415
-0.10999
-0.10503
-0.097681
-0.0911469
-0.0878784
-0.088063
-0.089185
0.087092
0.0799641
0.0718347
0.0626584
0.0522436
0.0407041
0.0281391
0.0148915
0.00169757
-0.0110336
-0.0232836
-0.0347334
-0.0448472
-0.0533005
-0.0602726
-0.0659107
-0.0707088
-0.0747176
-0.0780444
-0.081078
-0.0831084
-0.0832608
-0.0814885
-0.0783926
-0.0750696
-0.0730678
-0.073956
-0.0774952
-0.0826186
-0.0868495
0.0958048
0.090718
0.0842809
0.0769461
0.0686542
0.0591972
0.0485818
0.0370451
0.0248668
0.0122801
-0.000350878
-0.0124677
-0.0235114
-0.0330632
-0.0409701
-0.0473096
-0.0523427
-0.0561599
-0.0587977
-0.0603048
-0.0604215
-0.0590681
-0.0567733
-0.0543546
-0.0524526
-0.051252
-0.0506736
-0.0501242
-0.0488345
-0.0471769
0.0949773
0.091244
0.0866609
0.0812656
0.0748273
0.0672248
0.0584263
0.048468
0.0375007
0.0258229
0.0138459
0.00206669
-0.00897019
-0.018757
-0.0269642
-0.033504
-0.0384519
-0.0418854
-0.0438478
-0.044404
-0.0436123
-0.0417083
-0.0391257
-0.0362603
-0.0332237
-0.0298751
-0.0259565
-0.0212923
-0.0156897
-0.00992347
0.0953203
0.0925366
0.0889758
0.0845359
0.0791416
0.0726632
0.0650082
0.0561609
0.0462106
0.0353866
0.0240539
0.0126928
0.0018668
-0.00786262
-0.0160682
-0.0225391
-0.0272502
-0.0302598
-0.0316287
-0.0314618
-0.0299357
-0.0273034
-0.0238506
-0.0197661
-0.0150679
-0.00968565
-0.00357124
0.00317247
0.0104604
0.0174974
0.0947116
0.0925021
0.0896609
0.0860947
0.0816564
0.0762115
0.0696418
0.0618835
0.0529617
0.04303
0.0323988
0.0215318
0.0110076
0.00143181
-0.00668808
-0.0130411
-0.0175192
-0.0201427
-0.0209895
-0.0201857
-0.0179436
-0.0145094
-0.0101119
-0.00490338
0.00104087
0.00764133
0.0147253
0.0219815
0.0291233
0.0351815
0.0942109
0.0924194
0.0901
0.0871428
0.0833679
0.0786764
0.0729351
0.0660502
0.0579985
0.0488738
0.0389315
0.0286008
0.0184539
0.00912342
0.0011784
-0.00498979
-0.00920233
-0.0114461
-0.0117894
-0.0103846
-0.0074623
-0.00327501
0.0019481
0.00801679
0.0147522
0.0219181
0.029177
0.0361494
0.0424988
0.0474303
0.0937306
0.0922071
0.0902237
0.087671
0.0844548
0.0803751
0.0753076
0.0691468
0.0618367
0.0534275
0.0441269
0.0343271
0.0245864
0.015554
0.00784482
0.00191412
-0.00200338
-0.00386164
-0.0037194
-0.00175454
0.001782
0.00661715
0.0124873
0.0191316
0.0262679
0.0335475
0.0405866
0.0470704
0.0526995
0.0570134
0.093364
0.0920319
0.0902975
0.0880706
0.0852321
0.081622
0.0770957
0.0715322
0.064854
0.0570758
0.0483624
0.039069
0.0297353
0.0210186
0.0135692
0.00789384
0.00427214
0.00278472
0.00337507
0.00584287
0.00990996
0.0152687
0.0216036
0.0285824
0.0358504
0.0430153
0.0497471
0.055824
0.0610117
0.0651505
0.0931027
0.091901
0.0903375
0.0883481
0.0858089
0.0825656
0.0784738
0.0734039
0.0672621
0.0600346
0.0518499
0.0430283
0.0340881
0.0256886
0.0185064
0.0130908
0.0097596
0.00862557
0.00962732
0.0125418
0.0170567
0.0228211
0.0294657
0.0366043
0.0438487
0.0508217
0.0572798
0.0630555
0.0679883
0.0720819
0.0929448
0.0918346
0.0903913
0.0885778
0.0862747
0.0833193
0.0795751
0.0749107
0.0692214
0.0624704
0.0547556
0.0463659
0.0377974
0.0297065
0.0227898
0.0176316
0.0145824
0.0137801
0.0151553
0.0184593
0.0233421
0.0294074
0.0362394
0.0434198
0.0505595
0.0573307
0.0635535
0.0690662
0.0737491
0.0776554
0.0928786
0.091834
0.0904765
0.0887934
0.0866644
0.0839445
0.0804823
0.0761535
0.0708463
0.0645063
0.0572066
0.0492079
0.0409845
0.0331871
0.0265266
0.0216168
0.0188366
0.0183411
0.0200511
0.0236904
0.0288697
0.0351501
0.0420796
0.049227
0.0562216
0.062789
0.0687741
0.0739899
0.0783457
0.0818286
0.0928905
0.0918951
0.0906013
0.0890193
0.0870317
0.0844902
0.0812562
0.0772049
0.0722195
0.0662329
0.0592975
0.0516492
0.0437417
0.0362182
0.0298006
0.025126
0.0225964
0.0223839
0.0243931
0.0283187
0.033733
0.0401599
0.0471222
0.0541901
0.0610185
0.0673643
0.0730604
0.0779199
0.0818595
0.0846768
0.0929671
0.0920104
0.0907652
0.0892623
0.0873868
0.0849892
0.0819397
0.0781173
0.0734023
0.0677183
0.0611007
0.0537636
0.0461415
0.0388699
0.032679
0.0282238
0.0259245
0.0259718
0.0282485
0.0324171
0.0380147
0.0445337
0.0514824
0.0584391
0.0650804
0.0711719
0.0765275
0.0809805
0.0843922
0.0863946
0.0930961
0.0921718
0.0909659
0.0895268
0.087742
0.0854618
0.0825627
0.0789292
0.0744411
0.0690151
0.0626727
0.0556093
0.0482421
0.0411985
0.0352148
0.0309609
0.0288782
0.0291613
0.0316744
0.0360483
0.0417864
0.0483558
0.0552575
0.0620792
0.0685074
0.0743097
0.0792828
0.0832866
0.0860344
0.0872661
0.0932664
0.0923713
0.0911991
0.0898135
0.0881039
0.0859214
0.0831464
0.0796691
0.0753709
0.0701639
0.0640581
0.057233
0.0500902
0.0432497
0.0374526
0.0333831
0.0315004
0.0319968
0.0347195
0.039267
0.0451114
0.0516992
0.0585286
0.0651949
0.0713812
0.0768652
0.0814013
0.084843
0.0866591
0.0869431
0.0934677
0.0926009
0.0914599
0.0901212
0.0884758
0.086376
0.0837054
0.080358
0.0762187
0.0711966
0.0652923
0.0586721
0.0517239
0.045061
0.0394295
0.0355263
0.0338254
0.0345159
0.0374262
0.0421216
0.0480454
0.0546275
0.0613641
0.0678558
0.0737854
0.0789088
0.0829383
0.0856922
0.086485
0.0855616
0.0936908
0.0928531
0.0917425
0.0904471
0.0888592
0.0868299
0.0842493
0.0810117
0.0770058
0.0721388
0.0664043
0.0599573
0.0531743
0.0466631
0.0411754
0.0374202
0.0358846
0.0367526
0.0398322
0.0446548
0.050638
0.0571969
0.0638252
0.0701241
0.0757777
0.080496
0.083945
0.0858768
0.0854988
0.0832924
0.0939301
0.0931217
0.0920418
0.0907881
0.0892539
0.0872893
0.0847858
0.081642
0.0777483
0.0730107
0.0674174
0.0611141
0.0544674
0.0480818
0.0427152
0.0390897
0.0377041
0.0387353
0.041969
0.0469043
0.0529336
0.0594568
0.0659663
0.0720659
0.0774165
0.0816753
0.0844655
0.0854459
0.0838505
0.0802831
0.0941812
0.0934024
0.092353
0.0911405
0.089658
0.0877545
0.0853207
0.0822584
0.0784594
0.0738291
0.0683513
0.0621636
0.0556249
0.0493382
0.0440699
0.0405552
0.0393045
0.0404879
0.0438644
0.0489027
0.0549723
0.0614537
0.0678374
0.0737307
0.0787493
0.08249
0.084547
0.0844921
0.0817366
0.077019
0.0944377
0.09369
0.0926714
0.0914998
0.0900687
0.0882249
0.0858573
0.0828676
0.0791497
0.0746078
0.0692223
0.0631239
0.0566655
0.0504508
0.0452572
0.0418342
0.040704
0.0420306
0.0455444
0.0506814
0.056789
0.0632258
0.0694828
0.0751657
0.0798174
0.0829829
0.0842521
0.0831426
0.0793787
0.0738803
0.0946964
0.0939793
0.0929924
0.0918623
0.0904828
0.0886986
0.0863961
0.0834741
0.0798268
0.075358
0.0700444
0.0640103
0.0576046
0.0514345
0.0462922
0.0429428
0.0419205
0.0433845
0.0470342
0.0522705
0.0584194
0.0648092
0.0709404
0.0764053
0.0806504
0.0831947
0.0836481
0.0815148
0.0769433
0.0710411
0.0949551
0.0942698
0.0933145
0.0922255
0.0908979
0.0891741
0.0869371
0.0840807
0.0804966
0.0760888
0.07083
0.0648374
0.0584569
0.0523016
0.0471835
0.0438874
0.042962
0.0445609
0.0483483
0.0536904
0.0598918
0.0662474
0.0722631
0.0774958
0.0812843
0.0831751
0.0828059
0.0797053
0.0745478
0.0685851
0.0952077
0.0945592
0.0936364
0.0925869
0.0913107
0.0896489
0.087478
0.084689
0.0811644
0.0768068
0.0715875
0.0656162
0.0592367
0.0530696
0.0479539
0.0446901
0.0438487
0.0455816
0.0495094
0.0549663
0.061215
0.0674964
0.0734678
0.0784314
0.0817293
0.0829536
0.0817651
0.0777668
0.0722724
0.0665139
0.0954421
0.0948445
0.0939571
0.0929467
0.0917193
0.0901196
0.08802
0.0852999
0.0818369
0.0775232
0.0723282
0.0663541
0.0599467
0.0537337
0.0486001
0.0453615
0.0445948
0.0464674
0.0505456
0.0561253
0.0624633
0.0687778
0.0746345
0.0792703
0.0820404
0.082591
0.0805947
0.0757852
0.0699943
0.0645802
0.0956583
0.0951161
0.0942702
0.0933055
0.0921259
0.0905859
0.0885601
0.085902
0.0824984
0.0782271
0.0730513
0.0670581
0.0605958
0.0543012
0.0490371
0.0458216
0.0451487
0.0471764
0.0514392
0.0571605
0.0634943
0.0698542
0.0756507
0.0799443
0.0821855
0.0820746
0.0793094
0.0737094
0.0676227
0.0628712
0.095851
0.0953511
0.0945641
0.0936572
0.092531
0.0910574
0.0891244
0.0865949
0.0832488
0.079018
0.0738525
0.0678323
0.0613034
0.0549724
0.0497099
0.0462801
0.0456482
0.0478198
0.0522878
0.0582575
0.0648193
0.071175
0.0767918
0.0806399
0.0822936
0.0813965
0.0776406
0.0713894
0.0654303
0.0619563
0.0960565
0.0955643
0.0948278
0.0939474
0.0928444
0.0914018
0.0894773
0.0869591
0.0837125
0.0795384
0.0743324
0.0682286
0.0615734
0.0551272
0.0497658
0.0464716
0.0459298
0.0482552
0.052863
0.0588366
0.0652752
0.0718884
0.0775228
0.0809896
0.0822756
0.0814009
0.0762804
0.0689102
0.062902
0.0606566
0.0963202
0.095849
0.0952386
0.0944555
0.0934461
0.0921252
0.0903573
0.0879793
0.0848417
0.0807604
0.0756073
0.0694122
0.0625577
0.0558369
0.0501766
0.0466589
0.0461875
0.0487925
0.0538681
0.0603272
0.0671888
0.0737439
0.0788192
0.0817221
0.0818423
0.0792015
0.0730716
0.0658925
0.0615343
0.060637
0.0228652
0.0446341
0.0556448
0.0564554
0.0608921
0.0608234
0.061947
0.0644893
0.0673219
0.0701059
0.0725853
0.0747544
0.0765766
0.0781106
0.0793645
0.0803962
0.0812392
0.0819292
0.0824964
0.0829653
0.0833679
0.0837067
0.0840361
0.0843038
0.0846874
0.0849747
0.0855198
0.0859039
0.0869659
0.085915
0.0207773
0.0433498
0.0566054
0.0577254
0.060638
0.0601208
0.0604936
0.0628263
0.0656913
0.0685876
0.0712127
0.0735266
0.0755018
0.0771743
0.0785619
0.0797136
0.0806667
0.0814537
0.0821065
0.0826482
0.0831118
0.0835009
0.0838678
0.0841667
0.0844967
0.0847429
0.0851021
0.0852301
0.0856618
0.08525
0.0193736
0.040786
0.0570672
0.0604038
0.059638
0.0594946
0.0588752
0.0607418
0.0635937
0.0666231
0.0694403
0.0719466
0.07413
0.0759993
0.077572
0.0788909
0.0799946
0.0809136
0.081679
0.0823158
0.0828538
0.0833052
0.0837045
0.084044
0.0843605
0.0846117
0.0849013
0.0850982
0.0853931
0.0855671
0.0181449
0.0385101
0.0570489
0.0633357
0.0596605
0.0585714
0.0572165
0.0585843
0.0614932
0.0647969
0.0679004
0.0706499
0.0730656
0.0751458
0.0768996
0.078371
0.0796034
0.0806289
0.0814796
0.0821837
0.0827703
0.0832594
0.083678
0.0840393
0.084371
0.0846666
0.0849789
0.0852708
0.0856111
0.0859093
0.0160732
0.0359883
0.05649
0.0660139
0.0612254
0.0562184
0.0554089
0.0562373
0.0590792
0.0627513
0.0662325
0.0692631
0.0719299
0.0742416
0.0761911
0.0778243
0.0791922
0.0803304
0.081272
0.0820484
0.0826893
0.0832187
0.0836623
0.0840391
0.0843741
0.084676
0.0849703
0.0852542
0.0855505
0.0858449
0.0129729
0.0323366
0.0544482
0.068178
0.0633075
0.0542929
0.0529887
0.0532859
0.0559024
0.0600542
0.0640834
0.0674782
0.070443
0.0730369
0.0752314
0.0770697
0.0786122
0.0798987
0.0809638
0.0818409
0.0825608
0.0831497
0.0836331
0.0840323
0.08437
0.0846624
0.084929
0.0851825
0.0854341
0.0857245
0.00898453
0.0277957
0.0510126
0.0687687
0.0659236
0.0536784
0.0487576
0.0496709
0.0518484
0.056483
0.0613285
0.065246
0.0685849
0.0715255
0.0740253
0.0761187
0.0778777
0.0793491
0.0805695
0.0815749
0.0823979
0.0830663
0.0836064
0.0840419
0.0843958
0.0846887
0.0849405
0.0851716
0.0853873
0.085646
0.00394808
0.0220827
0.0461618
0.0667968
0.0680081
0.0536527
0.0441844
0.0448242
0.0468262
0.0518464
0.0578483
0.0625233
0.0663377
0.0696924
0.0725578
0.0749551
0.07697
0.0786602
0.0800662
0.0812273
0.0821784
0.0829492
0.0835668
0.0840564
0.0844417
0.0847454
0.0849885
0.0851946
0.0853687
0.0855775
-0.00230084
0.0150339
0.0394951
0.0626647
0.067982
0.0541431
0.0400749
0.0377925
0.0405305
0.0457824
0.0532851
0.0591095
0.0635812
0.0674408
0.0707422
0.0734991
0.0758145
0.077762
0.0793887
0.0807381
0.0818483
0.0827508
0.0834733
0.0840413
0.0844789
0.0848089
0.0850534
0.0852383
0.0853699
0.0855244
-0.00994261
0.00628566
0.0306505
0.0562093
0.0650907
0.0539607
0.036212
0.0296336
0.0325682
0.038176
0.0471416
0.054677
0.0601308
0.0646433