/*--------------------------------*- C++ -*----------------------------------*\
  =========                 |
  \\      /  F ield         | OpenFOAM: The Open Source CFD Toolbox
   \\    /   O peration     | Website:  https://openfoam.org
    \\  /    A nd           | Version:  11
     \\/     M anipulation  |
\*---------------------------------------------------------------------------*/
FoamFile
{
    format      ascii;
    class       surfaceScalarField;
    location    "6";
    object      phi;
}
// * * * * * * * * * * * * * * * * * * * * * * * * * * * * * * * * * * * * * //

dimensions      [0 3 -1 0 0 0 0];

internalField   nonuniform List<scalar> 
24840
(
1.57973e-05
1.37146e-08
1.57785e-05
1.87175e-08
1.57611e-05
1.74825e-08
1.57437e-05
1.73662e-08
1.5726e-05
1.76442e-08
1.57083e-05
1.77072e-08
1.56907e-05
1.76444e-08
1.56731e-05
1.75474e-08
1.56557e-05
1.74191e-08
1.56385e-05
1.72474e-08
1.56215e-05
1.70242e-08
1.56047e-05
1.67414e-08
1.55883e-05
1.6382e-08
1.55724e-05
1.59233e-08
1.55571e-05
1.53447e-08
1.55424e-05
1.46193e-08
1.55287e-05
1.37279e-08
1.5516e-05
1.26654e-08
1.55047e-05
1.13583e-08
1.5495e-05
9.6958e-09
1.54874e-05
7.58274e-09
1.54824e-05
5.03194e-09
1.54805e-05
1.89574e-09
1.54826e-05
-2.11784e-09
1.54899e-05
-7.25142e-09
1.55035e-05
-1.36669e-08
1.55259e-05
-2.23664e-08
1.55596e-05
-3.37003e-08
1.5614e-05
-5.44518e-08
-1.24659e-07
1.57387e-05
1.5817e-05
7.69236e-09
1.58206e-05
1.51342e-08
1.5823e-05
1.50552e-08
1.58251e-05
1.53045e-08
1.5827e-05
1.57148e-08
1.58289e-05
1.5795e-08
1.58309e-05
1.56881e-08
1.58329e-05
1.55132e-08
1.5835e-05
1.52684e-08
1.58374e-05
1.49391e-08
1.58399e-05
1.45121e-08
1.58426e-05
1.39725e-08
1.58457e-05
1.32857e-08
1.58492e-05
1.24071e-08
1.58533e-05
1.13023e-08
1.5858e-05
9.9181e-09
1.58635e-05
8.23225e-09
1.58699e-05
6.208e-09
1.58776e-05
3.72711e-09
1.58866e-05
6.39774e-10
1.58975e-05
-3.30623e-09
1.59106e-05
-8.05583e-09
1.59265e-05
-1.39525e-08
1.59457e-05
-2.1369e-08
1.5969e-05
-3.05672e-08
1.59978e-05
-4.24543e-08
1.60323e-05
-5.68498e-08
1.60768e-05
-7.82328e-08
1.61245e-05
-1.02167e-07
-1.33098e-07
1.6133e-05
1.58136e-05
5.06784e-09
1.58169e-05
1.18339e-08
1.58188e-05
1.31035e-08
1.58209e-05
1.32912e-08
1.58228e-05
1.37332e-08
1.58248e-05
1.3856e-08
1.58268e-05
1.36939e-08
1.58289e-05
1.34118e-08
1.58311e-05
1.3042e-08
1.58335e-05
1.25752e-08
1.5836e-05
1.1983e-08
1.58387e-05
1.12382e-08
1.58417e-05
1.02874e-08
1.58451e-05
9.05512e-09
1.58489e-05
7.47314e-09
1.58533e-05
5.50281e-09
1.58585e-05
3.06843e-09
1.58646e-05
1.15695e-10
1.58718e-05
-3.44787e-09
1.58803e-05
-7.89768e-09
1.58904e-05
-1.34207e-08
1.59025e-05
-2.01905e-08
1.59172e-05
-2.85939e-08
1.59349e-05
-3.91193e-08
1.59566e-05
-5.22652e-08
1.59831e-05
-6.8955e-08
1.60161e-05
-8.98464e-08
1.60544e-05
-1.16545e-07
1.61024e-05
-1.50121e-07
-1.78297e-07
1.61476e-05
1.58125e-05
3.55888e-09
1.58152e-05
9.14158e-09
1.58171e-05
1.11675e-08
1.58189e-05
1.15449e-08
1.58207e-05
1.18875e-08
1.58226e-05
1.19805e-08
1.58245e-05
1.17678e-08
1.58265e-05
1.13775e-08
1.58287e-05
1.08788e-08
1.5831e-05
1.0274e-08
1.58335e-05
9.51902e-09
1.58361e-05
8.57441e-09
1.58391e-05
7.3561e-09
1.58423e-05
5.7685e-09
1.58461e-05
3.72706e-09
1.58504e-05
1.22896e-09
1.58554e-05
-1.94713e-09
1.58613e-05
-5.76466e-09
1.58682e-05
-1.04121e-08
1.58765e-05
-1.61309e-08
1.58862e-05
-2.31851e-08
1.58979e-05
-3.18796e-08
1.5912e-05
-4.26744e-08
1.5929e-05
-5.61728e-08
1.59498e-05
-7.30685e-08
1.59752e-05
-9.43293e-08
1.60064e-05
-1.20994e-07
1.60437e-05
-1.53873e-07
1.60901e-05
-1.96566e-07
-2.3388e-07
1.61457e-05
1.58119e-05
2.63297e-09
1.58139e-05
7.15604e-09
1.58157e-05
9.37811e-09
1.58172e-05
9.96648e-09
1.5819e-05
1.01769e-08
1.58208e-05
1.01766e-08
1.58226e-05
9.89095e-09
1.58246e-05
9.3927e-09
1.58267e-05
8.76819e-09
1.5829e-05
8.02832e-09
1.58314e-05
7.12043e-09
1.5834e-05
5.98387e-09
1.58368e-05
4.50867e-09
1.584e-05
2.57189e-09
1.58437e-05
8.58883e-11
1.58478e-05
-2.94773e-09
1.58527e-05
-6.7752e-09
1.58583e-05
-1.1415e-08
1.5865e-05
-1.70628e-08
1.58728e-05
-2.39847e-08
1.58821e-05
-3.2501e-08
1.58933e-05
-4.30099e-08
1.59066e-05
-5.60576e-08
1.59228e-05
-7.23506e-08
1.59425e-05
-9.27399e-08
1.59664e-05
-1.18287e-07
1.59958e-05
-1.50333e-07
1.60316e-05
-1.89669e-07
1.60757e-05
-2.40727e-07
-2.90468e-07
1.61323e-05
1.58116e-05
2.02491e-09
1.58131e-05
5.66198e-09
1.58147e-05
7.77111e-09
1.58162e-05
8.46176e-09
1.58178e-05
8.57504e-09
1.58195e-05
8.4489e-09
1.58213e-05
8.06551e-09
1.58233e-05
7.46263e-09
1.58253e-05
6.71838e-09
1.58275e-05
5.84676e-09
1.58298e-05
4.7889e-09
1.58324e-05
3.45716e-09
1.58351e-05
1.75042e-09
1.58382e-05
-4.9915e-10
1.58416e-05
-3.37191e-09
1.58456e-05
-6.93786e-09
1.58502e-05
-1.13777e-08
1.58556e-05
-1.67872e-08
1.58619e-05
-2.33651e-08
1.58693e-05
-3.14067e-08
1.58781e-05
-4.12818e-08
1.58886e-05
-5.34654e-08
1.59011e-05
-6.8587e-08
1.59162e-05
-8.74509e-08
1.59345e-05
-1.11047e-07
1.59568e-05
-1.40568e-07
1.59841e-05
-1.77604e-07
1.60176e-05
-2.23201e-07
1.6059e-05
-2.82152e-07
-3.44655e-07
1.61132e-05
1.58114e-05
1.5913e-09
1.58126e-05
4.5063e-09
1.5814e-05
6.36308e-09
1.58154e-05
7.04905e-09
1.58169e-05
7.08022e-09
1.58185e-05
6.81667e-09
1.58203e-05
6.31461e-09
1.58221e-05
5.6033e-09
1.58241e-05
4.74346e-09
1.58262e-05
3.74711e-09
1.58284e-05
2.54884e-09
1.58309e-05
1.03482e-09
1.58335e-05
-9.01598e-10
1.58364e-05
-3.43747e-09
1.58397e-05
-6.67572e-09
1.58435e-05
-1.0717e-08
1.58479e-05
-1.5723e-08
1.58529e-05
-2.18327e-08
1.58588e-05
-2.9259e-08
1.58657e-05
-3.83202e-08
1.58739e-05
-4.9432e-08
1.58835e-05
-6.31348e-08
1.58951e-05
-8.0133e-08
1.5909e-05
-1.0132e-07
1.59257e-05
-1.27804e-07
1.59461e-05
-1.60924e-07
1.59709e-05
-2.02478e-07
1.60016e-05
-2.53905e-07
1.60396e-05
-3.20105e-07
-3.94607e-07
1.60896e-05
1.58113e-05
1.26072e-09
1.58122e-05
3.58539e-09
1.58134e-05
5.13757e-09
1.58148e-05
5.73374e-09
1.58162e-05
5.67126e-09
1.58177e-05
5.26816e-09
1.58194e-05
4.63564e-09
1.58212e-05
3.81203e-09
1.58231e-05
2.84052e-09
1.58251e-05
1.72386e-09
1.58273e-05
3.94769e-10
1.58296e-05
-1.28025e-09
1.58321e-05
-3.42713e-09
1.58349e-05
-6.22063e-09
1.5838e-05
-9.79176e-09
1.58415e-05
-1.4258e-08
1.58456e-05
-1.97772e-08
1.58503e-05
-2.65137e-08
1.58557e-05
-3.46979e-08
1.58621e-05
-4.46687e-08
1.58695e-05
-5.68805e-08
1.58783e-05
-7.19272e-08
1.58888e-05
-9.05775e-08
1.59012e-05
-1.13803e-07
1.59163e-05
-1.42818e-07
1.59344e-05
-1.79099e-07
1.59566e-05
-2.24626e-07
1.59839e-05
-2.81255e-07
1.60177e-05
-3.53869e-07
-4.392e-07
1.60623e-05
1.58112e-05
9.95377e-10
1.5812e-05
2.82718e-09
1.58131e-05
4.06365e-09
1.58143e-05
4.51278e-09
1.58156e-05
4.33805e-09
1.58171e-05
3.79874e-09
1.58187e-05
3.03399e-09
1.58204e-05
2.09712e-09
1.58222e-05
1.01995e-09
1.58242e-05
-2.06625e-10
1.58262e-05
-1.65894e-09
1.58284e-05
-3.47633e-09
1.58308e-05
-5.80981e-09
1.58334e-05
-8.83397e-09
1.58363e-05
-1.26995e-08
1.58396e-05
-1.75383e-08
1.58433e-05
-2.35088e-08
1.58476e-05
-3.07926e-08
1.58525e-05
-3.9636e-08
1.58583e-05
-5.03959e-08
1.58649e-05
-6.35573e-08
1.58728e-05
-7.97574e-08
1.5882e-05
-9.98178e-08
1.5893e-05
-1.24775e-07
1.59061e-05
-1.55929e-07
1.59219e-05
-1.94877e-07
1.5941e-05
-2.4375e-07
1.59645e-05
-3.04792e-07
1.59935e-05
-3.82787e-07
-4.77504e-07
1.60318e-05
1.58112e-05
7.73212e-10
1.58118e-05
2.18232e-09
1.58128e-05
3.11026e-09
1.58139e-05
3.37914e-09
1.58152e-05
3.07514e-09
1.58166e-05
2.40306e-09
1.58181e-05
1.50949e-09
1.58197e-05
4.61205e-10
1.58215e-05
-7.16128e-10
1.58233e-05
-2.04275e-09
1.58253e-05
-3.60457e-09
1.58273e-05
-5.54811e-09
1.58296e-05
-8.04191e-09
1.5832e-05
-1.1266e-08
1.58347e-05
-1.53835e-08
1.58377e-05
-2.05392e-08
1.58411e-05
-2.68942e-08
1.58449e-05
-3.46408e-08
1.58493e-05
-4.40385e-08
1.58544e-05
-5.54584e-08
1.58602e-05
-6.94088e-08
1.5867e-05
-8.6559e-08
1.5875e-05
-1.07771e-07
1.58843e-05
-1.34129e-07
1.58954e-05
-1.66999e-07
1.59086e-05
-2.08069e-07
1.59244e-05
-2.59587e-07
1.59438e-05
-3.24125e-07
1.59673e-05
-4.06312e-07
-5.08711e-07
1.59985e-05
1.58112e-05
5.80307e-10
1.58117e-05
1.617e-09
1.58126e-05
2.25034e-09
1.58136e-05
2.32229e-09
1.58148e-05
1.87665e-09
1.58162e-05
1.07483e-09
1.58176e-05
5.91959e-11
1.58192e-05
-1.0947e-09
1.58208e-05
-2.36408e-09
1.58226e-05
-3.77919e-09
1.58244e-05
-5.43538e-09
1.58263e-05
-7.48659e-09
1.58284e-05
-1.01137e-08
1.58306e-05
-1.35038e-08
1.58331e-05
-1.78289e-08
1.58358e-05
-2.32433e-08
1.58388e-05
-2.99113e-08
1.58422e-05
-3.80318e-08
1.5846e-05
-4.78737e-08
1.58504e-05
-5.98182e-08
1.58554e-05
-7.43888e-08
1.58611e-05
-9.22765e-08
1.58677e-05
-1.14369e-07
1.58753e-05
-1.41782e-07
1.58843e-05
-1.7592e-07
1.58947e-05
-2.18533e-07
1.59071e-05
-2.71935e-07
1.59219e-05
-3.38951e-07
1.59396e-05
-4.23995e-07
-5.32093e-07
1.5963e-05
1.58111e-05
4.07147e-10
1.58116e-05
1.10706e-09
1.58124e-05
1.46091e-09
1.58134e-05
1.33004e-09
1.58146e-05
7.36363e-10
1.58158e-05
-1.91061e-10
1.58172e-05
-1.31992e-09
1.58187e-05
-2.57069e-09
1.58203e-05
-3.92212e-09
1.58219e-05
-5.41288e-09
1.58236e-05
-7.14717e-09
1.58254e-05
-9.28589e-09
1.58273e-05
-1.20187e-08
1.58293e-05
-1.5539e-08
1.58315e-05
-2.00251e-08
1.58339e-05
-2.56381e-08
1.58366e-05
-3.25447e-08
1.58395e-05
-4.09472e-08
1.58427e-05
-5.11198e-08
1.58464e-05
-6.3449e-08
1.58504e-05
-7.84661e-08
1.5855e-05
-9.68726e-08
1.58602e-05
-1.19567e-07
1.58661e-05
-1.47678e-07
1.58728e-05
-1.82622e-07
1.58805e-05
-2.26172e-07
1.58892e-05
-2.80657e-07
1.58993e-05
-3.49059e-07
1.59108e-05
-4.35519e-07
-5.47089e-07
1.59258e-05
1.58111e-05
2.46674e-10
1.58116e-05
6.34598e-10
1.58123e-05
7.22289e-10
1.58133e-05
3.89604e-10
1.58144e-05
-3.52177e-10
1.58156e-05
-1.39887e-09
1.58169e-05
-2.6309e-09
1.58183e-05
-3.9682e-09
1.58198e-05
-5.39032e-09
1.58213e-05
-6.94274e-09
1.58229e-05
-8.73764e-09
1.58245e-05
-1.09421e-08
1.58263e-05
-1.37518e-08
1.58281e-05
-1.73647e-08
1.583e-05
-2.19635e-08
1.58321e-05
-2.77132e-08
1.58343e-05
-3.47819e-08
1.58368e-05
-4.33727e-08
1.58394e-05
-5.37607e-08
1.58423e-05
-6.63328e-08
1.58454e-05
-8.16205e-08
1.58489e-05
-1.00325e-07
1.58527e-05
-1.23341e-07
1.58568e-05
-1.5179e-07
1.58612e-05
-1.87072e-07
1.5866e-05
-2.30943e-07
1.5871e-05
-2.85689e-07
1.58763e-05
-3.54348e-07
1.58815e-05
-4.40716e-07
-5.53326e-07
1.58878e-05
1.58111e-05
9.3099e-11
1.58116e-05
1.86233e-10
1.58123e-05
1.90997e-11
1.58132e-05
-5.10696e-10
1.58142e-05
-1.39695e-09
1.58154e-05
-2.55512e-09
1.58166e-05
-3.87857e-09
1.58179e-05
-5.28954e-09
1.58193e-05
-6.76911e-09
1.58207e-05
-8.36821e-09
1.58222e-05
-1.02055e-08
1.58237e-05
-1.24528e-08
1.58253e-05
-1.53096e-08
1.58269e-05
-1.89765e-08
1.58286e-05
-2.36385e-08
1.58303e-05
-2.94625e-08
1.58322e-05
-3.66163e-08
1.58341e-05
-4.53009e-08
1.58361e-05
-5.57886e-08
1.58382e-05
-6.84617e-08
1.58405e-05
-8.38445e-08
1.58428e-05
-1.02627e-07
1.58451e-05
-1.25687e-07
1.58474e-05
-1.54118e-07
1.58496e-05
-1.89277e-07
1.58516e-05
-2.32859e-07
1.58529e-05
-2.87052e-07
1.58534e-05
-3.54833e-07
1.58523e-05
-4.39588e-07
-5.50694e-07
1.58496e-05
1.58111e-05
-5.83038e-11
1.58116e-05
-2.48166e-10
1.58122e-05
-6.61777e-10
1.58131e-05
-1.38341e-09
1.58141e-05
-2.40806e-09
1.58152e-05
-3.66726e-09
1.58164e-05
-5.06799e-09
1.58177e-05
-6.53771e-09
1.5819e-05
-8.05992e-09
1.58203e-05
-9.68967e-09
1.58216e-05
-1.15504e-08
1.5823e-05
-1.3817e-08
1.58244e-05
-1.66904e-08
1.58258e-05
-2.03724e-08
1.58272e-05
-2.50482e-08
1.58286e-05
-3.08842e-08
1.583e-05
-3.80461e-08
1.58315e-05
-4.67302e-08
1.58329e-05
-5.72028e-08
1.58342e-05
-6.98366e-08
1.58355e-05
-8.5142e-08
1.58367e-05
-1.03788e-07
1.58376e-05
-1.26622e-07
1.58382e-05
-1.54689e-07
1.58382e-05
-1.89279e-07
1.58373e-05
-2.31988e-07
1.58351e-05
-2.84844e-07
1.5831e-05
-3.50652e-07
1.58237e-05
-4.32324e-07
-5.39378e-07
1.58124e-05
1.58111e-05
-2.0896e-10
1.58115e-05
-6.78344e-10
1.58122e-05
-1.33575e-09
1.58131e-05
-2.24299e-09
1.58141e-05
-3.39552e-09
1.58151e-05
-4.74169e-09
1.58163e-05
-6.204e-09
1.58175e-05
-7.71655e-09
1.58187e-05
-9.2652e-09
1.58199e-05
-1.09084e-08
1.58211e-05
-1.27729e-08
1.58223e-05
-1.50349e-08
1.58235e-05
-1.7895e-08
1.58247e-05
-2.15535e-08
1.58259e-05
-2.61939e-08
1.58269e-05
-3.19802e-08
1.5828e-05
-3.90737e-08
1.58289e-05
-4.76645e-08
1.58297e-05
-5.80093e-08
1.58303e-05
-7.04673e-08
1.58307e-05
-8.55283e-08
1.58308e-05
-1.03832e-07
1.58303e-05
-1.26181e-07
1.58292e-05
-1.5356e-07
1.58271e-05
-1.87164e-07
1.58236e-05
-2.28452e-07
1.5818e-05
-2.79246e-07
1.58094e-05
-3.42068e-07
1.57964e-05
-4.193e-07
-5.19897e-07
1.57769e-05
1.58111e-05
-3.60041e-10
1.58116e-05
-1.11671e-09
1.58122e-05
-2.01843e-09
1.58131e-05
-3.1024e-09
1.58141e-05
-4.36822e-09
1.58151e-05
-5.78508e-09
1.58162e-05
-7.29247e-09
1.58173e-05
-8.83079e-09
1.58184e-05
-1.03883e-08
1.58196e-05
-1.20267e-08
1.58207e-05
-1.3875e-08
1.58217e-05
-1.61089e-08
1.58228e-05
-1.8926e-08
1.58237e-05
-2.2523e-08
1.58246e-05
-2.70796e-08
1.58254e-05
-3.27554e-08
1.5826e-05
-3.97059e-08
1.58265e-05
-4.81129e-08
1.58267e-05
-5.82211e-08
1.58266e-05
-7.0372e-08
1.58261e-05
-8.50296e-08
1.58251e-05
-1.02796e-07
1.58233e-05
-1.24421e-07
1.58205e-05
-1.50809e-07
1.58164e-05
-1.83045e-07
1.58104e-05
-2.22423e-07
1.58017e-05
-2.70511e-07
1.57891e-05
-3.29458e-07
1.57708e-05
-4.01077e-07
-4.93098e-07
1.5744e-05
1.58111e-05
-5.16176e-10
1.58116e-05
-1.57613e-09
1.58123e-05
-2.7241e-09
1.58132e-05
-3.97401e-09
1.58141e-05
-5.3355e-09
1.58151e-05
-6.80489e-09
1.58162e-05
-8.33979e-09
1.58172e-05
-9.88575e-09
1.58183e-05
-1.14336e-08
1.58193e-05
-1.30484e-08
1.58203e-05
-1.48608e-08
1.58212e-05
-1.70431e-08
1.58221e-05
-1.97879e-08
1.58229e-05
-2.32861e-08
1.58235e-05
-2.77116e-08
1.5824e-05
-3.3218e-08
1.58242e-05
-3.99534e-08
1.58242e-05
-4.80897e-08
1.58238e-05
-5.78574e-08
1.5823e-05
-6.95772e-08
1.58217e-05
-8.36821e-08
1.58196e-05
-1.00731e-07
1.58166e-05
-1.21411e-07
1.58123e-05
-1.46539e-07
1.58064e-05
-1.7707e-07
1.5798e-05
-2.14111e-07
1.57865e-05
-2.58952e-07
1.57703e-05
-3.13295e-07
1.57476e-05
-3.78373e-07
-4.60128e-07
1.57146e-05
1.58111e-05
-6.83684e-10
1.58116e-05
-2.06975e-09
1.58124e-05
-3.46938e-09
1.58133e-05
-4.87137e-09
1.58142e-05
-6.30679e-09
1.58152e-05
-7.80884e-09
1.58163e-05
-9.35296e-09
1.58173e-05
-1.08874e-08
1.58182e-05
-1.2406e-08
1.58192e-05
-1.39784e-08
1.582e-05
-1.57349e-08
1.58208e-05
-1.78427e-08
1.58215e-05
-2.04867e-08
1.58221e-05
-2.38499e-08
1.58225e-05
-2.80987e-08
1.58226e-05
-3.33793e-08
1.58225e-05
-3.98309e-08
1.5822e-05
-4.76141e-08
1.58211e-05
-5.69436e-08
1.58197e-05
-6.81162e-08
1.58175e-05
-8.1531e-08
1.58145e-05
-9.76977e-08
1.58103e-05
-1.17236e-07
1.58046e-05
-1.40866e-07
1.5797e-05
-1.69405e-07
1.57866e-05
-2.03762e-07
1.57726e-05
-2.44931e-07
1.57534e-05
-2.94128e-07
1.57271e-05
-3.52024e-07
-4.22379e-07
1.56893e-05
1.58112e-05
-8.69831e-10
1.58117e-05
-2.61501e-09
1.58125e-05
-4.27393e-09
1.58134e-05
-5.80838e-09
1.58144e-05
-7.29133e-09
1.58154e-05
-8.80508e-09
1.58164e-05
-1.03394e-08
1.58174e-05
-1.18418e-08
1.58183e-05
-1.3311e-08
1.58191e-05
-1.48221e-08
1.58199e-05
-1.65035e-08
1.58206e-05
-1.85144e-08
1.58211e-05
-2.103e-08
1.58215e-05
-2.42236e-08
1.58216e-05
-2.82523e-08
1.58215e-05
-3.32535e-08
1.5821e-05
-3.93564e-08
1.58201e-05
-4.67093e-08
1.58187e-05
-5.55096e-08
1.58166e-05
-6.60285e-08
1.58137e-05
-7.8628e-08
1.58098e-05
-9.37662e-08
1.58045e-05
-1.11991e-07
1.57976e-05
-1.33922e-07
1.57884e-05
-1.60236e-07
1.57763e-05
-1.91639e-07
1.57602e-05
-2.28835e-07
1.57386e-05
-2.72545e-07
1.57095e-05
-3.22937e-07
-3.81375e-07
1.56685e-05
1.58112e-05
-1.08456e-09
1.58118e-05
-3.23579e-09
1.58127e-05
-5.16117e-09
1.58137e-05
-6.79879e-09
1.58147e-05
-8.298e-09
1.58157e-05
-9.80237e-09
1.58167e-05
-1.1307e-08
1.58176e-05
-1.27553e-08
1.58184e-05
-1.41544e-08
1.58192e-05
-1.55857e-08
1.58198e-05
-1.71733e-08
1.58204e-05
-1.9066e-08
1.58208e-05
-2.14273e-08
1.5821e-05
-2.44186e-08
1.58209e-05
-2.81864e-08
1.58205e-05
-3.28582e-08
1.58197e-05
-3.8552e-08
1.58184e-05
-4.54031e-08
1.58165e-05
-5.35908e-08
1.58138e-05
-6.33594e-08
1.58102e-05
-7.50319e-08
1.58055e-05
-8.90131e-08
1.57993e-05
-1.05778e-07
1.57912e-05
-1.25845e-07
1.57807e-05
-1.49753e-07
1.57671e-05
-1.78015e-07
1.57493e-05
-2.11061e-07
1.57259e-05
-2.49142e-07
1.5695e-05
-2.92019e-07
-3.38708e-07
1.56523e-05
1.58112e-05
-1.34248e-09
1.5812e-05
-3.96642e-09
1.5813e-05
-6.15875e-09
1.5814e-05
-7.85468e-09
1.5815e-05
-9.33505e-09
1.58161e-05
-1.08104e-08
1.5817e-05
-1.22639e-08
1.58179e-05
-1.3634e-08
1.58187e-05
-1.49421e-08
1.58194e-05
-1.62758e-08
1.58199e-05
-1.77518e-08
1.58204e-05
-1.95059e-08
1.58206e-05
-2.16884e-08
1.58207e-05
-2.44467e-08
1.58204e-05
-2.79157e-08
1.58198e-05
-3.22118e-08
1.58186e-05
-3.74409e-08
1.5817e-05
-4.37249e-08
1.58146e-05
-5.12249e-08
1.58114e-05
-6.01573e-08
1.58072e-05
-7.08049e-08
1.58017e-05
-8.35197e-08
1.57946e-05
-9.87043e-08
1.57855e-05
-1.1678e-07
1.57739e-05
-1.38154e-07
1.57591e-05
-1.6316e-07
1.574e-05
-1.9199e-07
1.57154e-05
-2.24482e-07
1.56835e-05
-2.60126e-07
-2.95813e-07
1.56406e-05
1.58113e-05
-1.666e-09
1.58122e-05
-4.85724e-09
1.58133e-05
-7.29835e-09
1.58145e-05
-8.98514e-09
1.58155e-05
-1.04107e-08
1.58166e-05
-1.18388e-08
1.58175e-05
-1.32171e-08
1.58184e-05
-1.44841e-08
1.58191e-05
-1.56817e-08
1.58197e-05
-1.69014e-08
1.58202e-05
-1.82491e-08
1.58206e-05
-1.98455e-08
1.58207e-05
-2.18252e-08
1.58206e-05
-2.43245e-08
1.58201e-05
-2.74619e-08
1.58192e-05
-3.13379e-08
1.58179e-05
-3.60508e-08
1.58158e-05
-4.17095e-08
1.58131e-05
-4.84551e-08
1.58094e-05
-5.64756e-08
1.58046e-05
-6.60132e-08
1.57984e-05
-7.73698e-08
1.57906e-05
-9.0879e-08
1.57807e-05
-1.06868e-07
1.57682e-05
-1.25627e-07
1.57524e-05
-1.47329e-07
1.57323e-05
-1.71975e-07
1.57069e-05
-1.99062e-07
1.56748e-05
-2.27985e-07
-2.5396e-07
1.56329e-05
1.58114e-05
-2.09275e-09
1.58125e-05
-5.98085e-09
1.58138e-05
-8.61108e-09
1.5815e-05
-1.0197e-08
1.58162e-05
-1.15379e-08
1.58172e-05
-1.28987e-08
1.58182e-05
-1.41699e-08
1.5819e-05
-1.53065e-08
1.58197e-05
-1.63754e-08
1.58203e-05
-1.74663e-08
1.58207e-05
-1.86707e-08
1.58209e-05
-2.0093e-08
1.5821e-05
-2.18513e-08
1.58207e-05
-2.40648e-08
1.58201e-05
-2.68375e-08
1.5819e-05
-3.02577e-08
1.58174e-05
-3.44106e-08
1.5815e-05
-3.93917e-08
1.58119e-05
-4.5325e-08
1.58078e-05
-5.23694e-08
1.58025e-05
-6.07258e-08
1.57958e-05
-7.06505e-08
1.57873e-05
-8.2412e-08
1.57767e-05
-9.62507e-08
1.57634e-05
-1.12353e-07
1.57469e-05
-1.30758e-07
1.57262e-05
-1.51326e-07
1.57004e-05
-1.73282e-07
1.56686e-05
-1.96155e-07
-2.13989e-07
1.56286e-05
1.58116e-05
-2.69384e-09
1.5813e-05
-7.44192e-09
1.58145e-05
-1.01119e-08
1.58158e-05
-1.1492e-08
1.5817e-05
-1.27384e-08
1.58181e-05
-1.40077e-08
1.58191e-05
-1.51341e-08
1.58199e-05
-1.61141e-08
1.58206e-05
-1.7037e-08
1.58211e-05
-1.79832e-08
1.58214e-05
-1.90292e-08
1.58216e-05
-2.02617e-08
1.58215e-05
-2.17809e-08
1.58212e-05
-2.36868e-08
1.58204e-05
-2.60677e-08
1.58191e-05
-2.89985e-08
1.58173e-05
-3.2552e-08
1.58147e-05
-3.68098e-08
1.58112e-05
-4.1881e-08
1.58068e-05
-4.78943e-08
1.58011e-05
-5.50093e-08
1.57939e-05
-6.34442e-08
1.57848e-05
-7.34068e-08
1.57737e-05
-8.50578e-08
1.57598e-05
-9.84994e-08
1.57427e-05
-1.13656e-07
1.57217e-05
-1.30304e-07
1.56958e-05
-1.4743e-07
1.56646e-05
-1.6498e-07
-1.76298e-07
1.5627e-05
1.58119e-05
-3.6108e-09
1.58138e-05
-9.39797e-09
1.58155e-05
-1.17822e-08
1.58169e-05
-1.28623e-08
1.58182e-05
-1.40156e-08
1.58193e-05
-1.51533e-08
1.58203e-05
-1.60965e-08
1.58211e-05
-1.69024e-08
1.58217e-05
-1.76679e-08
1.58222e-05
-1.84573e-08
1.58225e-05
-1.9334e-08
1.58226e-05
-2.03645e-08
1.58224e-05
-2.16299e-08
1.58219e-05
-2.32094e-08
1.5821e-05
-2.5175e-08
1.58196e-05
-2.75873e-08
1.58176e-05
-3.05081e-08
1.58148e-05
-3.40039e-08
1.58111e-05
-3.81741e-08
1.58063e-05
-4.31121e-08
1.58002e-05
-4.89371e-08
1.57926e-05
-5.584e-08
1.57832e-05
-6.39689e-08
1.57715e-05
-7.34161e-08
1.57573e-05
-8.42197e-08
1.57398e-05
-9.62095e-08
1.57186e-05
-1.09121e-07
1.56929e-05
-1.21693e-07
1.56626e-05
-1.34683e-07
-1.4019e-07
1.56265e-05
1.58125e-05
-5.10874e-09
1.58151e-05
-1.20448e-08
1.58169e-05
-1.3613e-08
1.58185e-05
-1.43847e-08
1.58199e-05
-1.54174e-08
1.58211e-05
-1.63409e-08
1.5822e-05
-1.70584e-08
1.58228e-05
-1.76769e-08
1.58234e-05
-1.82717e-08
1.58238e-05
-1.8889e-08
1.58241e-05
-1.9587e-08
1.58241e-05
-2.04069e-08
1.58239e-05
-2.14086e-08
1.58233e-05
-2.26488e-08
1.58223e-05
-2.41824e-08
1.58208e-05
-2.60528e-08
1.58186e-05
-2.83132e-08
1.58156e-05
-3.10123e-08
1.58117e-05
-3.42545e-08
1.58067e-05
-3.80767e-08
1.58003e-05
-4.25697e-08
1.57924e-05
-4.79192e-08
1.57826e-05
-5.42013e-08
1.57707e-05
-6.14523e-08
1.57561e-05
-6.96697e-08
1.57385e-05
-7.86199e-08
1.57174e-05
-8.79969e-08
1.56918e-05
-9.61101e-08
1.56627e-05
-1.05532e-07
-1.03714e-07
1.56262e-05
1.58136e-05
-7.70844e-09
1.58168e-05
-1.53003e-08
1.58187e-05
-1.54804e-08
1.58205e-05
-1.61532e-08
1.5822e-05
-1.69597e-08
1.58232e-05
-1.7573e-08
1.58242e-05
-1.8041e-08
1.5825e-05
-1.84591e-08
1.58256e-05
-1.88695e-08
1.5826e-05
-1.9306e-08
1.58262e-05
-1.98146e-08
1.58262e-05
-2.04159e-08
1.5826e-05
-2.11432e-08
1.58254e-05
-2.20283e-08
1.58243e-05
-2.31135e-08
1.58227e-05
-2.44224e-08
1.58204e-05
-2.60034e-08
1.58172e-05
-2.7871e-08
1.58131e-05
-3.01782e-08
1.58079e-05
-3.28684e-08
1.58013e-05
-3.5981e-08
1.57932e-05
-3.97499e-08
1.57831e-05
-4.41751e-08
1.57709e-05
-4.9243e-08
1.57562e-05
-5.49289e-08
1.57386e-05
-6.102e-08
1.57178e-05
-6.71551e-08
1.56926e-05
-7.09794e-08
1.56642e-05
-7.70685e-08
-6.10542e-08
1.56215e-05
1.5817e-05
-1.37492e-08
1.58206e-05
-1.88579e-08
1.58228e-05
-1.76893e-08
1.58244e-05
-1.77695e-08
1.58257e-05
-1.82568e-08
1.58267e-05
-1.85962e-08
1.58275e-05
-1.88281e-08
1.58281e-05
-1.904e-08
1.58285e-05
-1.92544e-08
1.58286e-05
-1.94824e-08
1.58286e-05
-1.97443e-08
1.58282e-05
-2.00535e-08
1.58275e-05
-2.0427e-08
1.58263e-05
-2.08817e-08
1.58247e-05
-2.14443e-08
1.58224e-05
-2.21233e-08
1.58193e-05
-2.29495e-08
1.58154e-05
-2.39185e-08
1.58103e-05
-2.51471e-08
1.5804e-05
-2.65615e-08
1.57962e-05
-2.81796e-08
1.57867e-05
-3.01822e-08
1.5775e-05
-3.25459e-08
1.5761e-05
-3.52484e-08
1.57444e-05
-3.82842e-08
1.57249e-05
-4.14807e-08
1.57024e-05
-4.46613e-08
1.56763e-05
-4.49607e-08
1.56436e-05
-4.42864e-08
5.74171e-09
1.55768e-05
1.57972e-05
1.57784e-05
1.57607e-05
1.57429e-05
1.57246e-05
1.5706e-05
1.56872e-05
1.56682e-05
1.56489e-05
1.56294e-05
1.56097e-05
1.55896e-05
1.55692e-05
1.55483e-05
1.55269e-05
1.55048e-05
1.54818e-05
1.54579e-05
1.54328e-05
1.54062e-05
1.5378e-05
1.53478e-05
1.53153e-05
1.528e-05
1.52418e-05
1.52003e-05
1.51556e-05
1.51106e-05
1.50664e-05
1.50721e-05
1.54476e-05
-9.02252e-06
9.31366e-06
1.5111e-05
-9.10222e-06
9.43883e-06
1.47199e-05
-9.15804e-06
9.54906e-06
1.42844e-05
-9.18872e-06
9.62421e-06
1.38244e-05
-9.21524e-06
9.67525e-06
1.33528e-05
-9.2443e-06
9.71588e-06
1.28752e-05
-9.27582e-06
9.75346e-06
1.23942e-05
-9.30982e-06
9.79082e-06
1.1911e-05
-9.34645e-06
9.82962e-06
1.14259e-05
-9.38559e-06
9.87075e-06
1.09385e-05
-9.427e-06
9.91441e-06
1.04485e-05
-9.47062e-06
9.96058e-06
9.95584e-06
-9.5167e-06
1.00094e-05
9.46037e-06
-9.56566e-06
1.00611e-05
8.96201e-06
-9.61804e-06
1.01164e-05
8.46061e-06
-9.67449e-06
1.01759e-05
7.95595e-06
-9.73584e-06
1.02405e-05
7.44771e-06
-9.80316e-06
1.03114e-05
6.93549e-06
-9.87787e-06
1.03901e-05
6.4187e-06
-9.96195e-06
1.04787e-05
5.89664e-06
-1.00581e-05
1.05802e-05
5.3679e-06
-1.01704e-05
1.06991e-05
4.83199e-06
-1.0304e-05
1.08399e-05
4.28294e-06
-1.04709e-05
1.102e-05
3.72716e-06
-1.06737e-05
1.12295e-05
3.1324e-06
-1.09805e-05
1.15753e-05
2.54359e-06
-1.13029e-05
1.18917e-05
1.82491e-06
-1.21146e-05
1.28333e-05
1.10101e-06
-1.26297e-05
1.33536e-05
-1.57579e-05
1.68589e-05
1.57273e-05
-8.61687e-06
1.52747e-05
-8.64963e-06
1.47988e-05
-8.68215e-06
1.43175e-05
-8.70736e-06
1.38364e-05
-8.7342e-06
1.33559e-05
-8.7638e-06
1.28757e-05
-8.79561e-06
1.23954e-05
-8.82951e-06
1.19139e-05
-8.8649e-06
1.14302e-05
-8.90194e-06
1.09441e-05
-8.94084e-06
1.04553e-05
-8.98182e-06
9.9638e-06
-9.02525e-06
9.46965e-06
-9.07151e-06
8.97269e-06
-9.12108e-06
8.47272e-06
-9.17452e-06
7.96948e-06
-9.2326e-06
7.46263e-06
-9.29631e-06
6.95173e-06
-9.36697e-06
6.43617e-06
-9.44639e-06
5.91515e-06
-9.53708e-06
5.38741e-06
-9.64267e-06
4.85169e-06
-9.76824e-06
4.30391e-06
-9.92318e-06
3.74529e-06
-1.01151e-05
3.15408e-06
-1.03893e-05
2.55559e-06
-1.07044e-05
1.84342e-06
-1.14025e-05
1.11235e-06
-1.18986e-05
-1.46455e-05
1.56914e-05
-8.16069e-06
1.52253e-05
-8.18354e-06
1.47542e-05
-8.21108e-06
1.42842e-05
-8.23732e-06
1.38132e-05
-8.26316e-06
1.33406e-05
-8.29123e-06
1.28661e-05
-8.32108e-06
1.23888e-05
-8.35227e-06
1.19089e-05
-8.38492e-06
1.14263e-05
-8.41934e-06
1.09412e-05
-8.45576e-06
1.04537e-05
-8.49434e-06
9.96375e-06
-8.53531e-06
9.47121e-06
-8.57898e-06
8.97591e-06
-8.62577e-06
8.4776e-06
-8.67622e-06
7.97601e-06
-8.73102e-06
7.4708e-06
-8.7911e-06
6.96151e-06
-8.85767e-06
6.44749e-06
-8.93237e-06
5.92789e-06
-9.01749e-06
5.40149e-06
-9.11627e-06
4.86666e-06
-9.23341e-06
4.3202e-06
-9.37671e-06
3.76037e-06
-9.55529e-06
3.17187e-06
-9.80082e-06
2.56634e-06
-1.00989e-05
1.85917e-06
-1.06953e-05
1.11877e-06
-1.11582e-05
-1.35267e-05
1.56842e-05
-7.69919e-06
1.52202e-05
-7.71956e-06
1.47521e-05
-7.74298e-06
1.42817e-05
-7.76688e-06
1.38098e-05
-7.79122e-06
1.33358e-05
-7.8172e-06
1.28596e-05
-7.84495e-06
1.23816e-05
-7.87421e-06
1.19016e-05
-7.90499e-06
1.14197e-05
-7.93747e-06
1.09358e-05
-7.9718e-06
1.04496e-05
-8.00813e-06
9.96095e-06
-8.04667e-06
9.46973e-06
-8.08775e-06
8.97573e-06
-8.13177e-06
8.47874e-06
-8.17922e-06
7.97847e-06
-8.23075e-06
7.47455e-06
-8.28718e-06
6.96648e-06
-8.3496e-06
6.45361e-06
-8.4195e-06
5.93503e-06
-8.49891e-06
5.40949e-06
-8.59072e-06
4.87519e-06
-8.69911e-06
4.32922e-06
-8.83074e-06
3.76835e-06
-8.99441e-06
3.18098e-06
-9.21346e-06
2.56946e-06
-9.48734e-06
1.86627e-06
-9.9921e-06
1.11776e-06
-1.04097e-05
-1.2409e-05
1.56681e-05
-7.23499e-06
1.52021e-05
-7.25357e-06
1.47335e-05
-7.27429e-06
1.4263e-05
-7.29643e-06
1.37914e-05
-7.31963e-06
1.33184e-05
-7.34419e-06
1.28437e-05
-7.37023e-06
1.23671e-05
-7.39766e-06
1.18887e-05
-7.4265e-06
1.14081e-05
-7.45689e-06
1.09253e-05
-7.48901e-06
1.04402e-05
-7.52302e-06
9.95265e-06
-7.55915e-06
9.46258e-06
-7.59768e-06
8.96976e-06
-7.63895e-06
8.47396e-06
-7.68343e-06
7.97488e-06
-7.73167e-06
7.47211e-06
-7.78441e-06
6.96513e-06
-7.84262e-06
6.45325e-06
-7.90762e-06
5.93553e-06
-7.98119e-06
5.41067e-06
-8.06586e-06
4.87679e-06
-8.16524e-06
4.33102e-06
-8.28497e-06
3.7694e-06
-8.4328e-06
3.18231e-06
-8.62637e-06
2.56628e-06
-8.87131e-06
1.86593e-06
-9.29176e-06
1.11123e-06
-9.65497e-06
-1.12978e-05
1.56482e-05
-6.76998e-06
1.51819e-05
-6.78725e-06
1.47138e-05
-6.80624e-06
1.42443e-05
-6.82689e-06
1.37734e-05
-6.84876e-06
1.3301e-05
-6.87177e-06
1.28268e-05
-6.89602e-06
1.23507e-05
-6.92158e-06
1.18727e-05
-6.94851e-06
1.13927e-05
-6.97692e-06
1.09107e-05
-7.00696e-06
1.04264e-05
-7.03879e-06
9.93988e-06
-7.07258e-06
9.4508e-06
-7.1086e-06
8.959e-06
-7.14715e-06
8.46421e-06
-7.18864e-06
7.96611e-06
-7.23356e-06
7.46427e-06
-7.28257e-06
6.95815e-06
-7.33651e-06
6.44704e-06
-7.39651e-06
5.92995e-06
-7.46411e-06
5.40554e-06
-7.54145e-06
4.87186e-06
-7.63156e-06
4.326e-06
-7.7391e-06
3.76368e-06
-7.87048e-06
3.17625e-06
-8.03894e-06
2.55676e-06
-8.25182e-06
1.85873e-06
-8.59373e-06
1.09954e-06
-8.89578e-06
-1.01982e-05
1.56243e-05
-6.30476e-06
1.5158e-05
-6.32089e-06
1.46902e-05
-6.33846e-06
1.4221e-05
-6.3577e-06
1.37504e-05
-6.37818e-06
1.32783e-05
-6.39967e-06
1.28046e-05
-6.42227e-06
1.23291e-05
-6.4461e-06
1.18518e-05
-6.47123e-06
1.13726e-05
-6.49774e-06
1.08914e-05
-6.52575e-06
1.0408e-05
-6.5554e-06
9.92231e-06
-6.58687e-06
9.43408e-06
-6.62038e-06
8.94313e-06
-6.6562e-06
8.44918e-06
-6.69468e-06
7.95188e-06
-6.73626e-06
7.4508e-06
-6.78149e-06
6.94537e-06
-6.83108e-06
6.43484e-06
-6.88598e-06
5.9182e-06
-6.94747e-06
5.39405e-06
-7.0173e-06
4.86041e-06
-7.09792e-06
4.31429e-06
-7.19298e-06
3.75129e-06
-7.30748e-06
3.16327e-06
-7.45092e-06
2.54125e-06
-7.6298e-06
1.84571e-06
-7.89819e-06
1.08347e-06
-8.13354e-06
-9.11474e-06
1.5597e-05
-5.83947e-06
1.51307e-05
-5.85458e-06
1.46631e-05
-5.87091e-06
1.41943e-05
-5.88883e-06
1.3724e-05
-5.90793e-06
1.32523e-05
-5.92795e-06
1.2779e-05
-5.94898e-06
1.2304e-05
-5.97113e-06
1.18273e-05
-5.99449e-06
1.13487e-05
-6.01913e-06
1.08681e-05
-6.04514e-06
1.03853e-05
-6.07265e-06
9.90027e-06
-6.10182e-06
9.41273e-06
-6.13284e-06
8.92247e-06
-6.16594e-06
8.42919e-06
-6.2014e-06
7.93253e-06
-6.2396e-06
7.43204e-06
-6.28099e-06
6.92712e-06
-6.32616e-06
6.41699e-06
-6.37586e-06
5.90063e-06
-6.4311e-06
5.37659e-06
-6.49326e-06
4.84283e-06
-6.56417e-06
4.29636e-06
-6.64651e-06
3.7327e-06
-6.74382e-06
3.14401e-06
-6.86223e-06
2.5203e-06
-7.00609e-06
1.82746e-06
-7.20536e-06
1.06393e-06
-7.37001e-06
-8.05081e-06
1.55665e-05
-5.37418e-06
1.51002e-05
-5.38833e-06
1.46328e-05
-5.40352e-06
1.41642e-05
-5.42017e-06
1.36942e-05
-5.43792e-06
1.32227e-05
-5.45652e-06
1.27498e-05
-5.47602e-06
1.22752e-05
-5.49655e-06
1.17989e-05
-5.51819e-06
1.13208e-05
-5.54099e-06
1.08407e-05
-5.56504e-06
1.03585e-05
-5.59044e-06
9.87396e-06
-5.61733e-06
9.38699e-06
-5.64586e-06
8.89727e-06
-5.67622e-06
8.40452e-06
-5.70865e-06
7.90836e-06
-5.74344e-06
7.4083e-06
-5.78094e-06
6.90374e-06
-5.8216e-06
6.39388e-06
-5.866e-06
5.87765e-06
-5.91487e-06
5.35359e-06
-5.96919e-06
4.81964e-06
-6.03022e-06
4.27276e-06
-6.09963e-06
3.7085e-06
-6.17956e-06
3.11925e-06
-6.27299e-06
2.49459e-06
-6.38143e-06
1.80483e-06
-6.51559e-06
1.04193e-06
-6.60712e-06
-7.00888e-06
1.55332e-05
-4.90886e-06
1.50669e-05
-4.9221e-06
1.45996e-05
-4.93622e-06
1.41311e-05
-4.95165e-06
1.36613e-05
-4.96809e-06
1.31901e-05
-4.98531e-06
1.27174e-05
-5.00333e-06
1.22431e-05
-5.02228e-06
1.17672e-05
-5.04223e-06
1.12894e-05
-5.06323e-06
1.08097e-05
-5.08534e-06
1.03279e-05
-5.10865e-06
9.84388e-06
-5.13327e-06
9.35733e-06
-5.15931e-06
8.86804e-06
-5.18693e-06
8.37568e-06
-5.2163e-06
7.87988e-06
-5.24763e-06
7.38013e-06
-5.28119e-06
6.8758e-06
-5.31727e-06
6.36609e-06
-5.35628e-06
5.84989e-06
-5.39868e-06
5.32573e-06
-5.44503e-06
4.79153e-06
-5.49601e-06
4.24426e-06
-5.55237e-06
3.6795e-06
-5.61479e-06
3.08992e-06
-5.68341e-06