/*--------------------------------*- C++ -*----------------------------------*\
  =========                 |
  \\      /  F ield         | OpenFOAM: The Open Source CFD Toolbox
   \\    /   O peration     | Website:  https://openfoam.org
    \\  /    A nd           | Version:  11
     \\/     M anipulation  |
\*---------------------------------------------------------------------------*/
FoamFile
{
    format      ascii;
    class       surfaceScalarField;
    location    "6";
    object      phi;
}
// * * * * * * * * * * * * * * * * * * * * * * * * * * * * * * * * * * * * * //

dimensions      [0 3 -1 0 0 0 0];

internalField   nonuniform List<scalar> 
24840
(
1.532e-05
1.3286e-08
1.53026e-05
1.74531e-08
1.52868e-05
1.5763e-08
1.52721e-05
1.47288e-08
1.52582e-05
1.39323e-08
1.52453e-05
1.28616e-08
1.52339e-05
1.14546e-08
1.5224e-05
9.81654e-09
1.52163e-05
7.70911e-09
1.52111e-05
5.24775e-09
1.52088e-05
2.32294e-09
1.521e-05
-1.25129e-09
1.52156e-05
-5.63332e-09
1.52266e-05
-1.10104e-08
1.52443e-05
-1.76552e-08
1.527e-05
-2.57067e-08
1.53057e-05
-3.56963e-08
1.5354e-05
-4.82636e-08
1.54168e-05
-6.28205e-08
1.54972e-05
-8.04016e-08
1.56001e-05
-1.02925e-07
1.57308e-05
-1.30679e-07
1.58954e-05
-1.64577e-07
1.61014e-05
-2.05991e-07
1.63576e-05
-2.56236e-07
1.66745e-05
-3.16896e-07
1.70658e-05
-3.91267e-07
1.75407e-05
-4.7489e-07
1.81415e-05
-6.0081e-07
-6.02864e-07
1.87443e-05
1.53394e-05
7.23103e-09
1.53438e-05
1.3086e-08
1.53481e-05
1.14464e-08
1.53527e-05
1.00765e-08
1.53581e-05
8.57695e-09
1.53645e-05
6.44658e-09
1.53722e-05
3.73372e-09
1.53814e-05
5.88028e-10
1.53926e-05
-3.44549e-09
1.54059e-05
-8.0828e-09
1.54219e-05
-1.36422e-08
1.5441e-05
-2.03468e-08
1.54638e-05
-2.8462e-08
1.54911e-05
-3.83247e-08
1.55237e-05
-5.025e-08
1.55628e-05
-6.48202e-08
1.56098e-05
-8.26249e-08
1.56656e-05
-1.04079e-07
1.57346e-05
-1.31828e-07
1.58213e-05
-1.67113e-07
1.59279e-05
-2.09561e-07
1.60583e-05
-2.6102e-07
1.62176e-05
-3.23933e-07
1.64127e-05
-4.01017e-07
1.66516e-05
-4.95177e-07
1.69444e-05
-6.09726e-07
1.7303e-05
-7.4986e-07
1.77414e-05
-9.13216e-07
1.82774e-05
-1.13689e-06
-1.25996e-06
1.89345e-05
1.53363e-05
4.27606e-09
1.53403e-05
9.10198e-09
1.53436e-05
8.13113e-09
1.53476e-05
6.01216e-09
1.53526e-05
3.66375e-09
1.53585e-05
4.94924e-10
1.53656e-05
-3.35949e-09
1.53744e-05
-8.15748e-09
1.53848e-05
-1.39353e-08
1.53975e-05
-2.07462e-08
1.54127e-05
-2.88778e-08
1.54311e-05
-3.86582e-08
1.54531e-05
-5.04808e-08
1.54796e-05
-6.48378e-08
1.55116e-05
-8.22908e-08
1.55504e-05
-1.03614e-07
1.55975e-05
-1.29756e-07
1.56552e-05
-1.61733e-07
1.57251e-05
-2.01694e-07
1.58096e-05
-2.5162e-07
1.59127e-05
-3.1267e-07
1.60388e-05
-3.8714e-07
1.61933e-05
-4.78381e-07
1.63825e-05
-5.90301e-07
1.66147e-05
-7.27382e-07
1.68996e-05
-8.94626e-07
1.72495e-05
-1.09969e-06
1.7678e-05
-1.34179e-06
1.82039e-05
-1.6627e-06
-1.913e-06
1.88569e-05
1.53351e-05
2.50031e-09
1.53386e-05
5.65341e-09
1.53418e-05
4.85513e-09
1.53456e-05
2.27775e-09
1.53502e-05
-1.00399e-09
1.53559e-05
-5.15053e-09
1.53628e-05
-1.02729e-08
1.53712e-05
-1.6574e-08
1.53814e-05
-2.40936e-08
1.53936e-05
-3.30025e-08
1.54084e-05
-4.36174e-08
1.54261e-05
-5.63675e-08
1.54474e-05
-7.17759e-08
1.5473e-05
-9.04879e-08
1.5504e-05
-1.13276e-07
1.55415e-05
-1.41126e-07
1.5587e-05
-1.75269e-07
1.56425e-05
-2.17165e-07
1.57098e-05
-2.69021e-07
1.57915e-05
-3.33303e-07
1.5891e-05
-4.12241e-07
1.60128e-05
-5.08889e-07
1.61619e-05
-6.27471e-07
1.63446e-05
-7.73063e-07
1.65689e-05
-9.51666e-07
1.68444e-05
-1.17007e-06
1.71828e-05
-1.43816e-06
1.75992e-05
-1.75812e-06
1.81091e-05
-2.17263e-06
-2.55239e-06
1.87485e-05
1.53345e-05
1.33699e-09
1.53372e-05
2.94139e-09
1.53402e-05
1.85332e-09
1.53437e-05
-1.24573e-09
1.53481e-05
-5.41015e-09
1.53536e-05
-1.05784e-08
1.53602e-05
-1.69251e-08
1.53683e-05
-2.46393e-08
1.5378e-05
-3.38385e-08
1.53898e-05
-4.4745e-08
1.54039e-05
-5.77314e-08
1.54208e-05
-7.33174e-08
1.54412e-05
-9.2148e-08
1.54657e-05
-1.15015e-07
1.54953e-05
-1.42879e-07
1.55311e-05
-1.76939e-07
1.55746e-05
-2.18686e-07
1.56273e-05
-2.69946e-07
1.56915e-05
-3.33154e-07
1.57694e-05
-4.11192e-07
1.58643e-05
-5.07151e-07
1.59803e-05
-6.24906e-07
1.61224e-05
-7.69536e-07
1.62965e-05
-9.47243e-07
1.65104e-05
-1.16549e-06
1.67732e-05
-1.43291e-06
1.70965e-05
-1.76147e-06
1.74954e-05
-2.15701e-06
1.79844e-05
-2.66159e-06
-3.16882e-06
1.86008e-05
1.53342e-05
5.07176e-10
1.53363e-05
7.65558e-10
1.53391e-05
-9.30574e-10
1.53425e-05
-4.58124e-09
1.53466e-05
-9.56008e-09
1.53517e-05
-1.57211e-08
1.5358e-05
-2.32264e-08
1.53657e-05
-3.22807e-08
1.53749e-05
-4.30663e-08
1.5386e-05
-5.58532e-08
1.53994e-05
-7.10733e-08
1.54154e-05
-8.93289e-08
1.54346e-05
-1.11378e-07
1.54577e-05
-1.38151e-07
1.54856e-05
-1.70783e-07
1.55194e-05
-2.1067e-07
1.55602e-05
-2.59545e-07
1.56098e-05
-3.1955e-07
1.56701e-05
-3.93404e-07
1.57433e-05
-4.84405e-07
1.58325e-05
-5.9635e-07
1.59415e-05
-7.33899e-07
1.60749e-05
-9.02972e-07
1.62385e-05
-1.11085e-06
1.64394e-05
-1.3664e-06
1.66866e-05
-1.68005e-06
1.69909e-05
-2.06583e-06
1.73674e-05
-2.53349e-06
1.78299e-05
-3.12406e-06
-3.75597e-06
1.84171e-05
1.5334e-05
-1.4671e-10
1.53358e-05
-1.02205e-09
1.53383e-05
-3.4427e-09
1.53414e-05
-7.67632e-09
1.53452e-05
-1.34104e-08
1.535e-05
-2.0514e-08
1.53559e-05
-2.91167e-08
1.53631e-05
-3.94331e-08
1.53717e-05
-5.1696e-08
1.53821e-05
-6.6227e-08
1.53945e-05
-8.35168e-08
1.54094e-05
-1.04245e-07
1.54273e-05
-1.29273e-07
1.54488e-05
-1.59661e-07
1.54747e-05
-1.96698e-07
1.5506e-05
-2.41966e-07
1.55439e-05
-2.97418e-07
1.55898e-05
-3.65474e-07
1.56456e-05
-4.49151e-07
1.57133e-05
-5.52146e-07
1.57958e-05
-6.78857e-07
1.58966e-05
-8.3466e-07
1.60199e-05
-1.02628e-06
1.61711e-05
-1.26201e-06
1.63567e-05
-1.55203e-06
1.65852e-05
-1.90853e-06
1.68669e-05
-2.34755e-06
1.72162e-05
-2.88281e-06
1.76465e-05
-3.55434e-06
-4.30685e-06
1.81974e-05
1.53339e-05
-6.83741e-10
1.53354e-05
-2.51036e-09
1.53376e-05
-5.67594e-09
1.53404e-05
-1.05189e-08
1.5344e-05
-1.69636e-08
1.53484e-05
-2.49416e-08
1.53539e-05
-3.45621e-08
1.53605e-05
-4.60419e-08
1.53684e-05
-5.96539e-08
1.5378e-05
-7.57725e-08
1.53894e-05
-9.4945e-08
1.54031e-05
-1.17921e-07
1.54195e-05
-1.45656e-07
1.54391e-05
-1.79325e-07
1.54628e-05
-2.20358e-07
1.54913e-05
-2.70502e-07
1.55258e-05
-3.31909e-07
1.55676e-05
-4.07245e-07
1.56182e-05
-4.99815e-07
1.56798e-05
-6.1368e-07
1.57547e-05
-7.53757e-07
1.58461e-05
-9.26058e-07
1.59578e-05
-1.13805e-06
1.60948e-05
-1.39896e-06
1.6263e-05
-1.72019e-06
1.647e-05
-2.11555e-06
1.67255e-05
-2.60303e-06
1.70429e-05
-3.2003e-06
1.74351e-05
-3.94654e-06
-4.81367e-06
1.7942e-05
1.53338e-05
-1.12549e-09
1.5335e-05
-3.77073e-09
1.5337e-05
-7.64848e-09
1.53396e-05
-1.3102e-08
1.53428e-05
-2.02101e-08
1.53469e-05
-2.89786e-08
1.53518e-05
-3.95162e-08
1.53578e-05
-5.20417e-08
1.5365e-05
-6.68608e-08
1.53737e-05
-8.43956e-08
1.5384e-05
-1.05245e-07
1.53963e-05
-1.30221e-07
1.5411e-05
-1.60362e-07
1.54286e-05
-1.96945e-07
1.54497e-05
-2.41522e-07
1.54752e-05
-2.95985e-07
1.5506e-05
-3.62664e-07
1.55432e-05
-4.44435e-07
1.55882e-05
-5.44867e-07
1.56429e-05
-6.68346e-07
1.57094e-05
-8.20229e-07
1.57904e-05
-1.00708e-06
1.58894e-05
-1.23703e-06
1.60105e-05
-1.52012e-06
1.61592e-05
-1.86885e-06
1.63421e-05
-2.29851e-06
1.6568e-05
-2.82891e-06
1.68492e-05
-3.48146e-06
1.71974e-05
-4.29475e-06
-5.26804e-06
1.76518e-05
1.53337e-05
-1.49168e-09
1.53348e-05
-4.85481e-09
1.53365e-05
-9.38215e-09
1.53388e-05
-1.54163e-08
1.53417e-05
-2.31302e-08
1.53454e-05
-3.25983e-08
1.53498e-05
-4.39424e-08
1.53551e-05
-5.73855e-08
1.53615e-05
-7.32575e-08
1.53692e-05
-9.20212e-08
1.53782e-05
-1.14322e-07
1.5389e-05
-1.41029e-07
1.54019e-05
-1.73249e-07
1.54173e-05
-2.12346e-07
1.54358e-05
-2.59977e-07
1.5458e-05
-3.18158e-07
1.54847e-05
-3.89367e-07
1.55169e-05
-4.76665e-07
1.55559e-05
-5.83841e-07
1.56031e-05
-7.15564e-07
1.56604e-05
-8.77555e-07
1.57302e-05
-1.07684e-06
1.58152e-05
-1.3221e-06
1.59192e-05
-1.62408e-06
1.60466e-05
-1.99622e-06
1.62031e-05
-2.45507e-06
1.63963e-05
-3.02208e-06
1.66369e-05
-3.72209e-06
1.69354e-05
-4.59318e-06
-5.66129e-06
1.73286e-05
1.53336e-05
-1.80162e-09
1.53346e-05
-5.78774e-09
1.53361e-05
-1.08937e-08
1.53381e-05
-1.74582e-08
1.53407e-05
-2.57109e-08
1.53439e-05
-3.57817e-08
1.53478e-05
-4.78123e-08
1.53524e-05
-6.2032e-08
1.53579e-05
-7.87897e-08
1.53645e-05
-9.85819e-08
1.53723e-05
-1.22095e-07
1.53815e-05
-1.50242e-07
1.53924e-05
-1.84191e-07
1.54055e-05
-2.25375e-07
1.5421e-05
-2.75538e-07
1.54397e-05
-3.36798e-07
1.5462e-05
-4.11751e-07
1.5489e-05
-5.03609e-07
1.55215e-05
-6.16341e-07
1.55608e-05
-7.54843e-07
1.56083e-05
-9.25127e-07
1.56661e-05
-1.13458e-06
1.57363e-05
-1.39232e-06
1.58219e-05
-1.70966e-06
1.59264e-05
-2.10077e-06
1.60546e-05
-2.58323e-06
1.62123e-05
-3.17983e-06
1.64086e-05
-3.91837e-06
1.66519e-05
-4.83646e-06
-5.98484e-06
1.69754e-05
1.53336e-05
-2.06598e-09
1.53344e-05
-6.5873e-09
1.53357e-05
-1.21983e-08
1.53375e-05
-1.92293e-08
1.53397e-05
-2.79433e-08
1.53424e-05
-3.85133e-08
1.53457e-05
-5.1102e-08
1.53496e-05
-6.59477e-08
1.53543e-05
-8.34138e-08
1.53597e-05
-1.04023e-07
1.53661e-05
-1.28493e-07
1.53736e-05
-1.57778e-07
1.53825e-05
-1.93086e-07
1.53931e-05
-2.3591e-07
1.54056e-05
-2.88058e-07
1.54205e-05
-3.51723e-07
1.54384e-05
-4.29597e-07
1.54598e-05
-5.25002e-07
1.54855e-05
-6.42043e-07
1.55164e-05
-7.85787e-07
1.55537e-05
-9.62454e-07
1.55988e-05
-1.17969e-06
1.56535e-05
-1.44694e-06
1.57197e-05
-1.7759e-06
1.58002e-05
-2.18126e-06
1.58983e-05
-2.68134e-06
1.60184e-05
-3.29992e-06
1.61671e-05
-4.06709e-06
1.63505e-05
-5.01987e-06
-6.23076e-06
1.65965e-05
1.53336e-05
-2.29105e-09
1.53342e-05
-7.26776e-09
1.53353e-05
-1.33093e-08
1.53369e-05
-2.07334e-08
1.53387e-05
-2.98228e-08
1.5341e-05
-4.07819e-08
1.53437e-05
-5.37945e-08
1.53469e-05
-6.91079e-08
1.53505e-05
-8.70964e-08
1.53548e-05
-1.08301e-07
1.53598e-05
-1.33466e-07
1.53656e-05
-1.6357e-07
1.53723e-05
-1.99857e-07
1.53803e-05
-2.43855e-07
1.53897e-05
-2.97418e-07
1.54007e-05
-3.62795e-07
1.54139e-05
-4.42737e-07
1.54295e-05
-5.40641e-07
1.54482e-05
-6.60702e-07
1.54705e-05
-8.08094e-07
1.54972e-05
-9.8917e-07
1.55292e-05
-1.21173e-06
1.55677e-05
-1.48541e-06
1.56139e-05
-1.82211e-06
1.56694e-05
-2.23681e-06
1.57363e-05
-2.74824e-06
1.58171e-05
-3.38068e-06
1.59158e-05
-4.16581e-06
1.60356e-05
-5.13966e-06
-6.39238e-06
1.61972e-05
1.53335e-05
-2.4813e-09
1.53341e-05
-7.84085e-09
1.5335e-05
-1.42386e-08
1.53363e-05
-2.1977e-08
1.53378e-05
-3.13486e-08
1.53396e-05
-4.25819e-08
1.53417e-05
-5.5879e-08
1.53441e-05
-7.1496e-08
1.53468e-05
-8.98143e-08
1.53499e-05
-1.11388e-07
1.53534e-05
-1.36975e-07
1.53574e-05
-1.67574e-07
1.5362e-05
-2.04446e-07
1.53673e-05
-2.49141e-07
1.53734e-05
-3.03539e-07
1.53805e-05
-3.69916e-07
1.53888e-05
-4.51054e-07
1.53986e-05
-5.50387e-07
1.541e-05
-6.72151e-07
1.54235e-05
-8.21566e-07
1.54393e-05
-1.00504e-06
1.5458e-05
-1.23041e-06
1.548e-05
-1.50737e-06
1.55057e-05
-1.84786e-06
1.55358e-05
-2.26688e-06
1.55708e-05
-2.78321e-06
1.56112e-05
-3.42114e-06
1.56584e-05
-4.213e-06
1.57122e-05
-5.19337e-06
-6.46487e-06
1.57847e-05
1.53335e-05
-2.64044e-09
1.5334e-05
-8.31696e-09
1.53347e-05
-1.49984e-08
1.53357e-05
-2.29687e-08
1.53369e-05
-3.25243e-08
1.53382e-05
-4.39123e-08
1.53397e-05
-5.73512e-08
1.53413e-05
-7.31039e-08
1.5343e-05
-9.15551e-08
1.53449e-05
-1.13264e-07
1.53469e-05
-1.38999e-07
1.53491e-05
-1.69762e-07
1.53515e-05
-2.06821e-07
1.53541e-05
-2.51731e-07
1.53569e-05
-3.06375e-07
1.536e-05
-3.73032e-07
1.53635e-05
-4.54487e-07
1.53673e-05
-5.54168e-07
1.53714e-05
-6.76307e-07
1.5376e-05
-8.26107e-07
1.53809e-05
-1.00994e-06
1.53861e-05
-1.23562e-06
1.53914e-05
-1.51271e-06
1.53966e-05
-1.85302e-06
1.5401e-05
-2.27133e-06
1.54039e-05
-2.78608e-06
1.54038e-05
-3.42103e-06
1.5399e-05
-4.20824e-06
1.53857e-05
-5.18009e-06
-6.44592e-06
1.53668e-05
1.53335e-05
-2.77205e-09
1.53339e-05
-8.7064e-09
1.53345e-05
-1.56016e-08
1.53352e-05
-2.37198e-08
1.5336e-05
-3.33572e-08
1.53369e-05
-4.47774e-08
1.53378e-05
-5.82134e-08
1.53386e-05
-7.39318e-08
1.53394e-05
-9.23167e-08
1.534e-05
-1.13928e-07
1.53405e-05
-1.39532e-07
1.53409e-05
-1.70128e-07
1.53411e-05
-2.06974e-07
1.5341e-05
-2.51615e-07
1.53405e-05
-3.05916e-07
1.53396e-05
-3.72134e-07
1.53381e-05
-4.53025e-07
1.53359e-05
-5.51978e-07
1.53328e-05
-6.73168e-07
1.53284e-05
-8.21723e-07
1.53224e-05
-1.00391e-06
1.53142e-05
-1.22738e-06
1.5303e-05
-1.5015e-06
1.52877e-05
-1.83774e-06
1.52667e-05
-2.25039e-06
1.52379e-05
-2.75723e-06
1.51977e-05
-3.3809e-06
1.51417e-05
-4.15223e-06
1.50623e-05
-5.10066e-06
-6.33609e-06
1.49525e-05
1.53334e-05
-2.87997e-09
1.53338e-05
-9.02042e-09
1.53342e-05
-1.60633e-08
1.53347e-05
-2.42443e-08
1.53352e-05
-3.38583e-08
1.53356e-05
-4.51864e-08
1.53359e-05
-5.84743e-08
1.5336e-05
-7.39883e-08
1.53358e-05
-9.21078e-08
1.53352e-05
-1.13387e-07
1.53343e-05
-1.38584e-07
1.53328e-05
-1.68684e-07
1.53308e-05
-2.04922e-07
1.5328e-05
-2.48813e-07
1.53242e-05
-3.02187e-07
1.53194e-05
-3.67255e-07
1.5313e-05
-4.46714e-07
1.53049e-05
-5.43875e-07
1.52946e-05
-6.62813e-07
1.52814e-05
-8.08521e-07
1.52646e-05
-9.87091e-07
1.52431e-05
-1.20593e-06
1.52157e-05
-1.47404e-06
1.51804e-05
-1.80244e-06
1.51346e-05
-2.20468e-06
1.5075e-05
-2.69753e-06
1.49961e-05
-3.30203e-06
1.48907e-05
-4.04685e-06
1.47478e-05
-4.95775e-06
-6.13917e-06
1.45509e-05
1.53334e-05
-2.96867e-09
1.53337e-05
-9.27221e-09
1.5334e-05
-1.6401e-08
1.53343e-05
-2.4559e-08
1.53345e-05
-3.40424e-08
1.53345e-05
-4.51537e-08
1.53341e-05
-5.81495e-08
1.53335e-05
-7.32905e-08
1.53323e-05
-9.09473e-08
1.53306e-05
-1.11664e-07
1.53282e-05
-1.36183e-07
1.53249e-05
-1.65462e-07
1.53207e-05
-2.00702e-07
1.53153e-05
-2.43374e-07
1.53083e-05
-2.9525e-07
1.52996e-05
-3.58473e-07
1.52885e-05
-4.3565e-07
1.52746e-05
-5.29982e-07
1.52572e-05
-6.454e-07
1.52354e-05
-7.86708e-07
1.5208e-05
-9.5975e-07
1.51737e-05
-1.1716e-06
1.51305e-05
-1.43083e-06
1.50759e-05
-1.7478e-06
1.50064e-05
-2.13517e-06
1.49172e-05
-2.60839e-06
1.48016e-05
-3.18646e-06
1.46499e-05
-3.89509e-06
1.44479e-05
-4.75577e-06
-5.86204e-06
1.41708e-05
1.53334e-05
-3.04368e-09
1.53336e-05
-9.47821e-09
1.53338e-05
-1.66359e-08
1.5334e-05
-2.4684e-08
1.53339e-05
-3.39275e-08
1.53334e-05
-4.46985e-08
1.53325e-05
-5.72609e-08
1.53311e-05
-7.18633e-08
1.5329e-05
-8.88643e-08
1.53261e-05
-1.08794e-07
1.53223e-05
-1.3237e-07
1.53174e-05
-1.60514e-07
1.5311e-05
-1.94379e-07
1.5303e-05
-2.35375e-07
1.5293e-05
-2.852e-07
1.52804e-05
-3.45904e-07
1.52648e-05
-4.19981e-07
1.52453e-05
-5.10485e-07
1.5221e-05
-6.21162e-07
1.51909e-05
-7.5658e-07
1.51534e-05
-9.22275e-07
1.51067e-05
-1.12492e-06
1.50484e-05
-1.37254e-06
1.49754e-05
-1.67475e-06
1.48833e-05
-2.04312e-06
1.47666e-05
-2.4916e-06
1.46169e-05
-3.03682e-06
1.44227e-05
-3.7009e-06
1.41677e-05
-4.50069e-06
-5.5144e-06
1.382e-05
1.53334e-05
-3.11218e-09
1.53336e-05
-9.65994e-09
1.53337e-05
-1.67946e-08
1.53337e-05
-2.46422e-08
1.53333e-05
-3.35343e-08
1.53325e-05
-4.38448e-08
1.5331e-05
-5.58364e-08
1.53289e-05
-6.97389e-08
1.53259e-05
-8.5897e-08
1.5322e-05
-1.04823e-07
1.53168e-05
-1.27202e-07
1.53102e-05
-1.53909e-07
1.53018e-05
-1.86037e-07
1.52914e-05
-2.2492e-07
1.52784e-05
-2.72164e-07
1.52622e-05
-3.29708e-07
1.52421e-05
-3.99903e-07
1.52172e-05
-4.85628e-07
1.51865e-05
-5.90405e-07
1.51484e-05
-7.18522e-07
1.51013e-05
-8.75154e-07
1.50429e-05
-1.06651e-06
1.49703e-05
-1.29999e-06
1.488e-05
-1.58439e-06
1.4767e-05
-1.9301e-06
1.46247e-05
-2.34936e-06
1.44442e-05
-2.85626e-06
1.42122e-05
-3.46899e-06
1.39112e-05
-4.19963e-06
-5.10808e-06
1.35049e-05
1.53334e-05
-3.18449e-09
1.53336e-05
-9.84633e-09
1.53337e-05
-1.6904e-08
1.53335e-05
-2.44528e-08
1.53329e-05
-3.28904e-08
1.53316e-05
-4.26293e-08
1.53297e-05
-5.39138e-08
1.53269e-05
-6.69567e-08
1.53231e-05
-8.20917e-08
1.53181e-05
-9.98077e-08
1.53117e-05
-1.20749e-07
1.53035e-05
-1.45734e-07
1.52932e-05
-1.75782e-07
1.52805e-05
-2.12139e-07
1.52646e-05
-2.56304e-07
1.5245e-05
-3.10081e-07
1.52207e-05
-3.75657e-07
1.51908e-05
-4.55708e-07
1.51539e-05
-5.53499e-07
1.51084e-05
-6.72998e-07
1.50522e-05
-8.18974e-07
1.49828e-05
-9.9712e-07
1.4897e-05
-1.21417e-06
1.47906e-05
-1.47803e-06
1.46584e-05
-1.79784e-06
1.44931e-05
-2.18409e-06
1.42851e-05
-2.64828e-06
1.40206e-05
-3.20451e-06
1.36815e-05
-3.86045e-06
-4.65615e-06
1.32295e-05
1.53334e-05
-3.27562e-09
1.53337e-05
-1.00774e-08
1.53338e-05
-1.70009e-08
1.53334e-05
-2.4147e-08
1.53326e-05
-3.20262e-08
1.5331e-05
-4.10781e-08
1.53286e-05
-5.1526e-08
1.53252e-05
-6.35627e-08
1.53207e-05
-7.75067e-08
1.53147e-05
-9.38187e-08
1.5307e-05
-1.13096e-07
1.52974e-05
-1.36091e-07
1.52853e-05
-1.63741e-07
1.52704e-05
-1.97187e-07
1.52519e-05
-2.37807e-07
1.52291e-05
-2.87252e-07
1.52009e-05
-3.47527e-07
1.51663e-05
-4.21075e-07
1.51237e-05
-5.10878e-07
1.50712e-05
-6.20546e-07
1.50067e-05
-7.54408e-07
1.49271e-05
-9.17602e-07
1.48291e-05
-1.11616e-06
1.47082e-05
-1.35708e-06
1.45586e-05
-1.64825e-06
1.43729e-05
-1.99838e-06
1.41411e-05
-2.41651e-06
1.38494e-05
-2.91279e-06
1.34801e-05
-3.49115e-06
-4.17191e-06
1.29959e-05
1.53335e-05
-3.41079e-09
1.53338e-05
-1.04072e-08
1.53339e-05
-1.71387e-08
1.53335e-05
-2.37535e-08
1.53325e-05
-3.09567e-08
1.53306e-05
-3.92254e-08
1.53278e-05
-4.87189e-08
1.53239e-05
-5.96088e-08
1.53186e-05
-7.22067e-08
1.53117e-05
-8.69373e-08
1.53029e-05
-1.04342e-07
1.52919e-05
-1.25101e-07
1.52782e-05
-1.50058e-07
1.52613e-05
-1.80241e-07
1.52404e-05
-2.16889e-07
1.52146e-05
-2.61487e-07
1.51829e-05
-3.15836e-07
1.5144e-05
-3.82127e-07
1.50961e-05
-4.63029e-07
1.50373e-05
-5.61766e-07
1.49651e-05
-6.82197e-07
1.48764e-05
-8.28881e-07
1.47674e-05
-1.00713e-06
1.46334e-05
-1.22305e-06
1.44684e-05
-1.48331e-06
1.42649e-05
-1.79488e-06
1.4013e-05
-2.16458e-06
1.36992e-05
-2.59901e-06
1.33074e-05
-3.09931e-06
-3.66782e-06
1.28033e-05
1.53336e-05
-3.63379e-09
1.53341e-05
-1.09151e-08
1.53343e-05
-1.73544e-08
1.53338e-05
-2.32941e-08
1.53326e-05
-2.9726e-08
1.53305e-05
-3.71137e-08
1.53273e-05
-4.55353e-08
1.53228e-05
-5.51497e-08
1.53169e-05
-6.62611e-08
1.53092e-05
-7.92476e-08
1.52994e-05
-9.45907e-08
1.52872e-05
-1.12893e-07
1.52721e-05
-1.34893e-07
1.52533e-05
-1.61496e-07
1.52302e-05
-1.9379e-07
1.52018e-05
-2.3308e-07
1.51669e-05
-2.80944e-07
1.51241e-05
-3.39302e-07
1.50716e-05
-4.10489e-07
1.50071e-05
-4.97319e-07
1.49281e-05
-6.03153e-07
1.48311e-05
-7.31953e-07
1.47123e-05
-8.88314e-07
1.45668e-05
-1.0775e-06
1.43885e-05
-1.30503e-06
1.41698e-05
-1.57619e-06
1.39012e-05
-1.89593e-06
1.357e-05
-2.26782e-06
1.31623e-05
-2.69161e-06
-3.15465e-06
1.26491e-05
1.53337e-05
-4.0192e-09
1.53345e-05
-1.1715e-08
1.53348e-05
-1.76775e-08
1.53343e-05
-2.27881e-08
1.5333e-05
-2.83806e-08
1.53307e-05
-3.47959e-08
1.53272e-05
-4.20294e-08
1.53223e-05
-5.02523e-08
1.53158e-05
-5.97537e-08
1.53074e-05
-7.08501e-08
1.52967e-05
-8.39644e-08
1.52835e-05
-9.96145e-08
1.5267e-05
-1.18426e-07
1.52467e-05
-1.41169e-07
1.52216e-05
-1.68773e-07
1.51909e-05
-2.02348e-07
1.51532e-05
-2.43238e-07
1.5107e-05
-2.93073e-07
1.50503e-05
-3.53834e-07
1.49809e-05
-4.27903e-07
1.48959e-05
-5.18127e-07
1.47918e-05
-6.2785e-07
1.46644e-05
-7.60963e-07
1.45089e-05
-9.21995e-07
1.43193e-05
-1.11538e-06
1.40879e-05
-1.34479e-06
1.38057e-05
-1.61374e-06
1.34612e-05
-1.92335e-06
1.30434e-05
-2.27384e-06
-2.64116e-06
1.253e-05
1.5334e-05
-4.70651e-09
1.53353e-05
-1.29795e-08
1.53357e-05
-1.8102e-08
1.53352e-05
-2.22474e-08
1.53337e-05
-2.69563e-08
1.53312e-05
-3.23015e-08
1.53275e-05
-3.82398e-08
1.53222e-05
-4.49758e-08
1.53152e-05
-5.27635e-08
1.53062e-05
-6.18418e-08
1.52948e-05
-7.25894e-08
1.52806e-05
-8.54224e-08
1.5263e-05
-1.00847e-07
1.52414e-05
-1.19494e-07
1.52147e-05
-1.42123e-07
1.5182e-05
-1.6964e-07
1.51419e-05
-2.03142e-07
1.50928e-05
-2.43955e-07
1.50326e-05
-2.9369e-07
1.4959e-05
-3.54279e-07
1.48689e-05
-4.28039e-07
1.47588e-05
-5.17677e-07
1.46242e-05
-6.2639e-07
1.44604e-05
-7.58166e-07
1.42614e-05
-9.1646e-07
1.402e-05
-1.10336e-06
1.37277e-05
-1.32147e-06
1.33743e-05
-1.56993e-06
1.29527e-05
-1.8522e-06
-2.13389e-06
1.24454e-05
1.53346e-05
-5.94675e-09
1.53365e-05
-1.49396e-08
1.53371e-05
-1.86323e-08
1.53366e-05
-2.17603e-08
1.53351e-05
-2.55218e-08
1.53325e-05
-2.96706e-08
1.53285e-05
-3.42189e-08
1.53229e-05
-3.94e-08
1.53155e-05
-4.5388e-08
1.5306e-05
-5.23254e-08
1.5294e-05
-6.05988e-08
1.52791e-05
-7.04823e-08
1.52606e-05
-8.2362e-08
1.52378e-05
-9.6725e-08
1.52099e-05
-1.14152e-07
1.51756e-05
-1.35339e-07
1.51335e-05
-1.61128e-07
1.50821e-05
-1.92533e-07
1.50192e-05
-2.30784e-07
1.49423e-05
-2.77346e-07
1.48482e-05
-3.34001e-07
1.47334e-05
-4.02805e-07
1.45933e-05
-4.86321e-07
1.44235e-05
-5.8837e-07
1.42185e-05
-7.11422e-07
1.3971e-05
-8.55913e-07
1.36737e-05
-1.0241e-06
1.33167e-05
-1.21297e-06
1.28976e-05
-1.43307e-06
-1.6338e-06
1.23975e-05
1.53356e-05
-8.22997e-09
1.53382e-05
-1.75184e-08
1.53388e-05
-1.91994e-08
1.53385e-05
-2.14629e-08
1.53371e-05
-2.41279e-08
1.53343e-05
-2.69438e-08
1.53301e-05
-3.00225e-08
1.53243e-05
-3.35997e-08
1.53167e-05
-3.77478e-08
1.53068e-05
-4.24408e-08
1.52944e-05
-4.81624e-08
1.52789e-05
-5.49938e-08
1.52597e-05
-6.32153e-08
1.52362e-05
-7.31634e-08
1.52073e-05
-8.52361e-08
1.51718e-05
-9.99175e-08
1.51285e-05
-1.17794e-07
1.50756e-05
-1.39574e-07
1.50109e-05
-1.66112e-07
1.4932e-05
-1.98433e-07
1.48358e-05
-2.37789e-07
1.47186e-05
-2.85597e-07
1.45762e-05
-3.4394e-07
1.44044e-05
-4.16591e-07
1.41972e-05
-5.04273e-07
1.39472e-05
-6.05912e-07
1.36471e-05
-7.23918e-07
1.32875e-05
-8.53433e-07
1.28666e-05
-1.01212e-06
-1.12002e-06
1.23528e-05
1.53393e-05
-1.42335e-08
1.53418e-05
-2.00225e-08
1.5342e-05
-1.9322e-08
1.53409e-05
-2.04376e-08
1.53387e-05
-2.19391e-08
1.53352e-05
-2.34049e-08
1.53302e-05
-2.49812e-08
1.53234e-05
-2.68481e-08
1.53147e-05
-2.90188e-08
1.53037e-05
-3.1421e-08
1.52899e-05
-3.44304e-08
1.5273e-05
-3.80306e-08
1.52521e-05
-4.2384e-08
1.52267e-05
-4.76823e-08
1.51956e-05
-5.41507e-08
1.51577e-05
-6.20665e-08
1.51117e-05
-7.17679e-08
1.50558e-05
-8.36657e-08
1.49879e-05
-9.82574e-08
1.49056e-05
-1.16147e-07
1.48059e-05
-1.38043e-07
1.46851e-05
-1.64798e-07
1.45382e-05
-1.97069e-07
1.43562e-05
-2.34593e-07
1.41314e-05
-2.79445e-07
1.38594e-05
-3.33957e-07
1.3533e-05
-3.97451e-07
1.31473e-05
-4.67706e-07
1.26873e-05
-5.52144e-07
-5.31565e-07
1.20988e-05
1.53191e-05
1.52991e-05
1.52798e-05
1.52593e-05
1.52374e-05
1.5214e-05
1.5189e-05
1.51621e-05
1.51331e-05
1.51017e-05
1.50673e-05
1.50292e-05
1.49869e-05
1.49392e-05
1.4885e-05
1.4823e-05
1.47512e-05
1.46675e-05
1.45693e-05
1.44531e-05
1.43151e-05
1.41503e-05
1.39532e-05
1.37186e-05
1.34392e-05
1.31052e-05
1.27078e-05
1.22401e-05
1.16879e-05
1.11564e-05
1.8489e-05
-8.64438e-06
8.89966e-06
1.82655e-05
-8.82513e-06
9.04871e-06
1.80039e-05
-9.00751e-06
9.2691e-06
1.77063e-05
-9.18178e-06
9.47935e-06
1.73785e-05
-9.35659e-06
9.68436e-06
1.70269e-05
-9.53685e-06
9.88851e-06
1.66552e-05
-9.72441e-06
1.00961e-05
1.62658e-05
-9.92039e-06
1.03098e-05
1.58599e-05
-1.01257e-05
1.05316e-05
1.54377e-05
-1.03411e-05
1.07633e-05
1.49984e-05
-1.05667e-05
1.1006e-05
1.4541e-05
-1.08029e-05
1.12603e-05
1.40643e-05
-1.10503e-05
1.1527e-05
1.35674e-05
-1.13101e-05
1.18071e-05
1.3049e-05
-1.15836e-05
1.2102e-05
1.2508e-05
-1.18727e-05
1.24137e-05
1.19429e-05
-1.21795e-05
1.27446e-05
1.1352e-05
-1.25068e-05
1.30977e-05
1.07331e-05
-1.28579e-05
1.34769e-05
1.00831e-05
-1.32366e-05
1.38866e-05
9.39835e-06
-1.3648e-05
1.43328e-05
8.67411e-06
-1.40983e-05
1.48226e-05
7.904e-06
-1.45951e-05
1.53652e-05
7.07984e-06
-1.51482e-05
1.59724e-05
6.18941e-06
-1.57698e-05
1.66603e-05
5.22026e-06
-1.6475e-05
1.74442e-05
4.15276e-06
-1.72855e-05
1.8353e-05
2.91165e-06
-1.82397e-05
1.94808e-05
1.63435e-06
-1.9229e-05
2.05063e-05
-2.086e-05
2.24943e-05
1.86721e-05
-8.38198e-06
1.83719e-05
-8.52493e-06
1.80413e-05
-8.6769e-06
1.76914e-05
-8.83185e-06
1.73273e-05
-8.99249e-06
1.69514e-05
-9.16091e-06
1.65642e-05
-9.33728e-06
1.61653e-05
-9.52148e-06
1.57533e-05
-9.71372e-06
1.53265e-05
-9.91428e-06
1.48834e-05
-1.01236e-05
1.44227e-05
-1.03422e-05
1.39435e-05
-1.05711e-05
1.34448e-05
-1.08114e-05
1.29257e-05
-1.10645e-05
1.23849e-05
-1.13319e-05
1.18211e-05
-1.16157e-05
1.12322e-05
-1.19179e-05
1.06158e-05
-1.22415e-05
9.96908e-06
-1.25899e-05
9.28816e-06
-1.29671e-05
8.56821e-06
-1.33784e-05
7.80294e-06
-1.38299e-05
6.98412e-06
-1.43294e-05
6.10086e-06
-1.48866e-05
5.13922e-06
-1.55134e-05
4.07872e-06
-1.6225e-05
2.8832e-06
-1.70441e-05
1.58626e-06
-1.7932e-05
-1.92737e-05
1.85469e-05
-8.07195e-06
1.82203e-05
-8.19835e-06
1.78789e-05
-8.33552e-06
1.75274e-05
-8.48035e-06
1.71666e-05
-8.63171e-06
1.67951e-05
-8.7894e-06
1.64113e-05
-8.95344e-06
1.60138e-05
-9.124e-06
1.56015e-05
-9.30147e-06
1.51736e-05
-9.48639e-06
1.47295e-05
-9.67939e-06
1.42684e-05
-9.88117e-06
1.37899e-05
-1.00925e-05
1.3293e-05
-1.03145e-05
1.27766e-05
-1.05481e-05
1.22394e-05
-1.07947e-05
1.16797e-05
-1.10559e-05
1.10955e-05
-1.13337e-05
1.04843e-05
-1.16304e-05
9.84308e-06
-1.19487e-05
9.16803e-06
-1.22921e-05
8.45426e-06
-1.26646e-05
7.69552e-06
-1.30711e-05
6.88373e-06
-1.35176e-05
6.00841e-06
-1.40112e-05
5.0558e-06
-1.45608e-05
4.00759e-06
-1.51768e-05
2.83651e-06
-1.58731e-05
1.54099e-06
-1.66365e-05
-1.77327e-05
1.84261e-05
-7.7496e-06
1.80932e-05
-7.86541e-06
1.77485e-05
-7.9908e-06
1.7393e-05
-8.12491e-06
1.70267e-05
-8.2654e-06
1.66485e-05
-8.41114e-06
1.62574e-05
-8.56237e-06
1.58531e-05
-8.71968e-06
1.54351e-05
-8.88351e-06
1.5003e-05
-9.05431e-06
1.45562e-05
-9.23254e-06
1.40938e-05
-9.41877e-06
1.36149e-05
-9.61369e-06
1.31185e-05
-9.81808e-06
1.26033e-05
-1.00329e-05
1.20679e-05
-1.02593e-05
1.15106e-05
-1.04986e-05
1.09294e-05
-1.07525e-05
1.03218e-05
-1.10228e-05
9.6848e-06
-1.13117e-05
9.0145e-06
-1.16218e-05
8.30612e-06
-1.19562e-05
7.55359e-06
-1.23186e-05
6.74918e-06
-1.27132e-05
5.88293e-06
-1.3145e-05
4.94207e-06
-1.36199e-05
3.90986e-06
-1.41446e-05
2.76437e-06
-1.47276e-05
1.48876e-06
-1.53609e-05
-1.6244e-05
1.82681e-05
-7.41693e-06
1.79261e-05
-7.5234e-06
1.75735e-05
-7.63822e-06
1.72107e-05
-7.76208e-06
1.68376e-05
-7.89224e-06
1.64534e-05
-8.02702e-06
1.60578e-05
-8.16668e-06
1.565e-05
-8.31192e-06
1.52296e-05
-8.46312e-06
1.47959e-05
-8.62058e-06
1.4348e-05
-8.78468e-06
1.38852e-05
-8.95592e-06
1.34064e-05
-9.13493e-06
1.29107e-05
-9.32237e-06
1.23969e-05
-9.51907e-06
1.18635e-05
-9.72593e-06
1.13089e-05
-9.94404e-06
1.0731e-05
-1.01746e-05
1.01274e-05
-1.04192e-05
9.49498e-06
-1.06793e-05
8.83004e-06
-1.09568e-05
8.12791e-06
-1.12541e-05
7.38277e-06
-1.15734e-05
6.58733e-06
-1.19178e-05
5.73228e-06
-1.22899e-05
4.80599e-06
-1.26936e-05
3.79324e-06
-1.31318e-05
2.67487e-06
-1.36092e-05
1.42973e-06
-1.41157e-05
-1.48142e-05
1.80759e-05
-7.07582e-06
1.77264e-05
-7.17385e-06
1.73674e-05
-7.27917e-06
1.69988e-05
-7.39356e-06
1.66206e-05
-7.51396e-06
1.62319e-05
-7.63838e-06
1.58323e-05
-7.76705e-06
1.54211e-05
-7.90073e-06
1.49978e-05
-8.03981e-06
1.45617e-05
-8.18449e-06
1.41121e-05
-8.3351e-06
1.36483e-05
-8.49207e-06
1.31693e-05
-8.65591e-06
1.2674e-05
-8.82716e-06
1.21614e-05
-9.00643e-06
1.16299e-05
-9.19444e-06
1.10779e-05
-9.392e-06
1.05032e-05
-9.60001e-06
9.9036e-06
-9.81951e-06
9.27598e-06
-1.00516e-05
8.61677e-06
-1.02976e-05
7.92155e-06
-1.05589e-05
7.18482e-06
-1.08367e-05
6.39983e-06
-1.11328e-05
5.55804e-06
-1.14482e-05
4.649e-06
-1.17846e-05
3.65897e-06
-1.21418e-05
2.57152e-06
-1.25217e-05
1.36508e-06
-1.29093e-05
-1.34491e-05
1.78487e-05
-6.72718e-06
1.74923e-05
-6.81746e-06
1.71272e-05
-6.91406e-06
1.67532e-05
-7.01951e-06
1.63699e-05
-7.13065e-06
1.59767e-05
-7.24524e-06
1.55732e-05
-7.36352e-06
1.51588e-05
-7.4863e-06
1.47329e-05
-7.61392e-06
1.42949e-05
-7.74653e-06
1.38442e-05
-7.88435e-06
1.33798e-05
-8.02773e-06
1.2901e-05
-8.17706e-06
1.24066e-05
-8.33276e-06
1.18954e-05
-8.49527e-06
1.13661e-05
-8.6651e-06
1.08169e-05
-8.84282e-06
1.02459e-05
-9.02902e-06
9.65074e-06
-9.22435e-06
9.02858e-06
-9.42947e-06
8.376e-06
-9.64504e-06
7.68883e-06
-9.87169e-06
6.96201e-06
-1.01099e-05
6.18936e-06
-1.03601e-05
5.36318e-06
-1.0622e-05
4.47421e-06
-1.08956e-05
3.51031e-06
-1.11779e-05
2.45769e-06
-1.14691e-05
1.29634e-06
-1.1748e-05
-1.21528e-05
1.75865e-05
-6.37176e-06
1.7224e-05
-6.45493e-06
1.68534e-05
-6.54347e-06
1.64744e-05
-6.64053e-06
1.60867e-05
-6.7429e-06
1.56897e-05
-6.84823e-06
1.52829e-05
-6.95673e-06
1.48658e-05
-7.0692e-06
1.44378e-05
-7.18597e-06
1.39984e-05
-7.30709e-06
1.35468e-05
-7.43273e-06
1.30822e-05
-7.56315e-06
1.26038e-05
-7.69862e-06
1.21104e-05
-7.83943e-06
1.16011e-05
-7.98588e-06
1.10742e-05
-8.13828e-06
1.05284e-05
-8.29696e-06
9.96158e-06
-8.46222e-06
9.3716e-06
-8.63437e-06
8.75576e-06
-8.81363e-06
8.11086e-06
-9.00015e-06
7.43308e-06
-9.19391e-06
6.71781e-06
-9.39462e-06
5.95947e-06
-9.60177e-06
5.15128e-06
-9.81379e-06
4.28518e-06
-1.00295e-05
3.35066e-06
-1.02434e-05
2.33649e-06
-1.0455e-05
1.22512e-06
-1.06366e-05
-1.09277e-05
1.72903e-05
-6.01029e-06
1.69223e-05
-6.08691e-06
1.65469e-05
-6.16804e-06
1.61636e-05
-6.25722e-06
1.57719e-05
-6.35129e-06
1.53716e-05
-6.44788e-06
1.4962e-05
-6.54716e-06
1.45427e-05
-6.64991e-06
1.41132e-05
-6.75641e-06
1.36727e-05
-6.86665e-06
1.32207e-05
-6.98073e-06
1.27564e-05
-7.09882e-06
1.22789e-05
-7.22111e-06
1.17872e-05
-7.34774e-06
1.12802e-05
-7.47887e-06
1.07565e-05
-7.61463e-06
1.02147e-05
-7.75513e-06
9.65294e-06
-7.90043e-06
9.06907e-06
-8.05051e-06
8.46066e-06
-8.20522e-06
7.82477e-06
-8.36425e-06
7.15791e-06
-8.52706e-06
6.45599e-06
-8.69269e-06
5.71407e-06
-8.85986e-06
4.92627e-06
-9.02599e-06
4.08571e-06
-9.18893e-06
3.18352e-06
-9.34118e-06
2.21089e-06
-9.48233e-06
1.15289e-06
-9.57858e-06
-9.7748e-06
1.69618e-05
-5.64352e-06
1.65891e-05
-5.71413e-06
1.62095e-05
-5.78846e-06
1.58225e-05
-5.87024e-06
1.54277e-05
-5.95648e-06
1.50247e-05
-6.04485e-06
1.4613e-05
-6.13546e-06
1.41921e-05
-6.22905e-06
1.37615e-05
-6.32585e-06
1.33207e-05
-6.42582e-06
1.2869e-05
-6.52897e-06
1.24055e-05
-6.6354e-06
1.19296e-05
-6.74518e-06
1.14402e-05
-6.85836e-06
1.09363e-05
-6.97496e-06
1.04166e-05
-7.09494e-06
9.87971e-06
-7.21823e-06
9.32392e-06
-7.34464e-06
8.74729e-06
-7.47388e-06
8.14758e-06
-7.6055e-06
7.52212e-06
-7.7388e-06