/*--------------------------------*- C++ -*----------------------------------*\
  =========                 |
  \\      /  F ield         | OpenFOAM: The Open Source CFD Toolbox
   \\    /   O peration     | Website:  https://openfoam.org
    \\  /    A nd           | Version:  11
     \\/     M anipulation  |
\*---------------------------------------------------------------------------*/
FoamFile
{
    format      ascii;
    class       surfaceScalarField;
    location    "6";
    object      phi;
}
// * * * * * * * * * * * * * * * * * * * * * * * * * * * * * * * * * * * * * //

dimensions      [0 3 -1 0 0 0 0];

internalField   nonuniform List<scalar> 
24840
(
1.92404e-05
7.77773e-09
1.92307e-05
9.64691e-09
1.92223e-05
8.36382e-09
1.92156e-05
6.72988e-09
1.92109e-05
4.68543e-09
1.92086e-05
2.29273e-09
1.92093e-05
-6.42541e-10
1.92134e-05
-4.11987e-09
1.92214e-05
-7.98885e-09
1.92335e-05
-1.21537e-08
1.92504e-05
-1.68507e-08
1.92725e-05
-2.2108e-08
1.93004e-05
-2.79254e-08
1.93349e-05
-3.44257e-08
1.93766e-05
-4.17572e-08
1.94267e-05
-5.00977e-08
1.94864e-05
-5.96647e-08
1.95571e-05
-7.07182e-08
1.96407e-05
-8.35623e-08
1.97392e-05
-9.85458e-08
1.98553e-05
-1.16058e-07
1.99918e-05
-1.36522e-07
2.01521e-05
-1.60351e-07
2.03401e-05
-1.87969e-07
2.056e-05
-2.19921e-07
2.08163e-05
-2.56326e-07
2.11146e-05
-2.98256e-07
2.14548e-05
-3.40223e-07
2.18582e-05
-4.03327e-07
-3.81295e-07
2.22394e-05
1.92521e-05
3.79542e-09
1.92558e-05
5.9442e-09
1.92598e-05
4.40815e-09
1.92647e-05
1.79663e-09
1.92712e-05
-1.84716e-09
1.92799e-05
-6.36239e-09
1.92913e-05
-1.20308e-08
1.93059e-05
-1.87473e-08
1.93244e-05
-2.64339e-08
1.93472e-05
-3.5012e-08
1.93748e-05
-4.44306e-08
1.94075e-05
-5.47985e-08
1.94459e-05
-6.63218e-08
1.94906e-05
-7.91414e-08
1.95423e-05
-9.34317e-08
1.96016e-05
-1.09451e-07
1.96695e-05
-1.27573e-07
1.97471e-05
-1.48307e-07
1.98358e-05
-1.72289e-07
1.99376e-05
-2.00251e-07
2.00545e-05
-2.33002e-07
2.01894e-05
-2.7141e-07
2.03454e-05
-3.1638e-07
2.05263e-05
-3.68839e-07
2.07361e-05
-4.29767e-07
2.09795e-05
-4.99742e-07
2.12616e-05
-5.80347e-07
2.15872e-05
-6.65786e-07
2.19643e-05
-7.80448e-07
-8.06266e-07
2.23893e-05
1.92501e-05
1.82371e-09
1.9253e-05
3.02447e-09
1.92565e-05
9.13587e-10
1.92612e-05
-2.89987e-09
1.92677e-05
-8.33606e-09
1.92765e-05
-1.51353e-08
1.92879e-05
-2.34695e-08
1.93025e-05
-3.32998e-08
1.93206e-05
-4.45426e-08
1.93427e-05
-5.71339e-08
1.93693e-05
-7.10601e-08
1.9401e-05
-8.64199e-08
1.9438e-05
-1.03399e-07
1.94811e-05
-1.2221e-07
1.95308e-05
-1.4313e-07
1.95879e-05
-1.66555e-07
1.96534e-05
-1.9304e-07
1.97284e-05
-2.23317e-07
1.98144e-05
-2.5829e-07
1.99131e-05
-2.99018e-07
2.00268e-05
-3.46689e-07
2.0158e-05
-4.02612e-07
2.03099e-05
-4.68199e-07
2.04859e-05
-5.44928e-07
2.06905e-05
-6.3437e-07
2.09284e-05
-7.37624e-07
2.12052e-05
-8.57094e-07
2.15263e-05
-9.86897e-07
2.18988e-05
-1.15301e-06
-1.2393e-06
2.23319e-05
1.92492e-05
7.4012e-10
1.92516e-05
6.41937e-10
1.92547e-05
-2.18276e-09
1.92591e-05
-7.32656e-09
1.92653e-05
-1.44881e-08
1.92737e-05
-2.35108e-08
1.92846e-05
-3.44541e-08
1.92986e-05
-4.73091e-08
1.93161e-05
-6.20006e-08
1.93374e-05
-7.84746e-08
1.93631e-05
-9.67388e-08
1.93936e-05
-1.16885e-07
1.94293e-05
-1.39088e-07
1.94707e-05
-1.63609e-07
1.95184e-05
-1.90829e-07
1.95731e-05
-2.21295e-07
1.96358e-05
-2.55748e-07
1.97076e-05
-2.95138e-07
1.979e-05
-3.40628e-07
1.98845e-05
-3.9358e-07
1.99934e-05
-4.55558e-07
2.01191e-05
-5.28313e-07
2.02647e-05
-6.13784e-07
2.04338e-05
-7.14047e-07
2.06308e-05
-8.31346e-07
2.08607e-05
-9.67495e-07
2.11292e-05
-1.12568e-06
2.14434e-05
-1.30101e-06
2.18092e-05
-1.51885e-06
-1.67179e-06
2.22417e-05
1.92488e-05
4.70123e-11
1.92506e-05
-1.1792e-09
1.92534e-05
-4.94758e-09
1.92575e-05
-1.13687e-08
1.92632e-05
-2.02319e-08
1.92711e-05
-3.14049e-08
1.92815e-05
-4.48745e-08
1.92948e-05
-6.06265e-08
1.93114e-05
-7.86045e-08
1.93317e-05
-9.87651e-08
1.93561e-05
-1.21122e-07
1.9385e-05
-1.45769e-07
1.94188e-05
-1.72895e-07
1.9458e-05
-2.0281e-07
1.95032e-05
-2.35983e-07
1.95549e-05
-2.73083e-07
1.96142e-05
-3.15016e-07
1.9682e-05
-3.62937e-07
1.97596e-05
-4.18262e-07
1.98487e-05
-4.82666e-07
1.99513e-05
-5.58087e-07
2.00697e-05
-6.46728e-07
2.0207e-05
-7.51067e-07
2.03667e-05
-8.7382e-07
2.05534e-05
-1.01797e-06
2.07721e-05
-1.18623e-06
2.1029e-05
-1.38264e-06
2.1332e-05
-1.60396e-06
2.16874e-05
-1.87429e-06
-2.09698e-06
2.21126e-05
1.92486e-05
-4.66167e-10
1.92501e-05
-2.5974e-09
1.92525e-05
-7.39654e-09
1.92562e-05
-1.50887e-08
1.92616e-05
-2.55892e-08
1.9269e-05
-3.87842e-08
1.92787e-05
-5.4628e-08
1.92912e-05
-7.30996e-08
1.93068e-05
-9.41574e-08
1.93258e-05
-1.17766e-07
1.93486e-05
-1.43939e-07
1.93756e-05
-1.7277e-07
1.94071e-05
-2.04461e-07
1.94437e-05
-2.39364e-07
1.94857e-05
-2.78021e-07
1.95339e-05
-3.21218e-07
1.95889e-05
-3.70014e-07
1.96517e-05
-4.2576e-07
1.97235e-05
-4.9011e-07
1.98059e-05
-5.65035e-07
1.99006e-05
-6.52831e-07
2.00101e-05
-7.56148e-07
2.0137e-05
-8.78008e-07
2.0285e-05
-1.0218e-06
2.04584e-05
-1.19133e-06
2.06625e-05
-1.39035e-06
2.09038e-05
-1.62396e-06
2.11909e-05
-1.89103e-06
2.1531e-05
-2.2144e-06
-2.5106e-06
2.19446e-05
1.92485e-05
-8.43878e-10
1.92497e-05
-3.76439e-09
1.92518e-05
-9.56343e-09
1.92552e-05
-1.84686e-08
1.92601e-05
-3.04924e-08
1.92669e-05
-4.55548e-08
1.92759e-05
-6.35976e-08
1.92874e-05
-8.45872e-08
1.93017e-05
-1.08485e-07
1.93192e-05
-1.35258e-07
1.93402e-05
-1.64917e-07
1.93649e-05
-1.97558e-07
1.93939e-05
-2.33396e-07
1.94273e-05
-2.72819e-07
1.94657e-05
-3.16435e-07
1.95097e-05
-3.65126e-07
1.95597e-05
-4.20083e-07
1.96168e-05
-4.8283e-07
1.96819e-05
-5.55241e-07
1.97565e-05
-6.39561e-07
1.9842e-05
-7.38429e-07
1.99408e-05
-8.54923e-07
2.00554e-05
-9.92607e-07
2.01892e-05
-1.15556e-06
2.03463e-05
-1.34847e-06
2.05322e-05
-1.57624e-06
2.07535e-05
-1.84527e-06
2.10195e-05
-2.15699e-06
2.13383e-05
-2.53321e-06
-2.90641e-06
2.17341e-05
1.92484e-05
-1.13661e-09
1.92494e-05
-4.75268e-09
1.92513e-05
-1.14546e-08
1.92543e-05
-2.14857e-08
1.92587e-05
-3.49087e-08
1.92649e-05
-5.16709e-08
1.9273e-05
-7.17095e-08
1.92834e-05
-9.49793e-08
1.92963e-05
-1.21439e-07
1.93121e-05
-1.51054e-07
1.9331e-05
-1.83835e-07
1.93533e-05
-2.19873e-07
1.93793e-05
-2.59394e-07
1.94093e-05
-3.02811e-07
1.94437e-05
-3.50785e-07
1.94828e-05
-4.04277e-07
1.95273e-05
-4.64592e-07
1.95779e-05
-5.33403e-07
1.96355e-05
-6.12778e-07
1.97011e-05
-7.05203e-07
1.97763e-05
-8.13627e-07
1.98629e-05
-9.41522e-07
1.99633e-05
-1.09297e-06
2.00804e-05
-1.27273e-06
2.02183e-05
-1.48638e-06
2.03822e-05
-1.74011e-06
2.05787e-05
-2.04175e-06
2.08175e-05
-2.39578e-06
2.11075e-05
-2.82327e-06
-3.27569e-06
2.14768e-05
1.92484e-05
-1.37615e-09
1.92492e-05
-5.58593e-09
1.92508e-05
-1.30877e-08
1.92535e-05
-2.41339e-08
1.92574e-05
-3.88106e-08
1.92628e-05
-5.70829e-08
1.927e-05
-7.88879e-08
1.92792e-05
-1.04171e-07
1.92906e-05
-1.32885e-07
1.93046e-05
-1.6499e-07
1.93212e-05
-2.0049e-07
1.93408e-05
-2.39471e-07
1.93636e-05
-2.82163e-07
1.93898e-05
-3.28998e-07
1.94197e-05
-3.80674e-07
1.94536e-05
-4.38215e-07
1.9492e-05
-5.03013e-07
1.95355e-05
-5.76861e-07
1.95847e-05
-6.61983e-07
1.96405e-05
-7.61068e-07
1.97042e-05
-8.77327e-07
1.97773e-05
-1.01458e-06
1.98617e-05
-1.17736e-06
1.996e-05
-1.37107e-06
2.00758e-05
-1.60218e-06
2.02138e-05
-1.87814e-06
2.03805e-05
-2.20837e-06
2.05854e-05
-2.60071e-06
2.0838e-05
-3.07585e-06
-3.60705e-06
2.11693e-05
1.92483e-05
-1.57457e-09
1.9249e-05
-6.28389e-09
1.92504e-05
-1.44768e-08
1.92527e-05
-2.6408e-08
1.92561e-05
-4.21744e-08
1.92607e-05
-6.17505e-08
1.92669e-05
-8.50734e-08
1.92748e-05
-1.12081e-07
1.92846e-05
-1.42714e-07
1.92966e-05
-1.76928e-07
1.93108e-05
-2.14715e-07
1.93275e-05
-2.56155e-07
1.93468e-05
-3.01474e-07
1.93689e-05
-3.51113e-07
1.9394e-05
-4.05792e-07
1.94224e-05
-4.66575e-07
1.94543e-05
-5.34917e-07
1.94901e-05
-6.12696e-07
1.95304e-05
-7.02252e-07
1.95758e-05
-8.06423e-07
1.96271e-05
-9.2862e-07
1.96854e-05
-1.07293e-06
1.97523e-05
-1.24428e-06
1.98299e-05
-1.4486e-06
1.99208e-05
-1.69316e-06
2.00293e-05
-1.98662e-06
2.0161e-05
-2.34e-06
2.03249e-05
-2.76461e-06
2.05301e-05
-3.28108e-06
-3.88646e-06
2.08095e-05
1.92483e-05
-1.73775e-09
1.92489e-05
-6.86016e-09
1.925e-05
-1.56314e-08
1.92519e-05
-2.83059e-08
1.92547e-05
-4.49839e-08
1.92586e-05
-6.56433e-08
1.92638e-05
-9.0219e-08
1.92703e-05
-1.18641e-07
1.92785e-05
-1.5084e-07
1.92883e-05
-1.8676e-07
1.93e-05
-2.2638e-07
1.93136e-05
-2.69769e-07
1.93292e-05
-3.17144e-07
1.93471e-05
-3.68942e-07
1.93672e-05
-4.25892e-07
1.93897e-05
-4.89077e-07
1.94147e-05
-5.59982e-07
1.94426e-05
-6.40535e-07
1.94735e-05
-7.3314e-07
1.95078e-05
-8.40727e-07
1.9546e-05
-9.66829e-07
1.95888e-05
-1.11571e-06
1.9637e-05
-1.29255e-06
1.96921e-05
-1.5037e-06
1.9756e-05
-1.75705e-06
1.98317e-05
-2.06228e-06
1.99235e-05
-2.43183e-06
2.00392e-05
-2.88033e-06
2.01867e-05
-3.42853e-06
-4.0978e-06
2.0398e-05
1.92483e-05
-1.86936e-09
1.92487e-05
-7.32417e-09
1.92497e-05
-1.65598e-08
1.92512e-05
-2.98285e-08
1.92534e-05
-4.72297e-08
1.92565e-05
-6.874e-08
1.92606e-05
-9.42905e-08
1.92658e-05
-1.23803e-07
1.92721e-05
-1.57198e-07
1.92798e-05
-1.94404e-07
1.92888e-05
-2.35388e-07
1.92992e-05
-2.802e-07
1.93111e-05
-3.29042e-07
1.93245e-05
-3.8234e-07
1.93394e-05
-4.40813e-07
1.93559e-05
-5.05539e-07
1.93739e-05
-5.78005e-07
1.93935e-05
-6.60146e-07
1.94147e-05
-7.5438e-07
1.94377e-05
-8.63656e-07
1.94624e-05
-9.91544e-07
1.9489e-05
-1.14237e-06
1.95179e-05
-1.32142e-06
1.95495e-05
-1.53526e-06
1.95846e-05
-1.79216e-06
1.96248e-05
-2.10249e-06
1.96727e-05
-2.47977e-06
1.97338e-05
-2.94138e-06
1.98134e-05
-3.50815e-06
-4.22407e-06
1.99397e-05
1.92482e-05
-1.97216e-09
1.92486e-05
-7.68331e-09
1.92493e-05
-1.72696e-08
1.92505e-05
-3.09793e-08
1.92521e-05
-4.89082e-08
1.92544e-05
-7.1029e-08
1.92574e-05
-9.72677e-08
1.92611e-05
-1.27537e-07
1.92657e-05
-1.61747e-07
1.92711e-05
-1.9981e-07
1.92774e-05
-2.41677e-07
1.92846e-05
-2.87379e-07
1.92926e-05
-3.37094e-07
1.93015e-05
-3.91226e-07
1.93112e-05
-4.50469e-07
1.93215e-05
-5.15875e-07
1.93324e-05
-5.88901e-07
1.93437e-05
-6.71447e-07
1.93552e-05
-7.65888e-07
1.93667e-05
-8.75121e-07
1.93778e-05
-1.00265e-06
1.93881e-05
-1.15273e-06
1.93973e-05
-1.3306e-06
1.94048e-05
-1.54279e-06
1.94103e-05
-1.7976e-06
1.94135e-05
-2.10568e-06
1.94147e-05
-2.48101e-06
1.94161e-05
-2.94277e-06
1.94195e-05
-3.5115e-06
-4.24947e-06
1.94449e-05
1.92482e-05
-2.04864e-09
1.92485e-05
-7.94434e-09
1.9249e-05
-1.77691e-08
1.92498e-05
-3.17652e-08
1.92509e-05
-5.00226e-08
1.92524e-05
-7.25087e-08
1.92542e-05
-9.91433e-08
1.92565e-05
-1.29831e-07
1.92592e-05
-1.64469e-07
1.92624e-05
-2.02958e-07
1.92659e-05
-2.45226e-07
1.92698e-05
-2.91282e-07
1.9274e-05
-3.41279e-07
1.92784e-05
-3.95586e-07
1.92828e-05
-4.54859e-07
1.9287e-05
-5.20102e-07
1.92908e-05
-5.92711e-07
1.92939e-05
-6.7451e-07
1.92958e-05
-7.67775e-07
1.92959e-05
-8.75277e-07
1.92936e-05
-1.00036e-06
1.92879e-05
-1.14706e-06
1.92777e-05
-1.32037e-06
1.92614e-05
-1.52652e-06
1.92373e-05
-1.77349e-06
1.92033e-05
-2.0716e-06
1.91568e-05
-2.43456e-06
1.9096e-05
-2.88197e-06
1.90178e-05
-3.43332e-06
-4.16214e-06
1.89305e-05
1.92482e-05
-2.10132e-09
1.92484e-05
-8.11403e-09
1.92487e-05
-1.80677e-08
1.92491e-05
-3.21962e-08
1.92496e-05
-5.05821e-08
1.92503e-05
-7.31868e-08
1.92511e-05
-9.99239e-08
1.9252e-05
-1.3069e-07
1.92529e-05
-1.65372e-07
1.92538e-05
-2.03853e-07
1.92546e-05
-2.46044e-07
1.92552e-05
-2.91928e-07
1.92556e-05
-3.41627e-07
1.92555e-05
-3.95469e-07
1.92547e-05
-4.54057e-07
1.92529e-05
-5.18328e-07
1.92498e-05
-5.8959e-07
1.92448e-05
-6.69552e-07
1.92374e-05
-7.60338e-07
1.92266e-05
-8.64521e-07
1.92114e-05
-9.85178e-07
1.91904e-05
-1.12602e-06
1.91616e-05
-1.29157e-06
1.91226e-05
-1.4875e-06
1.90701e-05
-1.72105e-06
1.90001e-05
-2.00161e-06
1.89073e-05
-2.34169e-06
1.87851e-05
-2.75974e-06
1.86248e-05
-3.27304e-06
-3.95729e-06
1.84199e-05
1.92482e-05
-2.13202e-09
1.92483e-05
-8.20056e-09
1.92484e-05
-1.8178e-08
1.92485e-05
-3.22872e-08
1.92485e-05
-5.06029e-08
1.92484e-05
-7.30804e-08
1.92481e-05
-9.96282e-08
1.92475e-05
-1.30136e-07
1.92466e-05
-1.6448e-07
1.92453e-05
-2.0253e-07
1.92434e-05
-2.44177e-07
1.92409e-05
-2.89378e-07
1.92375e-05
-3.3822e-07
1.9233e-05
-3.90984e-07
1.92271e-05
-4.48211e-07
1.92196e-05
-5.10753e-07
1.92098e-05
-5.79806e-07
1.91972e-05
-6.5693e-07
1.91809e-05
-7.44053e-07
1.91598e-05
-8.43482e-07
1.91326e-05
-9.57947e-07
1.90973e-05
-1.09069e-06
1.90513e-05
-1.24563e-06
1.89914e-05
-1.42758e-06
1.8913e-05
-1.64266e-06
1.88102e-05
-1.89875e-06
1.86747e-05
-2.20623e-06
1.84957e-05
-2.58072e-06
1.82586e-05
-3.03598e-06
-3.63987e-06
1.79412e-05
1.92481e-05
-2.14608e-09
1.92482e-05
-8.21085e-09
1.92481e-05
-1.81104e-08
1.92479e-05
-3.20555e-08
1.92474e-05
-5.01074e-08
1.92465e-05
-7.22164e-08
1.92452e-05
-9.82887e-08
1.92432e-05
-1.28208e-07
1.92406e-05
-1.61843e-07
1.92371e-05
-1.99049e-07
1.92326e-05
-2.39701e-07
1.9227e-05
-2.8373e-07
1.922e-05
-3.31185e-07
1.92113e-05
-3.82297e-07
1.92006e-05
-4.37536e-07
1.91875e-05
-4.97657e-07
1.91714e-05
-5.63725e-07
1.91516e-05
-6.37125e-07
1.91271e-05
-7.19548e-07
1.90966e-05
-8.1299e-07
1.90584e-05
-9.1976e-07
1.90103e-05
-1.04254e-06
1.89491e-05
-1.18447e-06
1.88709e-05
-1.34934e-06
1.877e-05
-1.54179e-06
1.86389e-05
-1.76768e-06
1.84672e-05
-2.03451e-06
1.824e-05
-2.35352e-06
1.79378e-05
-2.73376e-06
-3.2259e-06
1.75238e-05
1.92481e-05
-2.14346e-09
1.92481e-05
-8.156e-09
1.92479e-05
-1.78858e-08
1.92473e-05
-3.15245e-08
1.92463e-05
-4.91227e-08
1.92447e-05
-7.06288e-08
1.92424e-05
-9.59475e-08
1.92392e-05
-1.2496e-07
1.92348e-05
-1.57526e-07
1.92293e-05
-1.93494e-07
1.92223e-05
-2.32721e-07
1.92137e-05
-2.75115e-07
1.92032e-05
-3.20689e-07
1.91905e-05
-3.69621e-07
1.91753e-05
-4.22304e-07
1.9157e-05
-4.79388e-07
1.91351e-05
-5.41796e-07
1.91087e-05
-6.10717e-07
1.90767e-05
-6.87582e-07
1.90378e-05
-7.74039e-07
1.89899e-05
-8.71932e-07
1.89307e-05
-9.83309e-07
1.88567e-05
-1.11046e-06
1.87633e-05
-1.25597e-06
1.86443e-05
-1.42281e-06
1.84911e-05
-1.61446e-06
1.82916e-05
-1.83498e-06
1.80283e-05
-2.0902e-06
1.76781e-05
-2.38362e-06
-2.74179e-06
1.7194e-05
1.92481e-05
-2.12875e-09
1.9248e-05
-8.04842e-09
1.92476e-05
-1.75222e-08
1.92468e-05
-3.07198e-08
1.92454e-05
-4.76833e-08
1.92431e-05
-6.83606e-08
1.92398e-05
-9.26585e-08
1.92353e-05
-1.20458e-07
1.92294e-05
-1.51614e-07
1.92219e-05
-1.85969e-07
1.92126e-05
-2.23367e-07
1.92011e-05
-2.63697e-07
1.91874e-05
-3.06935e-07
1.9171e-05
-3.53208e-07
1.91515e-05
-4.02832e-07
1.91285e-05
-4.56349e-07
1.91012e-05
-5.14531e-07
1.90688e-05
-5.78363e-07
1.90303e-05
-6.49005e-07
1.8984e-05
-7.27741e-07
1.8928e-05
-8.15927e-07
1.88596e-05
-9.14957e-07
1.87754e-05
-1.02622e-06
1.86705e-05
-1.15106e-06
1.85383e-05
-1.29067e-06
1.83699e-05
-1.44603e-06
1.81525e-05
-1.61757e-06
1.78675e-05
-1.80521e-06
1.74906e-05
-2.00677e-06
-2.22136e-06
1.69702e-05
1.92481e-05
-2.10721e-09
1.9248e-05
-7.90106e-09
1.92475e-05
-1.70421e-08
1.92464e-05
-2.96737e-08
1.92446e-05
-4.58294e-08
1.92417e-05
-6.54619e-08
1.92375e-05
-8.84848e-08
1.92318e-05
-1.14781e-07
1.92244e-05
-1.44206e-07
1.92151e-05
-1.76597e-07
1.92035e-05
-2.11792e-07
1.91894e-05
-2.49662e-07
1.91727e-05
-2.90155e-07
1.91528e-05
-3.33346e-07
1.91294e-05
-3.79477e-07
1.91021e-05
-4.28983e-07
1.907e-05
-4.82486e-07
1.90324e-05
-5.40769e-07
1.89882e-05
-6.04721e-07
1.89357e-05
-6.75267e-07
1.8873e-05
-7.53286e-07
1.87976e-05
-8.39528e-07
1.87059e-05
-9.34508e-07
1.85932e-05
-1.03836e-06
1.84531e-05
-1.15057e-06
1.82768e-05
-1.26969e-06
1.80519e-05
-1.39272e-06
1.77606e-05
-1.51389e-06
1.73797e-05
-1.62587e-06
-1.70118e-06
1.68595e-05
1.92481e-05
-2.08396e-09
1.92479e-05
-7.7319e-09
1.92474e-05
-1.64743e-08
1.92461e-05
-2.84226e-08
1.92439e-05
-4.36057e-08
1.92404e-05
-6.19891e-08
1.92354e-05
-8.34983e-08
1.92287e-05
-1.08021e-07
1.92199e-05
-1.35413e-07
1.92088e-05
-1.65516e-07
1.91952e-05
-1.98164e-07
1.91787e-05
-2.33218e-07
1.91592e-05
-2.70601e-07
1.91362e-05
-3.10343e-07
1.91093e-05
-3.52617e-07
1.90781e-05
-3.97755e-07
1.90418e-05
-4.46238e-07
1.89997e-05
-4.98658e-07
1.89507e-05
-5.55647e-07
1.88932e-05
-6.17795e-07
1.88254e-05
-6.85539e-07
1.87449e-05
-7.59042e-07
1.86485e-05
-8.38022e-07
1.85316e-05
-9.21528e-07
1.83886e-05
-1.00756e-06
1.82114e-05
-1.09251e-06
1.79892e-05
-1.17047e-06
1.77061e-05
-1.23082e-06
1.73425e-05
-1.26229e-06
-1.21556e-06
1.68569e-05
1.92481e-05
-2.06576e-09
1.92479e-05
-7.56461e-09
1.92473e-05
-1.58547e-08
1.92459e-05
-2.70083e-08
1.92434e-05
-4.10616e-08
1.92394e-05
-5.80044e-08
1.92337e-05
-7.77778e-08
1.92259e-05
-1.00275e-07
1.92159e-05
-1.25358e-07
1.92032e-05
-1.52876e-07
1.91877e-05
-1.82668e-07
1.91691e-05
-2.14588e-07
1.9147e-05
-2.48542e-07
1.91212e-05
-2.84523e-07
1.90912e-05
-3.22642e-07
1.90566e-05
-3.63139e-07
1.90168e-05
-4.06367e-07
1.89708e-05
-4.52742e-07
1.89179e-05
-5.02672e-07
1.88565e-05
-5.56452e-07
1.87851e-05
-6.14135e-07
1.87015e-05
-6.7538e-07
1.86027e-05
-7.39248e-07
1.84851e-05
-8.039e-07
1.83436e-05
-8.66139e-07
1.81718e-05
-9.20707e-07
1.79609e-05
-9.59507e-07
1.76985e-05
-9.68401e-07
1.73698e-05
-9.33663e-07
-7.91407e-07
1.69457e-05
1.92481e-05
-2.06123e-09
1.9248e-05
-7.43315e-09
1.92474e-05
-1.52293e-08
1.92458e-05
-2.54776e-08
1.9243e-05
-3.82507e-08
1.92386e-05
-5.35747e-08
1.92322e-05
-7.14083e-08
1.92236e-05
-9.16493e-08
1.92124e-05
-1.14172e-07
1.91984e-05
-1.38838e-07
1.91812e-05
-1.65498e-07
1.91606e-05
-1.94007e-07
1.91363e-05
-2.24259e-07
1.9108e-05
-2.5622e-07
1.90754e-05
-2.89949e-07
1.90378e-05
-3.25607e-07
1.89949e-05
-3.63435e-07
1.89458e-05
-4.03702e-07
1.88898e-05
-4.46627e-07
1.88256e-05
-4.92266e-07
1.87518e-05
-5.40364e-07
1.86667e-05
-5.90192e-07
1.85677e-05
-6.40316e-07
1.84521e-05
-6.88265e-07
1.8316e-05
-7.30025e-07
1.81545e-05
-7.5926e-07
1.79616e-05
-7.66571e-07
1.7729e-05
-7.35837e-07
1.74478e-05
-6.52409e-07
-4.46069e-07
1.71024e-05
1.92482e-05
-2.08628e-09
1.92481e-05
-7.37959e-09
1.92475e-05
-1.46581e-08
1.92459e-05
-2.38907e-08
1.92429e-05
-3.5229e-08
1.92381e-05
-4.87723e-08
1.92312e-05
-6.44801e-08
1.92218e-05
-8.22548e-08
1.92096e-05
-1.01989e-07
1.91943e-05
-1.23566e-07
1.91757e-05
-1.46851e-07
1.91534e-05
-1.71709e-07
1.91272e-05
-1.98031e-07
1.90967e-05
-2.25762e-07
1.90617e-05
-2.54924e-07
1.90217e-05
-2.85612e-07
1.89762e-05
-3.17973e-07
1.89247e-05
-3.52162e-07
1.88663e-05
-3.88254e-07
1.88002e-05
-4.2613e-07
1.87251e-05
-4.65318e-07
1.86398e-05
-5.04822e-07
1.85424e-05
-5.42903e-07
1.84308e-05
-5.76738e-07
1.83027e-05
-6.01909e-07
1.81551e-05
-6.1161e-07
1.79845e-05
-5.96038e-07
1.77873e-05
-5.38629e-07
1.75601e-05
-4.25158e-07
-1.87068e-07
1.73011e-05
1.92482e-05
-2.17397e-09
1.92483e-05
-7.4906e-09
1.92479e-05
-1.41941e-08
1.92463e-05
-2.22913e-08
1.92431e-05
-3.20665e-08
1.9238e-05
-4.368e-08
1.92306e-05
-5.70925e-08
1.92206e-05
-7.22123e-08
1.92076e-05
-8.8958e-08
1.91912e-05
-1.07239e-07
1.91713e-05
-1.2694e-07
1.91475e-05
-1.47943e-07
1.91197e-05
-1.70143e-07
1.90874e-05
-1.9348e-07
1.90504e-05
-2.17943e-07
1.90084e-05
-2.43579e-07
1.89609e-05
-2.70465e-07
1.89074e-05
-2.98669e-07
1.88473e-05
-3.28179e-07
1.87799e-05
-3.58769e-07
1.87044e-05
-3.89839e-07
1.86199e-05
-4.20254e-07
1.85251e-05
-4.48163e-07
1.84191e-05
-4.70671e-07
1.83005e-05
-4.83364e-07
1.81685e-05
-4.79549e-07
1.80223e-05
-4.49839e-07
1.78622e-05
-3.78578e-07
1.76901e-05
-2.53013e-07
-1.28577e-08
1.75159e-05
1.92483e-05
-2.38673e-09
1.92488e-05
-7.91126e-09
1.92485e-05
-1.39185e-08
1.92469e-05
-2.07209e-08
1.92437e-05
-2.88159e-08
1.92384e-05
-3.83669e-08
1.92306e-05
-4.9325e-08
1.922e-05
-6.16222e-08
1.92063e-05
-7.52086e-08
1.9189e-05
-9.00187e-08
1.91681e-05
-1.05963e-07
1.91431e-05
-1.22944e-07
1.91138e-05
-1.40873e-07
1.908e-05
-1.5969e-07
1.90414e-05
-1.79367e-07
1.89978e-05
-1.99912e-07
1.89486e-05
-2.21351e-07
1.88937e-05
-2.43701e-07
1.88324e-05
-2.66915e-07
1.87644e-05
-2.90742e-07
1.86891e-05
-3.14531e-07
1.86059e-05
-3.37121e-07
1.85145e-05
-3.56731e-07
1.84145e-05
-3.70667e-07
1.8306e-05
-3.74885e-07
1.81898e-05
-3.6331e-07
1.80676e-05
-3.2766e-07
1.79432e-05
-2.54214e-07
1.78227e-05
-1.32452e-07
8.5262e-08
1.77246e-05
1.92486e-05
-2.86819e-09
1.92496e-05
-8.85196e-09
1.92496e-05
-1.39488e-08
1.92481e-05
-1.9279e-08
1.92449e-05
-2.55744e-08
1.92395e-05
-3.29342e-08
1.92314e-05
-4.12936e-08
1.92204e-05
-5.06219e-08
1.92061e-05
-6.0901e-08
1.91882e-05
-7.20905e-08
1.91664e-05
-8.41301e-08
1.91404e-05
-9.69531e-08
1.911e-05
-1.10496e-07
1.9075e-05
-1.24706e-07
1.90352e-05
-1.39546e-07
1.89903e-05
-1.54998e-07
1.894e-05
-1.71045e-07
1.8884e-05
-1.87679e-07
1.88219e-05
-2.04885e-07
1.87537e-05
-2.22472e-07
1.86789e-05
-2.39819e-07
1.85976e-05
-2.55815e-07
1.85098e-05
-2.68894e-07
1.84159e-05
-2.76802e-07
1.83172e-05
-2.76181e-07
1.82159e-05
-2.61942e-07
1.81156e-05
-2.27427e-07
1.80229e-05
-1.61458e-07
1.79474e-05
-5.69638e-08
1.21534e-07
1.79111e-05
1.92493e-05
-4.05427e-09
1.92508e-05
-1.03612e-08
1.92512e-05
-1.42735e-08
1.92499e-05
-1.80321e-08
1.92467e-05
-2.2414e-08
1.92413e-05
-2.74438e-08
1.9233e-05
-3.30854e-08
1.92218e-05
-3.93479e-08
1.92071e-05
-4.62287e-08
1.91887e-05
-5.37082e-08
1.91663e-05
-6.17609e-08
1.91398e-05
-7.03576e-08
1.91087e-05
-7.94633e-08
1.90731e-05
-8.90374e-08
1.90325e-05
-9.90397e-08
1.8987e-05
-1.09435e-07
1.89361e-05
-1.2019e-07
1.88798e-05
-1.31312e-07
1.88177e-05
-1.42861e-07
1.875e-05
-1.54742e-07
1.86766e-05
-1.6639e-07
1.85976e-05
-1.76822e-07
1.85135e-05
-1.8483e-07
1.84255e-05
-1.88795e-07
1.83356e-05
-1.86272e-07
1.82471e-05
-1.7344e-07
1.81651e-05
-1.45473e-07
1.80974e-05
-9.36668e-08
1.80569e-05
-1.65346e-08
1.13671e-07
1.80648e-05
1.92522e-05
-8.09233e-09
1.92543e-05
-1.2467e-08
1.92539e-05
-1.38866e-08
1.92518e-05
-1.59376e-08
1.92479e-05
-1.84697e-08
1.92416e-05
-2.12204e-08
1.92328e-05
-2.42212e-08
1.92209e-05
-2.75087e-08
1.92058e-05
-3.10723e-08
1.9187e-05
-3.48903e-08
1.91641e-05
-3.89481e-08
1.9137e-05
-4.32382e-08
1.91053e-05
-4.77605e-08
1.90688e-05
-5.25254e-08
1.90273e-05
-5.75533e-08
1.89807e-05
-6.28655e-08
1.8929e-05
-6.84702e-08
1.8872e-05
-7.43267e-08
1.88095e-05
-8.02997e-08
1.87409e-05
-8.61897e-08
1.86663e-05
-9.17874e-08
1.85863e-05
-9.676e-08
1.85019e-05
-1.00443e-07
1.84148e-05
-1.0176e-07
1.83278e-05
-9.91996e-08
1.82449e-05
-9.0584e-08
1.81726e-05
-7.3172e-08
1.81205e-05
-4.15401e-08
1.81002e-05
3.70246e-09
9.15565e-08
1.81224e-05
1.924e-05
1.92276e-05
1.92137e-05
1.91977e-05
1.91793e-05
1.91581e-05
1.91338e-05
1.91063e-05
1.90753e-05
1.90404e-05
1.90014e-05
1.89582e-05
1.89104e-05
1.88579e-05
1.88003e-05
1.87375e-05
1.8669e-05
1.85947e-05
1.85144e-05
1.84282e-05
1.83364e-05
1.82396e-05
1.81392e-05
1.80374e-05
1.79382e-05
1.78477e-05
1.77745e-05
1.77329e-05
1.77366e-05
1.78282e-05
2.17791e-05
-1.0309e-05
1.07694e-05
2.13226e-05
-1.04245e-05
1.08811e-05
2.08431e-05
-1.05363e-05
1.10158e-05
2.0337e-05
-1.06393e-05
1.11455e-05
1.98087e-05
-1.07404e-05
1.12686e-05
1.92629e-05
-1.08427e-05
1.13884e-05
1.87029e-05
-1.0947e-05
1.1507e-05
1.81312e-05
-1.10541e-05
1.16259e-05
1.75494e-05
-1.11652e-05
1.17469e-05
1.69585e-05
-1.1281e-05
1.1872e-05
1.63585e-05
-1.14021e-05
1.20021e-05
1.57489e-05
-1.15288e-05
1.21384e-05
1.51291e-05
-1.16616e-05
1.22814e-05
1.44984e-05
-1.18014e-05
1.2432e-05
1.38561e-05
-1.19492e-05
1.25916e-05
1.32012e-05
-1.21066e-05
1.27615e-05
1.25325e-05
-1.22752e-05
1.29438e-05
1.18485e-05
-1.24569e-05
1.31408e-05
1.11472e-05
-1.2654e-05
1.33554e-05
1.04256e-05
-1.28694e-05
1.3591e-05
9.68027e-06
-1.31066e-05
1.38519e-05
8.90634e-06
-1.33699e-05
1.41438e-05
8.0973e-06
-1.36645e-05
1.44736e-05
7.24424e-06
-1.39975e-05
1.48506e-05
6.33444e-06
-1.43762e-05
1.5286e-05
5.34955e-06
-1.48117e-05
1.57966e-05
4.27256e-06
-1.5311e-05
1.6388e-05
3.02449e-06
-1.59022e-05
1.71502e-05
1.69468e-06
-1.64948e-05
1.78246e-05
-1.75149e-05
1.92096e-05
2.19146e-05
-9.8344e-06
2.14103e-05
-9.92019e-06
2.08827e-05
-1.00088e-05
2.03403e-05
-1.00969e-05
1.97871e-05
-1.01871e-05
1.9225e-05
-1.02806e-05
1.86556e-05
-1.03775e-05
1.80793e-05
-1.04778e-05
1.74958e-05
-1.05817e-05
1.69044e-05
-1.06897e-05
1.63042e-05
-1.08019e-05
1.56943e-05
-1.09189e-05
1.50741e-05
-1.10414e-05
1.44429e-05
-1.11702e-05
1.38001e-05
-1.13064e-05
1.31446e-05
-1.14512e-05
1.24752e-05
-1.16058e-05
1.17901e-05
-1.17718e-05
1.10871e-05
-1.1951e-05
1.03632e-05
-1.21456e-05
9.61494e-06
-1.23583e-05
8.83727e-06
-1.25922e-05
8.02377e-06
-1.2851e-05
7.1657e-06
-1.31395e-05
6.2511e-06
-1.34616e-05
5.26413e-06
-1.38247e-05
4.18199e-06
-1.42289e-05
2.96868e-06
-1.46889e-05
1.62968e-06
-1.51558e-05
-1.58852e-05
2.18201e-05
-9.32264e-06
2.12957e-05
-9.39573e-06
2.07599e-05
-9.47303e-06
2.0217e-05
-9.55406e-06
1.96681e-05
-9.63813e-06
1.91124e-05
-9.72494e-06
1.85493e-05
-9.81438e-06
1.7978e-05
-9.90654e-06
1.7398e-05
-1.00017e-05
1.68088e-05
-1.01004e-05
1.621e-05
-1.02031e-05
1.56013e-05
-1.03102e-05
1.49824e-05
-1.04224e-05
1.43526e-05
-1.05404e-05
1.37112e-05
-1.0665e-05
1.3057e-05
-1.07969e-05
1.23885e-05
-1.09373e-05
1.17039e-05
-1.10872e-05
1.10009e-05
-1.1248e-05
1.02765e-05
-1.14213e-05
9.52713e-06
-1.16089e-05
8.74784e-06
-1.18129e-05
7.93231e-06
-1.20355e-05
7.07214e-06
-1.22793e-05
6.15626e-06
-1.25457e-05
5.16989e-06
-1.28384e-05
4.09238e-06
-1.31514e-05
2.89964e-06
-1.34961e-05
1.56579e-06
-1.38219e-05
-1.43194e-05
2.17223e-05
-8.80325e-06
2.11949e-05
-8.86831e-06
2.06591e-05
-8.93722e-06
2.01161e-05
-9.01105e-06
1.95659e-05
-9.08801e-06
1.9008e-05
-9.16704e-06
1.84419e-05
-9.24825e-06
1.78675e-05
-9.33208e-06
1.72846e-05
-9.41892e-06
1.66933e-05
-9.50908e-06
1.60931e-05
-9.6029e-06
1.54837e-05
-9.70075e-06
1.48643e-05
-9.80307e-06
1.42342e-05
-9.91034e-06
1.35923e-05
-1.00231e-05
1.29374e-05
-1.0142e-05
1.22678e-05
-1.02678e-05
1.15819e-05
-1.04012e-05
1.08772e-05
-1.05433e-05
1.01509e-05
-1.0695e-05
9.39933e-06
-1.08573e-05
8.61767e-06
-1.10312e-05
7.79995e-06
-1.12178e-05
6.93831e-06
-1.14177e-05
6.02271e-06
-1.16301e-05
5.03987e-06
-1.18555e-05
3.97266e-06
-1.20842e-05
2.80128e-06
-1.23247e-05
1.49352e-06
-1.25142e-05
-1.28259e-05
2.15871e-05
-8.2777e-06
2.10546e-05
-8.33586e-06
2.05147e-05
-8.39733e-06
1.99679e-05
-8.46425e-06
1.94143e-05
-8.5344e-06
1.88536e-05
-8.60631e-06
1.82855e-05
-8.68013e-06
1.77098e-05
-8.75641e-06
1.71263e-05
-8.83546e-06
1.65347e-05
-8.91743e-06
1.59343e-05
-9.00253e-06
1.53246e-05
-9.09102e-06
1.47047e-05
-9.18323e-06
1.40739e-05
-9.27953e-06
1.34311e-05
-9.38031e-06
1.27751e-05
-9.48599e-06
1.21044e-05
-9.59704e-06
1.14171e-05
-9.71392e-06
1.07109e-05
-9.83711e-06
9.983e-06
-9.96705e-06
9.22982e-06
-1.01041e-05
8.44691e-06
-1.02483e-05
7.62868e-06
-1.03996e-05
6.76801e-06
-1.0557e-05
5.85602e-06
-1.07181e-05
4.88117e-06
-1.08807e-05
3.82958e-06
-1.10326e-05
2.68373e-06
-1.11789e-05
1.41628e-06
-1.12467e-05
-1.14096e-05
2.14142e-05
-7.74731e-06
2.08777e-05
-7.79934e-06
2.03345e-05
-7.85415e-06
1.97849e-05
-7.91465e-06
1.92289e-05
-7.97837e-06
1.86661e-05
-8.04351e-06
1.80962e-05
-8.11022e-06
1.75188e-05
-8.17909e-06
1.69337e-05
-8.25036e-06
1.63404e-05
-8.32411e-06
1.57383e-05
-8.40045e-06
1.51269e-05
-8.47959e-06
1.45054e-05
-8.56173e-06
1.3873e-05
-8.6471e-06
1.32286e-05
-8.73592e-06
1.2571e-05
-8.82838e-06
1.18986e-05
-8.9247e-06
1.12097e-05
-9.02502e-06
1.05021e-05
-9.12943e-06
9.77288e-06
-9.23788e-06
9.0189e-06
-9.35009e-06
8.23601e-06
-9.46546e-06
7.41918e-06
-9.58273e-06
6.56214e-06
-9.69994e-06
5.65728e-06
-9.81324e-06
4.69495e-06
-9.91835e-06
3.66412e-06
-1.00018e-05
2.54987e-06
-1.00646e-05
1.3325e-06
-1.00293e-05
-1.00771e-05
2.11992e-05
-7.2124e-06
2.06587e-05
-7.25884e-06
2.0112e-05
-7.30748e-06
1.95592e-05
-7.36187e-06
1.90003e-05
-7.41938e-06
1.84347e-05
-7.47799e-06
1.78623e-05
-7.5378e-06
1.72826e-05
-7.59942e-06
1.66954e-05
-7.66308e-06
1.61e-05
-7.72877e-06
1.54961e-05
-7.7965e-06
1.48829e-05
-7.8664e-06
1.42597e-05
-7.93856e-06
1.36257e-05
-8.01307e-06
1.29797e-05
-8.08998e-06
1.23207e-05
-8.16931e-06
1.1647e-05
-8.25104e-06
1.0957e-05
-8.33504e-06
1.02486e-05
-8.42105e-06
9.51937e-06
-8.5086e-06
8.76618e-06
-8.5969e-06
7.98543e-06
-8.6847e-06
7.17273e-06
-8.77003e-06
6.32277e-06
-8.84998e-06
5.42928e-06
-8.91975e-06
4.48449e-06
-8.97355e-06
3.48009e-06
-8.99737e-06
2.40421e-06
-8.98874e-06
1.24546e-06
-8.87059e-06
-8.83166e-06
2.09376e-05
-6.67314e-06
2.03932e-05
-6.71444e-06
1.9843e-05
-6.75735e-06
1.92871e-05
-6.80589e-06
1.87251e-05
-6.8574e-06
1.81568e-05
-6.90968e-06
1.75818e-05
-6.9628e-06
1.69997e-05
-7.01737e-06
1.64102e-05
-7.07358e-06
1.58128e-05
-7.13134e-06
1.52069e-05
-7.1906e-06
1.45919e-05
-7.25138e-06
1.3967e-05
-7.31369e-06
1.33314e-05
-7.3775e-06
1.26842e-05
-7.44273e-06
1.20241e-05
-7.50922e-06
1.13498e-05
-7.57675e-06
1.06597e-05
-7.64496e-06
9.95197e-06
-7.71328e-06
9.22429e-06
-7.78092e-06
8.47404e-06
-7.84666e-06
7.69811e-06
-7.90877e-06
6.89282e-06
-7.96474e-06
6.05387e-06
-8.01103e-06
5.17632e-06
-8.0422e-06
4.25429e-06
-8.05152e-06
3.28202e-06
-8.02511e-06
2.25092e-06
-7.95764e-06
1.15705e-06
-7.77673e-06
-7.67461e-06
2.06259e-05
-6.1297e-06
2.00777e-05
-6.16625e-06
1.95242e-05
-6.20384e-06
1.89651e-05
-6.24678e-06
1.84001e-05
-6.29246e-06
1.78291e-05
-6.33862e-06
1.72515e-05
-6.38526e-06
1.66672e-05
-6.43299e-06
1.60755e-05
-6.48194e-06
1.54761e-05
-6.53197e-06
1.48685e-05
-6.58298e-06
1.4252e-05
-6.63489e-06
1.3626e-05
-6.68765e-06
1.29896e-05
-6.7411e-06
1.23419e-05
-6.79506e-06
1.16819e-05
-6.84922e-06
1.10084e-05
-6.90319e-06
1.03198e-05
-6.95641e-06
9.61463e-06
-7.0081e-06
8.89089e-06
-7.05717e-06
8.14637e-06
-7.10213e-06
7.37851e-06
-7.14092e-06
6.58441e-06
-7.17064e-06
5.76076e-06
-7.18738e-06
4.90397e-06
-7.1854e-06
4.00993e-06
-7.15749e-06
3.07521e-06
-7.09038e-06
2.09432e-06
-6.97676e-06
1.06923e-06
-6.75164e-06
-6.60537e-06
2.02622e-05
-5.58237e-06
1.97105e-05
-5.61457e-06
1.91539e-05
-5.64726e-06
1.8592e-05
-5.68485e-06
1.80244e-05
-5.7249e-06
1.74509e-05
-5.76515e-06
1.68713e-05
-5.80558e-06
1.6285e-05
-5.84672e-06
1.56917e-05
-5.88869e-06
1.50911e-05
-5.93131e-06
1.44825e-05
-5.97439e-06
1.38654e-05
-6.01782e-06
1.32392e-05
-6.06145e-06
1.26032e-05
-6.10506e-06
1.19565e-05
-6.14835e-06
1.12982e-05
-6.19091e-06
1.06272e-05
-6.23221e-06
9.94231e-06
-6.27155e-06
9.24218e-06
-6.30796e-06
8.5252e-06
-6.3402e-06