/*--------------------------------*- C++ -*----------------------------------*\
  =========                 |
  \\      /  F ield         | OpenFOAM: The Open Source CFD Toolbox
   \\    /   O peration     | Website:  https://openfoam.org
    \\  /    A nd           | Version:  11
     \\/     M anipulation  |
\*---------------------------------------------------------------------------*/
FoamFile
{
    format      ascii;
    class       volVectorField;
    location    "6";
    object      U;
}
// * * * * * * * * * * * * * * * * * * * * * * * * * * * * * * * * * * * * * //

dimensions      [0 1 -1 0 0 0 0];

internalField   nonuniform List<vector> 
12600
(
(0.412278 5.76967e-05 0)
(0.412169 0.000118308 0)
(0.412008 0.000118997 0)
(0.411836 0.000109227 0)
(0.411702 9.61706e-05 0)
(0.411623 8.10585e-05 0)
(0.411604 5.69768e-05 0)
(0.411653 2.36748e-05 0)
(0.411781 -1.11361e-05 0)
(0.411995 -4.01116e-05 0)
(0.412303 -7.23879e-05 0)
(0.412718 -0.00011071 0)
(0.413251 -0.000154433 0)
(0.413916 -0.000204247 0)
(0.414728 -0.000261641 0)
(0.415707 -0.000328528 0)
(0.416876 -0.000407064 0)
(0.418266 -0.000499471 0)
(0.41991 -0.000608007 0)
(0.42185 -0.000735112 0)
(0.424137 -0.00088359 0)
(0.426828 -0.00105671 0)
(0.429993 -0.00125783 0)
(0.433706 -0.00148996 0)
(0.438055 -0.0017586 0)
(0.443135 -0.00206266 0)
(0.449053 -0.00241898 0)
(0.455885 -0.00274679 0)
(0.463753 -0.00336837 0)
(0.473917 -0.00280383 0)
(0.412478 0.000113469 0)
(0.412565 0.000154286 0)
(0.412668 0.000131546 0)
(0.412764 9.46261e-05 0)
(0.412877 5.03599e-05 0)
(0.413034 -6.69919e-06 0)
(0.413247 -7.6894e-05 0)
(0.413524 -0.000157421 0)
(0.413874 -0.000248415 0)
(0.414315 -0.000351886 0)
(0.414855 -0.000467481 0)
(0.415497 -0.000594886 0)
(0.416256 -0.000735584 0)
(0.417144 -0.000891985 0)
(0.418174 -0.00106701 0)
(0.41936 -0.00126436 0)
(0.420719 -0.00148884 0)
(0.422272 -0.00174659 0)
(0.424047 -0.00204513 0)
(0.426078 -0.00239321 0)
(0.428409 -0.00280051 0)
(0.431094 -0.00327749 0)
(0.434196 -0.00383464 0)
(0.437787 -0.00448255 0)
(0.441953 -0.00523299 0)
(0.446788 -0.00609146 0)
(0.452391 -0.00707984 0)
(0.458887 -0.00809933 0)
(0.466355 -0.00955525 0)
(0.475052 -0.00944256 0)
(0.412472 3.61571e-05 0)
(0.41252 5.80503e-05 0)
(0.412595 2.93787e-05 0)
(0.412686 -2.84714e-05 0)
(0.412801 -0.000101562 0)
(0.41296 -0.000191909 0)
(0.413175 -0.000303231 0)
(0.413451 -0.000435926 0)
(0.413799 -0.000588752 0)
(0.414228 -0.000759389 0)
(0.414748 -0.000946669 0)
(0.41537 -0.00115286 0)
(0.416104 -0.00138181 0)
(0.41696 -0.00163634 0)
(0.417951 -0.00191949 0)
(0.419091 -0.00223591 0)
(0.420399 -0.00259274 0)
(0.421899 -0.00300004 0)
(0.423617 -0.00347054 0)
(0.425587 -0.004019 0)
(0.427853 -0.00466166 0)
(0.430464 -0.00541598 0)
(0.433481 -0.00630036 0)
(0.436977 -0.00733389 0)
(0.441034 -0.00853662 0)
(0.445757 -0.00992155 0)
(0.451227 -0.0115197 0)
(0.457667 -0.0132377 0)
(0.464892 -0.0154719 0)
(0.474166 -0.0163706 0)
(0.412467 1.98478e-05 0)
(0.412499 2.86551e-05 0)
(0.412559 -5.66148e-06 0)
(0.412641 -7.67106e-05 0)
(0.412753 -0.000175726 0)
(0.412905 -0.000301346 0)
(0.41311 -0.000455068 0)
(0.413376 -0.000636411 0)
(0.413711 -0.000843807 0)
(0.414124 -0.00107629 0)
(0.414626 -0.00133403 0)
(0.415225 -0.00161847 0)
(0.415932 -0.00193222 0)
(0.416756 -0.00227903 0)
(0.417707 -0.00266449 0)
(0.418801 -0.00309658 0)
(0.420055 -0.00358594 0)
(0.421491 -0.00414601 0)
(0.423135 -0.00479312 0)
(0.425022 -0.0055464 0)
(0.427192 -0.00642768 0)
(0.429693 -0.00746138 0)
(0.432584 -0.00867434 0)
(0.435939 -0.010095 0)
(0.439839 -0.0117539 0)
(0.444395 -0.0136738 0)
(0.449686 -0.0158996 0)
(0.455971 -0.0183419 0)
(0.463018 -0.0214151 0)
(0.472322 -0.0233195 0)
(0.412465 6.72665e-06 0)
(0.412487 -6.83536e-06 0)
(0.412535 -6.00253e-05 0)
(0.412608 -0.000152342 0)
(0.412712 -0.00028122 0)
(0.412856 -0.00044431 0)
(0.413049 -0.000641145 0)
(0.413302 -0.000871311 0)
(0.413621 -0.00113393 0)
(0.414014 -0.00142837 0)
(0.414491 -0.00175485 0)
(0.41506 -0.00211488 0)
(0.415729 -0.00251145 0)
(0.416509 -0.0029491 0)
(0.41741 -0.00343454 0)
(0.418446 -0.00397735 0)
(0.419631 -0.00459058 0)
(0.420987 -0.00529112 0)
(0.422539 -0.00609974 0)
(0.424318 -0.00704094 0)
(0.426361 -0.00814288 0)
(0.428716 -0.00943735 0)
(0.431441 -0.0109597 0)
(0.434608 -0.0127481 0)
(0.438296 -0.0148442 0)
(0.442622 -0.0172837 0)
(0.447665 -0.0201238 0)
(0.453713 -0.023298 0)
(0.460493 -0.0272017 0)
(0.469728 -0.030196 0)
(0.412464 -3.56235e-06 0)
(0.412481 -3.09694e-05 0)
(0.41252 -9.96999e-05 0)
(0.412585 -0.000212842 0)
(0.412682 -0.000367969 0)
(0.412817 -0.00056305 0)
(0.412998 -0.00079763 0)
(0.413234 -0.00107155 0)
(0.413533 -0.00138416 0)
(0.413901 -0.00173486 0)
(0.414347 -0.0021238 0)
(0.414879 -0.0025524 0)
(0.415505 -0.00302378 0)
(0.416233 -0.00354322 0)
(0.417073 -0.00411893 0)
(0.418036 -0.00476275 0)
(0.419137 -0.00549052 0)
(0.420394 -0.00632243 0)
(0.421831 -0.00728305 0)
(0.423476 -0.00840155 0)
(0.425365 -0.00971179 0)
(0.427542 -0.0112526 0)
(0.43006 -0.0130681 0)
(0.43299 -0.015207 0)
(0.43641 -0.0177236 0)
(0.440439 -0.0206693 0)
(0.445153 -0.024117 0)
(0.450872 -0.0280299 0)
(0.45728 -0.0327837 0)
(0.466339 -0.0369279 0)
(0.412463 -1.03921e-05 0)
(0.412476 -5.11408e-05 0)
(0.412509 -0.000136761 0)
(0.412568 -0.000269827 0)
(0.412656 -0.000450274 0)
(0.412779 -0.000676906 0)
(0.412946 -0.000948873 0)
(0.413163 -0.00126562 0)
(0.413439 -0.00162647 0)
(0.413778 -0.00203088 0)
(0.414189 -0.00247906 0)
(0.414677 -0.00297253 0)
(0.415251 -0.00351471 0)
(0.415918 -0.00411152 0)
(0.416686 -0.00477219 0)
(0.417565 -0.00551005 0)
(0.418569 -0.00634309 0)
(0.419713 -0.00729434 0)
(0.421017 -0.00839214 0)
(0.422506 -0.00967031 0)
(0.424214 -0.0111685 0)
(0.426179 -0.0129327 0)
(0.428453 -0.0150158 0)
(0.431099 -0.0174775 0)
(0.434194 -0.0203856 0)
(0.437855 -0.0238094 0)
(0.442156 -0.0278403 0)
(0.447444 -0.0324793 0)
(0.453362 -0.038084 0)
(0.462101 -0.0434346 0)
(0.412462 -1.55767e-05 0)
(0.412473 -6.8474e-05 0)
(0.412501 -0.000168988 0)
(0.412553 -0.000320894 0)
(0.412632 -0.000524986 0)
(0.412743 -0.000780279 0)
(0.412894 -0.00108576 0)
(0.413091 -0.00144075 0)
(0.41334 -0.00184463 0)
(0.413646 -0.0022969 0)
(0.414017 -0.00279774 0)
(0.414457 -0.00334864 0)
(0.414974 -0.00395314 0)
(0.415572 -0.00461762 0)
(0.41626 -0.00535232 0)
(0.417045 -0.00617206 0)
(0.417938 -0.00709691 0)
(0.418954 -0.0081526 0)
(0.420108 -0.00937078 0)
(0.421422 -0.0107894 0)
(0.422924 -0.0124533 0)
(0.424649 -0.0144151 0)
(0.426641 -0.0167361 0)
(0.428959 -0.0194872 0)
(0.431671 -0.0227505 0)
(0.434893 -0.0266151 0)
(0.43869 -0.0311943 0)
(0.443429 -0.0365344 0)
(0.448721 -0.0429792 0)
(0.456948 -0.0495876 0)
(0.412462 -1.98722e-05 0)
(0.412471 -8.29276e-05 0)
(0.412495 -0.000197055 0)
(0.41254 -0.000366211 0)
(0.412609 -0.000591607 0)
(0.412708 -0.000872607 0)
(0.412841 -0.00120825 0)
(0.413015 -0.00159773 0)
(0.413235 -0.00204032 0)
(0.413506 -0.00253548 0)
(0.413833 -0.00308328 0)
(0.41422 -0.00368519 0)
(0.414673 -0.00434487 0)
(0.415196 -0.00506912 0)
(0.415796 -0.00586886 0)
(0.416478 -0.00676003 0)
(0.417251 -0.00776428 0)
(0.418125 -0.00890941 0)
(0.419115 -0.0102299 0)
(0.420236 -0.0117673 0)
(0.421512 -0.013571 0)
(0.42297 -0.0156997 0)
(0.424648 -0.0182225 0)
(0.426595 -0.0212212 0)
(0.428871 -0.0247922 0)
(0.431582 -0.0290451 0)
(0.434784 -0.0341179 0)
(0.438848 -0.0401087 0)
(0.443358 -0.0473525 0)
(0.45083 -0.0552366 0)
(0.412462 -2.33947e-05 0)
(0.412469 -9.51193e-05 0)
(0.412489 -0.000221167 0)
(0.412528 -0.000405557 0)
(0.412587 -0.000649767 0)
(0.412673 -0.000953362 0)
(0.412788 -0.00131537 0)
(0.412938 -0.00173484 0)
(0.413127 -0.00221092 0)
(0.413359 -0.00274294 0)
(0.413638 -0.00333088 0)
(0.413969 -0.00397608 0)
(0.414354 -0.0046822 0)
(0.414797 -0.00545625 0)
(0.415302 -0.00630962 0)
(0.415873 -0.00725908 0)
(0.416518 -0.00832749 0)
(0.417241 -0.00954436 0)
(0.418054 -0.0109464 0)
(0.418969 -0.0125779 0)
(0.42 -0.0144922 0)
(0.42117 -0.0167528 0)
(0.422506 -0.0194357 0)
(0.424046 -0.0226321 0)
(0.425837 -0.0264523 0)
(0.42797 -0.031026 0)
(0.430484 -0.0365171 0)
(0.43374 -0.0430793 0)
(0.437304 -0.0510441 0)
(0.443724 -0.0601686 0)
(0.412461 -2.62974e-05 0)
(0.412467 -0.000105283 0)
(0.412484 -0.000241471 0)
(0.412516 -0.000438911 0)
(0.412566 -0.000699186 0)
(0.412637 -0.00102194 0)
(0.412733 -0.00140616 0)
(0.412858 -0.0018508 0)
(0.413014 -0.00235484 0)
(0.413206 -0.00291746 0)
(0.413436 -0.00353844 0)
(0.413706 -0.00421899 0)
(0.414019 -0.00496266 0)
(0.414377 -0.00577652 0)
(0.414783 -0.00667223 0)
(0.415239 -0.00766702 0)
(0.415748 -0.00878451 0)
(0.416314 -0.0100553 0)
(0.416941 -0.0115174 0)
(0.417638 -0.0132173 0)
(0.418413 -0.0152108 0)
(0.419278 -0.0175649 0)
(0.42025 -0.0203611 0)
(0.421354 -0.0236982 0)
(0.422619 -0.027698 0)
(0.424115 -0.0325084 0)
(0.42586 -0.0383181 0)
(0.428177 -0.0453363 0)
(0.430628 -0.0538949 0)
(0.435664 -0.0641441 0)
(0.412461 -2.86622e-05 0)
(0.412466 -0.000113586 0)
(0.41248 -0.000258104 0)
(0.412505 -0.000466256 0)
(0.412545 -0.000739643 0)
(0.412602 -0.00107791 0)
(0.412678 -0.00148 0)
(0.412776 -0.00194473 0)
(0.412899 -0.00247091 0)
(0.413049 -0.00305753 0)
(0.413227 -0.00370414 0)
(0.413435 -0.00441173 0)
(0.413674 -0.00518365 0)
(0.413945 -0.00602684 0)
(0.414248 -0.00695294 0)
(0.414584 -0.0079793 0)
(0.414953 -0.0091298 0)
(0.415356 -0.0104355 0)
(0.415794 -0.011935 0)
(0.416267 -0.0136758 0)
(0.416777 -0.0157149 0)
(0.417327 -0.0181213 0)
(0.417921 -0.0209795 0)
(0.418569 -0.0243934 0)
(0.419279 -0.028493 0)
(0.420093 -0.0334402 0)
(0.421002 -0.0394444 0)
(0.422264 -0.0467646 0)
(0.423453 -0.0557342 0)
(0.426755 -0.0668895 0)
(0.412461 -3.05433e-05 0)
(0.412465 -0.000120157 0)
(0.412475 -0.000271183 0)
(0.412495 -0.00048762 0)
(0.412525 -0.000771032 0)
(0.412567 -0.00112102 0)
(0.412623 -0.00153645 0)
(0.412694 -0.002016 0)
(0.412783 -0.00255829 0)
(0.412889 -0.00316209 0)
(0.413014 -0.00382672 0)
(0.413159 -0.00455283 0)
(0.413322 -0.0053435 0)
(0.413504 -0.00620536 0)
(0.413702 -0.0071498 0)
(0.413917 -0.00819392 0)
(0.414145 -0.00936137 0)
(0.414384 -0.010683 0)
(0.414629 -0.0121972 0)
(0.414876 -0.0139511 0)
(0.41512 -0.0160016 0)
(0.415352 -0.0184176 0)
(0.415564 -0.0212841 0)
(0.415748 -0.0247064 0)
(0.41589 -0.0288182 0)
(0.415996 -0.0337893 0)
(0.416025 -0.0398417 0)
(0.416145 -0.047272 0)
(0.415955 -0.056412 0)
(0.417203 -0.0681365 0)
(0.412461 -3.19838e-05 0)
(0.412463 -0.000125106 0)
(0.412471 -0.000280832 0)
(0.412484 -0.000503087 0)
(0.412505 -0.000793357 0)
(0.412532 -0.00115117 0)
(0.412568 -0.00157528 0)
(0.412613 -0.00206425 0)
(0.412666 -0.00261651 0)
(0.412729 -0.00323058 0)
(0.412801 -0.00390548 0)
(0.412881 -0.00464154 0)
(0.412968 -0.00544144 0)
(0.41306 -0.00631136 0)
(0.413155 -0.00726216 0)
(0.413248 -0.00831035 0)
(0.413335 -0.00947885 0)
(0.41341 -0.0107976 0)
(0.413465 -0.0123039 0)
(0.41349 -0.0140434 0)
(0.41347 -0.0160711 0)
(0.41339 -0.0184538 0)
(0.413226 -0.021274 0)
(0.412951 -0.0246343 0)
(0.412528 -0.0286663 0)
(0.411925 -0.0335394 0)
(0.411065 -0.0394773 0)
(0.410001 -0.0467955 0)
(0.40837 -0.0558143 0)
(0.407329 -0.0676548 0)
(0.41246 -3.30241e-05 0)
(0.412462 -0.000128542 0)
(0.412467 -0.000287187 0)
(0.412475 -0.000512778 0)
(0.412486 -0.000806703 0)
(0.412499 -0.00116839 0)
(0.412515 -0.0015965 0)
(0.412532 -0.00208944 0)
(0.412551 -0.00264548 0)
(0.412571 -0.00326288 0)
(0.41259 -0.00394036 0)
(0.412606 -0.00467786 0)
(0.412617 -0.00547758 0)
(0.41262 -0.00634511 0)
(0.412611 -0.00729058 0)
(0.412585 -0.00832956 0)
(0.412534 -0.00948379 0)
(0.41245 -0.0107816 0)
(0.41232 -0.0122584 0)
(0.412129 -0.0139571 0)
(0.411857 -0.0159294 0)
(0.411476 -0.0182375 0)
(0.410952 -0.0209584 0)
(0.410238 -0.0241876 0)
(0.409275 -0.0280482 0)
(0.40799 -0.0326996 0)
(0.40627 -0.0383536 0)
(0.404041 -0.0453199 0)
(0.400985 -0.0538928 0)
(0.39756 -0.0653053 0)
(0.41246 -3.3702e-05 0)
(0.412461 -0.000130575 0)
(0.412463 -0.000290428 0)
(0.412466 -0.00051691 0)
(0.412467 -0.000811284 0)
(0.412467 -0.00117289 0)
(0.412463 -0.00160029 0)
(0.412454 -0.00209178 0)
(0.412439 -0.00264545 0)
(0.412416 -0.00325931 0)
(0.412382 -0.00393179 0)
(0.412335 -0.0046624 0)
(0.412272 -0.00545281 0)
(0.412189 -0.0063079 0)
(0.412079 -0.00723688 0)
(0.411937 -0.00825409 0)
(0.411754 -0.00937965 0)
(0.411517 -0.0106398 0)
(0.411211 -0.012067 0)
(0.410816 -0.0137006 0)
(0.410306 -0.0155873 0)
(0.409645 -0.0177829 0)
(0.408787 -0.0203555 0)
(0.407669 -0.0233896 0)
(0.40621 -0.0269929 0)
(0.4043 -0.0313051 0)
(0.401792 -0.0365112 0)
(0.398488 -0.0428885 0)
(0.39411 -0.0506849 0)
(0.388404 -0.0610863 0)
(0.41246 -3.40706e-05 0)
(0.41246 -0.000131339 0)
(0.41246 -0.000290731 0)
(0.412458 -0.00051572 0)
(0.41245 -0.000807403 0)
(0.412436 -0.00116502 0)
(0.412413 -0.00158709 0)
(0.412379 -0.00207178 0)
(0.41233 -0.00261702 0)
(0.412266 -0.00322065 0)
(0.412181 -0.00388075 0)
(0.412073 -0.00459644 0)
(0.411938 -0.00536881 0)
(0.411771 -0.00620195 0)
(0.411565 -0.00710397 0)
(0.411313 -0.00808777 0)
(0.411003 -0.0091715 0)
(0.410622 -0.0103788 0)
(0.410152 -0.0117387 0)
(0.409569 -0.0132857 0)
(0.408841 -0.0150604 0)
(0.407927 -0.0171104 0)
(0.40677 -0.0194925 0)
(0.405297 -0.022276 0)
(0.403406 -0.0255476 0)
(0.400956 -0.0294183 0)
(0.397774 -0.0340324 0)
(0.393556 -0.0396085 0)
(0.388055 -0.0463283 0)
(0.380384 -0.055169 0)
(0.41246 -3.41754e-05 0)
(0.41246 -0.000130972 0)
(0.412457 -0.000288341 0)
(0.41245 -0.000509533 0)
(0.412435 -0.000795452 0)
(0.412408 -0.00114528 0)
(0.412366 -0.00155747 0)
(0.412307 -0.00203016 0)
(0.412227 -0.00256114 0)
(0.412122 -0.00314805 0)
(0.411989 -0.00378872 0)
(0.411823 -0.00448186 0)
(0.411619 -0.00522796 0)
(0.411372 -0.00603029 0)
(0.411075 -0.00689577 0)
(0.410718 -0.00783567 0)
(0.410291 -0.00886593 0)
(0.409777 -0.0100072 0)
(0.409157 -0.0112845 0)
(0.408404 -0.012727 0)
(0.407483 -0.0143682 0)
(0.406348 -0.016246 0)
(0.404937 -0.018404 0)
(0.403165 -0.0208935 0)
(0.400921 -0.0237756 0)
(0.398042 -0.0271259 0)
(0.394335 -0.0310372 0)
(0.389423 -0.0356481 0)
(0.383086 -0.0410581 0)
(0.373967 -0.0479011 0)
(0.41246 -3.40566e-05 0)
(0.412459 -0.000129649 0)
(0.412455 -0.000283577 0)
(0.412444 -0.000498756 0)
(0.412421 -0.000775931 0)
(0.412382 -0.00111426 0)
(0.412323 -0.00151223 0)
(0.412241 -0.00196789 0)
(0.41213 -0.00247899 0)
(0.411987 -0.00304301 0)
(0.411807 -0.00365756 0)
(0.411586 -0.004321 0)
(0.411318 -0.00503323 0)
(0.410996 -0.00579668 0)
(0.410613 -0.00661704 0)
(0.41016 -0.00750384 0)
(0.409625 -0.00847067 0)
(0.40899 -0.00953495 0)
(0.408236 -0.0107174 0)
(0.407334 -0.0120416 0)
(0.406247 -0.0135331 0)
(0.404927 -0.0152195 0)
(0.403309 -0.0171302 0)
(0.401305 -0.0192968 0)
(0.398798 -0.0217526 0)
(0.395616 -0.0245332 0)
(0.391558 -0.0276745 0)
(0.386214 -0.0312228 0)
(0.379388 -0.0351875 0)
(0.369478 -0.0397756 0)
(0.41246 -3.37892e-05 0)
(0.412459 -0.000127586 0)
(0.412453 -0.000276753 0)
(0.412438 -0.000483828 0)
(0.412408 -0.000749428 0)
(0.412359 -0.00107274 0)
(0.412284 -0.00145228 0)
(0.41218 -0.00188616 0)
(0.412041 -0.00237205 0)
(0.411862 -0.00290737 0)
(0.411639 -0.00348957 0)
(0.411366 -0.00411669 0)
(0.411037 -0.00478813 0)
(0.410646 -0.00550548 0)
(0.410185 -0.00627321 0)
(0.409644 -0.00709912 0)
(0.409011 -0.00799437 0)
(0.408269 -0.00897311 0)
(0.407397 -0.0100517 0)
(0.406368 -0.0112478 0)
(0.405144 -0.0125793 0)
(0.403678 -0.0140632 0)
(0.401904 -0.0157147 0)
(0.399735 -0.0175454 0)
(0.397059 -0.0195605 0)
(0.393705 -0.0217556 0)
(0.38948 -0.0241096 0)
(0.383984 -0.0265742 0)
(0.377041 -0.0290725 0)
(0.367047 -0.0313663 0)
(0.41246 -3.34605e-05 0)
(0.412459 -0.000125023 0)
(0.412452 -0.00026827 0)
(0.412434 -0.000465301 0)
(0.412399 -0.000716625 0)
(0.412339 -0.00102155 0)
(0.41225 -0.00137873 0)
(0.412125 -0.00178633 0)
(0.41196 -0.00224202 0)
(0.411748 -0.00274322 0)
(0.411485 -0.00328729 0)
(0.411164 -0.00387207 0)
(0.41078 -0.0044965 0)
(0.410325 -0.00516141 0)
(0.409793 -0.00587013 0)
(0.409173 -0.00662876 0)
(0.408454 -0.00744612 0)
(0.407619 -0.00833315 0)
(0.406647 -0.00930201 0)
(0.405513 -0.0103647 0)
(0.40418 -0.0115317 0)
(0.402604 -0.0128102 0)
(0.400724 -0.0142017 0)
(0.398459 -0.0156992 0)
(0.395704 -0.0172823 0)
(0.392307 -0.0189095 0)
(0.388092 -0.0205081 0)
(0.382707 -0.0219446 0)
(0.376006 -0.0230694 0)
(0.366587 -0.0232479 0)
(0.41246 -3.31692e-05 0)
(0.412459 -0.000122286 0)
(0.412452 -0.000258634 0)
(0.412432 -0.000443793 0)
(0.412392 -0.000678276 0)
(0.412323 -0.000961637 0)
(0.412221 -0.00129277 0)
(0.412078 -0.0016699 0)
(0.411889 -0.00209079 0)
(0.411647 -0.00255292 0)
(0.411347 -0.00305367 0)
(0.410983 -0.00359071 0)
(0.410548 -0.00416265 0)
(0.410037 -0.00476965 0)
(0.409441 -0.00541399 0)
(0.408752 -0.00610022 0)
(0.407957 -0.00683498 0)
(0.407042 -0.00762629 0)
(0.405988 -0.00848242 0)
(0.404769 -0.00941032 0)
(0.403356 -0.0104138 0)
(0.401705 -0.0114911 0)
(0.399765 -0.0126322 0)
(0.397465 -0.0138142 0)
(0.394714 -0.0149946 0)
(0.391387 -0.0161016 0)
(0.387339 -0.0170211 0)
(0.382292 -0.0175518 0)
(0.376135 -0.0174931 0)
(0.36782 -0.0159132 0)
(0.41246 -3.30458e-05 0)
(0.412459 -0.000119819 0)
(0.412454 -0.000248475 0)
(0.412433 -0.000420011 0)
(0.412388 -0.000635226 0)
(0.412312 -0.000894058 0)
(0.412198 -0.00119567 0)
(0.412039 -0.00153844 0)
(0.411829 -0.00192027 0)
(0.41156 -0.00233882 0)
(0.411227 -0.00279158 0)
(0.410824 -0.00327622 0)
(0.410345 -0.0037911 0)
(0.409783 -0.00433584 0)
(0.409131 -0.0049118 0)
(0.408381 -0.00552214 0)
(0.407522 -0.00617154 0)
(0.406541 -0.00686543 0)
(0.40542 -0.00760872 0)
(0.404137 -0.00840407 0)
(0.402667 -0.00924969 0)
(0.400974 -0.0101367 0)
(0.399013 -0.0110458 0)
(0.396729 -0.0119417 0)
(0.394052 -0.0127658 0)
(0.390886 -0.0134241 0)
(0.387128 -0.0137746 0)
(0.382589 -0.0135715 0)
(0.377199 -0.0125871 0)
(0.370336 -0.00972015 0)
(0.41246 -3.33095e-05 0)
(0.41246 -0.000118173 0)
(0.412456 -0.000238585 0)
(0.412436 -0.000394789 0)
(0.412389 -0.000588382 0)
(0.412307 -0.000820059 0)
(0.412183 -0.00108909 0)
(0.41201 -0.00139394 0)
(0.411781 -0.00173273 0)
(0.411488 -0.0021034 0)
(0.411126 -0.00250367 0)
(0.410689 -0.0029313 0)
(0.41017 -0.00338458 0)
(0.409564 -0.00386278 0)
(0.408865 -0.00436653 0)
(0.408063 -0.00489786 0)
(0.40715 -0.00545984 0)
(0.406115 -0.00605577 0)
(0.404941 -0.00668791 0)
(0.403613 -0.00735556 0)
(0.402106 -0.00805269 0)
(0.400396 -0.00876521 0)
(0.398447 -0.00946726 0)
(0.39622 -0.0101158 0)
(0.393666 -0.0106423 0)
(0.390728 -0.0109402 0)
(0.387342 -0.0108539 0)
(0.383418 -0.0101181 0)
(0.378924 -0.00850102 0)
(0.373671 -0.00486468 0)
(0.412461 -3.43831e-05 0)
(0.412463 -0.000118303 0)
(0.412462 -0.0002298 0)
(0.412444 -0.000368819 0)
(0.412396 -0.000538377 0)
(0.412309 -0.000740427 0)
(0.412177 -0.000974402 0)
(0.411992 -0.00123876 0)
(0.411747 -0.00153192 0)
(0.411434 -0.00185213 0)
(0.411047 -0.00219738 0)
(0.41058 -0.00256556 0)
(0.410028 -0.00295494 0)
(0.409385 -0.00336457 0)
(0.408645 -0.00379451 0)
(0.4078 -0.00424585 0)
(0.406843 -0.00472037 0)
(0.405764 -0.00521977 0)
(0.404551 -0.00574444 0)
(0.40319 -0.00629146 0)
(0.401665 -0.00685199 0)
(0.399957 -0.00740867 0)
(0.398043 -0.00793234 0)
(0.395899 -0.0083766 0)
(0.393501 -0.00866983 0)
(0.390825 -0.00870265 0)
(0.387852 -0.00831972 0)
(0.384581 -0.00725985 0)
(0.38102 -0.00530552 0)
(0.37736 -0.0014 0)
(0.412462 -3.70055e-05 0)
(0.412468 -0.000121997 0)
(0.412473 -0.000223705 0)
(0.412458 -0.000343435 0)
(0.41241 -0.000486291 0)
(0.41232 -0.000655114 0)
(0.412181 -0.000849618 0)
(0.411986 -0.00106859 0)
(0.411727 -0.00131097 0)
(0.411397 -0.00157555 0)
(0.410989 -0.00186072 0)
(0.410498 -0.00216473 0)
(0.409918 -0.00248603 0)
(0.409244 -0.00282359 0)
(0.40847 -0.00317709 0)
(0.407591 -0.00354691 0)
(0.406599 -0.00393379 0)
(0.405487 -0.00433829 0)
(0.404244 -0.00475975 0)
(0.402863 -0.00519427 0)
(0.401331 -0.00563179 0)
(0.399638 -0.00605365 0)
(0.397772 -0.00643017 0)
(0.395725 -0.0067159 0)
(0.393495 -0.00684224 0)
(0.39109 -0.00670584 0)
(0.388531 -0.00616371 0)
(0.385893 -0.00497854 0)
(0.383223 -0.00296213 0)
(0.381 0.000780624 0)
(0.412463 -4.21983e-05 0)
(0.412477 -0.000130537 0)
(0.412492 -0.000222079 0)
(0.412485 -0.000323041 0)
(0.412438 -0.000440871 0)
(0.412346 -0.000578344 0)
(0.412203 -0.000735028 0)
(0.412001 -0.000910004 0)
(0.411732 -0.00110259 0)
(0.411388 -0.00131194 0)
(0.410963 -0.0015369 0)
(0.410452 -0.00177614 0)
(0.409849 -0.00202846 0)
(0.409151 -0.00229296 0)
(0.408351 -0.00256917 0)
(0.407444 -0.00285711 0)
(0.406426 -0.00315698 0)
(0.40529 -0.0034689 0)
(0.404027 -0.00379195 0)
(0.402634 -0.00412184 0)
(0.401105 -0.00444819 0)
(0.399436 -0.00475321 0)
(0.397626 -0.00501018 0)
(0.39568 -0.00517883 0)
(0.393615 -0.00519895 0)
(0.391468 -0.00498014 0)
(0.389295 -0.00440124 0)
(0.387223 -0.00326176 0)
(0.385342 -0.0014207 0)
(0.384306 0.00180466 0)
(0.412467 -5.52473e-05 0)
(0.412495 -0.000141064 0)
(0.412524 -0.000209325 0)
(0.412523 -0.000281102 0)
(0.412478 -0.00036553 0)
(0.412385 -0.000463627 0)
(0.412239 -0.000574784 0)
(0.412033 -0.000698857 0)
(0.411757 -0.00083576 0)
(0.411404 -0.000985059 0)
(0.410969 -0.00114605 0)
(0.410446 -0.00131793 0)
(0.409829 -0.00149987 0)
(0.409116 -0.001691 0)
(0.408301 -0.00189057 0)
(0.407381 -0.00209787 0)
(0.40635 -0.00231215 0)
(0.405203 -0.00253334 0)
(0.403936 -0.00276275 0)
(0.402548 -0.00299906 0)
(0.401038 -0.0032321 0)
(0.399406 -0.00344337 0)
(0.39766 -0.00360988 0)
(0.395815 -0.00370082 0)
(0.393903 -0.00366989 0)
(0.391983 -0.00344489 0)
(0.390137 -0.00293316 0)
(0.388519 -0.00197301 0)
(0.387272 -0.000481607 0)
(0.387058 0.00199046 0)
(0.412473 -0.000103404 0)
(0.412569 -0.000214133 0)
(0.4126 -0.000266164 0)
(0.412575 -0.000311749 0)
(0.412509 -0.000366266 0)
(0.4124 -0.000428623 0)
(0.41224 -0.000497564 0)
(0.41202 -0.000573306 0)
(0.411733 -0.000656007 0)
(0.411371 -0.000745521 0)
(0.410927 -0.000841689 0)
(0.410393 -0.000944357 0)
(0.409765 -0.00105328 0)
(0.409035 -0.00116809 0)
(0.4082 -0.00128845 0)
(0.407258 -0.00141415 0)
(0.406206 -0.00154495 0)
(0.405043 -0.00168059 0)
(0.403766 -0.0018206 0)
(0.402366 -0.00196283 0)
(0.400833 -0.00210124 0)
(0.399175 -0.002225 0)
(0.397411 -0.00231856 0)
(0.395571 -0.00235963 0)
(0.393699 -0.00231553 0)
(0.391862 -0.0021372 0)
(0.390178 -0.00176091 0)
(0.38879 -0.00107158 0)
(0.387987 -1.73339e-05 0)
(0.387841 0.00179903 0)
(0.412276 -7.06432e-05 0)
(0.412142 -0.000144094 0)
(0.4119 -0.000167606 0)
(0.411575 -0.000186944 0)
(0.411197 -0.000211026 0)
(0.410771 -0.000237596 0)
(0.410286 -0.000265713 0)
(0.409734 -0.000295555 0)
(0.409108 -0.000327088 0)
(0.408403 -0.000359948 0)
(0.407613 -0.000393764 0)
(0.406734 -0.000428418 0)
(0.40576 -0.000464187 0)
(0.404687 -0.00050175 0)
(0.40351 -0.000542 0)
(0.402222 -0.000585771 0)
(0.400817 -0.000633676 0)
(0.399289 -0.000685246 0)
(0.397634 -0.000737694 0)
(0.395852 -0.000787384 0)
(0.393946 -0.000832752 0)
(0.391925 -0.000872799 0)
(0.389809 -0.00090269 0)
(0.387635 -0.000912581 0)
(0.385467 -0.000889031 0)
(0.38341 -0.000812427 0)
(0.381618 -0.000662995 0)
(0.38033 -0.00037992 0)
(0.379855 3.06818e-05 0)
(0.380203 0.000768218 0)
(0.477274 -0.00582431 -6.73087e-20)
(0.481038 -0.00877879 -6.72597e-20)
(0.484349 -0.0124146 -9.60703e-19)
(0.48696 -0.0164423 -2.76293e-19)
(0.489221 -0.0207592 2.8039e-19)
(0.491284 -0.0253214 0)
(0.493174 -0.0301317 0)
(0.494926 -0.0352183 2.88731e-19)
(0.496601 -0.0406141 -2.93663e-19)
(0.498247 -0.0463495 -5.90674e-19)
(0.499885 -0.0524544 6.01249e-19)
(0.50152 -0.0589656 0)
(0.503148 -0.0659304 -6.10226e-19)
(0.504767 -0.0734091 6.21924e-19)
(0.506379 -0.0814773 0)
(0.507988 -0.0902275 1.25832e-18)
(0.509602 -0.0997735 6.31206e-19)
(0.511226 -0.110255 6.29208e-19)
(0.51286 -0.121847 6.35198e-19)
(0.514503 -0.134767 6.26764e-19)
(0.516146 -0.149296 -6.295e-19)
(0.517775 -0.165792 1.89738e-18)
(0.519352 -0.184727 0)
(0.520835 -0.206717 -1.18567e-18)
(0.522065 -0.232618 5.47141e-19)
(0.522918 -0.263556 -1.09374e-18)
(0.523011 -0.300636 -1.40147e-18)
(0.52048 -0.349746 0)
(0.520257 -0.394285 0)
(0.496649 -0.50969 3.15283e-20)
(0.481029 -0.0134378 -1.10172e-18)
(0.483422 -0.0167875 0)
(0.485388 -0.0207566 0)
(0.48695 -0.0249792 -1.1381e-18)
(0.488363 -0.0293825 1.15221e-18)
(0.489746 -0.0339965 1.16648e-18)
(0.491108 -0.0388686 -2.93924e-19)
(0.49245 -0.0440329 2.99051e-19)
(0.493787 -0.0495117 9.10754e-19)
(0.495121 -0.0553275 1.53473e-18)
(0.496435 -0.0615116 -6.17759e-19)
(0.497711 -0.0681074 1.26452e-18)
(0.498939 -0.0751701 6.3765e-19)
(0.500113 -0.0827663 6.52548e-19)
(0.501233 -0.0909751 6.53602e-19)
(0.502295 -0.099891 1.32424e-18)
(0.503293 -0.109628 0)
(0.504213 -0.120327 -6.6512e-19)
(0.505033 -0.13216 -6.82167e-19)
(0.505722 -0.145345 0)
(0.506236 -0.160157 6.69175e-19)
(0.506512 -0.176944 6.87034e-19)
(0.506449 -0.196159 -1.36335e-18)
(0.505918 -0.218379 0)
(0.504635 -0.244398 6.10327e-19)
(0.502373 -0.275182 6.24244e-19)
(0.49831 -0.312033 -1.16423e-18)
(0.491242 -0.358342 4.1724e-19)
(0.484056 -0.404791 -4.33463e-19)
(0.453784 -0.508627 5.12421e-20)
(0.479386 -0.0206499 1.12209e-18)
(0.480925 -0.0239087 0)
(0.482259 -0.0277689 -1.43433e-19)
(0.483527 -0.0319307 2.47666e-18)
(0.484795 -0.0363288 -8.83602e-19)
(0.486067 -0.0409774 -1.79076e-18)
(0.487312 -0.0458984 1.51966e-18)
(0.488505 -0.0511064 -3.06384e-19)
(0.489638 -0.0566205 -9.29744e-19)
(0.490703 -0.0624719 -3.0469e-19)
(0.49169 -0.0687034 3.21087e-19)
(0.492594 -0.0753655 -1.94191e-18)
(0.493413 -0.0825155 1.31777e-18)
(0.494141 -0.0902186 -2.00055e-18)
(0.494771 -0.0985518 0)
(0.495285 -0.107608 -1.36488e-18)
(0.49566 -0.117499 0)
(0.495862 -0.128366 0)
(0.495848 -0.140377 1.40954e-18)
(0.495562 -0.153747 0)
(0.494924 -0.168737 0)
(0.493827 -0.185682 -1.42787e-18)
(0.492109 -0.205007 1.42154e-18)
(0.489562 -0.227244 0)
(0.485799 -0.253116 0)
(0.480482 -0.283461 -1.31902e-18)
(0.472496 -0.31956 4.73894e-19)
(0.46113 -0.363356 -3.63035e-19)
(0.446636 -0.410738 -2.8168e-19)
(0.411003 -0.502906 0)
(0.47738 -0.0280793 -3.58119e-20)
(0.478593 -0.0314266 -3.62185e-20)
(0.479637 -0.0353398 1.11027e-18)
(0.480711 -0.0395423 -2.39317e-18)
(0.481777 -0.0439713 1.51931e-19)
(0.482776 -0.0486379 3.0725e-19)
(0.483686 -0.0535678 -3.0265e-19)
(0.484508 -0.0587871 0)
(0.485246 -0.064326 1.6159e-18)
(0.485899 -0.0702214 -2.94516e-18)
(0.48646 -0.0765154 1.33701e-18)
(0.486921 -0.0832544 6.73489e-19)
(0.48727 -0.090491 -2.07005e-18)
(0.487488 -0.0982881 0)
(0.48755 -0.106722 0)
(0.487426 -0.115885 1.4539e-18)
(0.487077 -0.125889 1.47852e-18)
(0.486455 -0.136869 7.38888e-19)
(0.485495 -0.14899 -8.81664e-21)
(0.484115 -0.162453 -7.69145e-19)
(0.482201 -0.177507 0)
(0.479604 -0.194459 0)
(0.476106 -0.213697 -8.3576e-19)
(0.471431 -0.235697 -2.42855e-18)
(0.465106 -0.261096 0)
(0.4567 -0.29059 -8.71665e-19)
(0.444881 -0.325327 1.39486e-18)
(0.429353 -0.366441 -2.66962e-18)
(0.407808 -0.412592 3.60611e-19)
(0.368495 -0.492938 0)
(0.474535 -0.0353932 0)
(0.475404 -0.0387695 1.19845e-18)
(0.476083 -0.0426711 -1.05782e-18)
(0.476839 -0.0468585 1.07341e-18)
(0.47759 -0.0512848 1.56116e-19)
(0.478248 -0.0559644 -1.59024e-19)
(0.478802 -0.0609227 -1.28574e-18)
(0.479267 -0.0661843 0)
(0.47964 -0.0717757 1.511e-20)
(0.479909 -0.0777291 1.35121e-18)
(0.480057 -0.0840826 -1.71965e-18)
(0.480065 -0.0908811 1.77155e-18)
(0.479911 -0.0981779 1.78147e-18)
(0.479569 -0.106037 -3.65948e-19)
(0.479005 -0.114534 2.24582e-18)
(0.478179 -0.123758 -1.48586e-18)
(0.477041 -0.133818 -1.55015e-18)
(0.475525 -0.144841 -7.90973e-19)
(0.473548 -0.15698 0)
(0.471001 -0.170422 0)
(0.467739 -0.185395 0)
(0.463575 -0.202174 8.4315e-19)
(0.458245 -0.221103 2.59287e-18)
(0.451415 -0.242593 8.43679e-19)
(0.442549 -0.267182 1.77639e-18)
(0.431136 -0.295426 -1.05544e-18)
(0.415718 -0.328317 1.89341e-18)
(0.396242 -0.366405 -2.2468e-19)
(0.36839 -0.409927 1.48617e-18)
(0.326772 -0.478853 2.22212e-18)
(0.470852 -0.0425777 -1.21369e-18)
(0.471391 -0.0459943 -1.22453e-18)
(0.471719 -0.049913 -1.25708e-18)
(0.472161 -0.0541191 0)
(0.472603 -0.0585708 0)
(0.472929 -0.0632789 -1.32315e-18)
(0.473126 -0.0682654 0)
(0.473212 -0.073553 1.03248e-18)
(0.47318 -0.0791683 -2.43244e-18)
(0.473009 -0.0851439 1.4274e-18)
(0.472676 -0.0915191 1.09604e-18)
(0.472159 -0.0983392 -2.94858e-18)
(0.471431 -0.105657 1.03452e-21)
(0.470459 -0.113533 -1.16876e-18)
(0.469201 -0.122039 3.41104e-20)
(0.467605 -0.13126 -1.58883e-18)
(0.465608 -0.141294 -4.27211e-20)
(0.463127 -0.15226 1.70879e-18)
(0.460061 -0.164298 -8.93902e-19)
(0.456276 -0.177576 -8.86025e-19)
(0.451604 -0.192294 1.85097e-18)
(0.445822 -0.208693 0)
(0.438631 -0.227063 -1.86485e-18)
(0.42965 -0.247745 0)
(0.418302 -0.271172 -2.08769e-18)
(0.404012 -0.297767 1.99322e-18)
(0.38527 -0.328331 2.00671e-19)
(0.362145 -0.362981 2.05499e-18)
(0.328947 -0.402712 -2.58527e-18)
(0.285891 -0.460792 1.01963e-18)
(0.46625 -0.0495508 1.20153e-18)
(0.466449 -0.0530045 -3.96657e-20)
(0.466407 -0.0569332 1.52905e-18)
(0.466507 -0.0611433 4.97908e-19)
(0.466606 -0.0655976 0)
(0.46656 -0.0703066 1.35756e-18)
(0.466358 -0.0752921 1.04974e-18)
(0.466018 -0.0805776 -1.76662e-18)
(0.465534 -0.0861896 7.08223e-19)
(0.464878 -0.0921599 -7.22214e-19)
(0.464022 -0.0985257 -1.50177e-18)
(0.462939 -0.10533 1.53517e-18)
(0.461594 -0.11262 -4.05937e-19)
(0.459948 -0.120454 1.20115e-18)
(0.457947 -0.128898 -3.8648e-19)
(0.455531 -0.138028 -4.27736e-19)
(0.452622 -0.147935 2.62501e-18)
(0.449125 -0.158726 -2.69877e-18)
(0.444921 -0.170522 1.83001e-18)
(0.43986 -0.183471 5.00041e-19)
(0.43375 -0.197741 -1.4454e-18)
(0.426342 -0.213533 1.05036e-18)
(0.417312 -0.231081 0)
(0.406247 -0.250651 -5.49495e-19)
(0.392545 -0.272572 2.79633e-18)
(0.375587 -0.297135 0)
(0.353883 -0.324932 -4.32962e-18)
(0.327535 -0.355764 6.63866e-19)
(0.290085 -0.390865 0)
(0.246589 -0.438858 -2.66729e-18)
(0.460637 -0.0561798 -6.47903e-19)
(0.460477 -0.0596616 -8.21602e-20)
(0.460047 -0.0635858 -5.07964e-19)
(0.459782 -0.0677816 -7.65043e-19)
(0.459512 -0.0722173 1.74301e-19)
(0.459069 -0.076904 -1.7799e-19)
(0.458438 -0.0818626 -7.21644e-19)
(0.457643 -0.0871151 -7.50546e-19)
(0.456674 -0.0926865 7.53927e-19)
(0.455498 -0.0986063 -3.82102e-19)
(0.454081 -0.104909 -3.98862e-19)
(0.45239 -0.111633 0)