/*--------------------------------*- C++ -*----------------------------------*\
  =========                 |
  \\      /  F ield         | OpenFOAM: The Open Source CFD Toolbox
   \\    /   O peration     | Website:  https://openfoam.org
    \\  /    A nd           | Version:  11
     \\/     M anipulation  |
\*---------------------------------------------------------------------------*/
FoamFile
{
    format      ascii;
    class       volVectorField;
    location    "6";
    object      U;
}
// * * * * * * * * * * * * * * * * * * * * * * * * * * * * * * * * * * * * * //

dimensions      [0 1 -1 0 0 0 0];

internalField   nonuniform List<vector> 
12600
(
(0.399657 0.000102937 0)
(0.399403 0.000175531 0)
(0.399024 0.000179978 0)
(0.398604 0.000176873 0)
(0.398213 0.000174823 0)
(0.397861 0.000170413 0)
(0.397545 0.000163551 0)
(0.397267 0.000153754 0)
(0.397036 0.000140948 0)
(0.396864 0.000125611 0)
(0.396762 0.000109484 0)
(0.396745 8.62618e-05 0)
(0.39683 5.44142e-05 0)
(0.397041 1.24275e-05 0)
(0.397407 -3.80071e-05 0)
(0.397964 -9.2973e-05 0)
(0.398753 -0.000161028 0)
(0.399834 -0.000250276 0)
(0.401268 -0.000357024 0)
(0.403119 -0.00048073 0)
(0.405485 -0.000633868 0)
(0.4085 -0.000825379 0)
(0.412315 -0.0010624 0)
(0.417106 -0.00135319 0)
(0.423093 -0.0017087 0)
(0.430506 -0.00213529 0)
(0.439671 -0.00266743 0)
(0.450935 -0.00322001 0)
(0.464609 -0.00426216 0)
(0.484007 -0.00367046 0)
(0.400036 0.00014937 0)
(0.400176 0.000257215 0)
(0.400349 0.000229406 0)
(0.400454 0.000206203 0)
(0.40057 0.000186289 0)
(0.40072 0.000161914 0)
(0.400905 0.00013252 0)
(0.401126 0.000100099 0)
(0.40139 6.06704e-05 0)
(0.401707 1.248e-05 0)
(0.402086 -4.63647e-05 0)
(0.402541 -0.000117181 0)
(0.403084 -0.000201717 0)
(0.403733 -0.000303177 0)
(0.404513 -0.000426661 0)
(0.405437 -0.000579522 0)
(0.406558 -0.000768676 0)
(0.407897 -0.00100062 0)
(0.409459 -0.00128737 0)
(0.411503 -0.00164404 0)
(0.414012 -0.00208266 0)
(0.417075 -0.00261839 0)
(0.420822 -0.00327308 0)
(0.425409 -0.00407417 0)
(0.431025 -0.00504911 0)
(0.43791 -0.00623009 0)
(0.446335 -0.00767389 0)
(0.456692 -0.00933038 0)
(0.469226 -0.0117143 0)
(0.485014 -0.0123944 0)
(0.400023 7.66741e-05 0)
(0.400107 0.000126573 0)
(0.40022 0.000105176 0)
(0.400326 7.90573e-05 0)
(0.400435 5.52959e-05 0)
(0.400571 2.35366e-05 0)
(0.400741 -2.30541e-05 0)
(0.400947 -8.0197e-05 0)
(0.401196 -0.000144961 0)
(0.401496 -0.000220837 0)
(0.401857 -0.000311627 0)
(0.402292 -0.000420821 0)
(0.402814 -0.000552916 0)
(0.403443 -0.000713933 0)
(0.404201 -0.000909814 0)
(0.405117 -0.00114921 0)
(0.406229 -0.0014418 0)
(0.407583 -0.0017946 0)
(0.409234 -0.00224027 0)
(0.411236 -0.00280784 0)
(0.413662 -0.00350206 0)
(0.416625 -0.00434409 0)
(0.420254 -0.0053723 0)
(0.424703 -0.00663209 0)
(0.430155 -0.00817298 0)
(0.436856 -0.010051 0)
(0.44504 -0.0123515 0)
(0.455229 -0.0150562 0)
(0.467278 -0.0186737 0)
(0.483676 -0.0211945 0)
(0.400015 4.46015e-05 0)
(0.400074 9.44793e-05 0)
(0.400171 9.14054e-05 0)
(0.400272 6.57116e-05 0)
(0.400379 3.07131e-05 0)
(0.400508 -1.41507e-05 0)
(0.400669 -7.466e-05 0)
(0.400869 -0.000148086 0)
(0.40111 -0.000236008 0)
(0.401401 -0.00034081 0)
(0.40175 -0.000465977 0)
(0.402171 -0.000616523 0)
(0.402676 -0.000798672 0)
(0.403284 -0.00101996 0)
(0.404017 -0.00128916 0)
(0.404903 -0.00161789 0)
(0.405977 -0.00202061 0)
(0.407283 -0.00251486 0)
(0.408872 -0.00313076 0)
(0.410802 -0.00389612 0)
(0.413147 -0.00483223 0)
(0.416009 -0.00597584 0)
(0.419512 -0.00737841 0)
(0.423806 -0.00910009 0)
(0.42907 -0.011211 0)
(0.435548 -0.0137896 0)
(0.443457 -0.0169539 0)
(0.453347 -0.0207087 0)
(0.465003 -0.0256251 0)
(0.481122 -0.0298271 0)
(0.40001 2.57775e-05 0)
(0.400053 5.54459e-05 0)
(0.400131 4.35194e-05 0)
(0.400223 3.26357e-06 0)
(0.400326 -4.98762e-05 0)
(0.400451 -0.000113963 0)
(0.400606 -0.00019172 0)
(0.400797 -0.000285656 0)
(0.401029 -0.000397934 0)
(0.401307 -0.000530954 0)
(0.401642 -0.000689153 0)
(0.402045 -0.000878867 0)
(0.402528 -0.00110791 0)
(0.403109 -0.00138585 0)
(0.40381 -0.00172432 0)
(0.404657 -0.00213797 0)
(0.405682 -0.00264509 0)
(0.406926 -0.00326786 0)
(0.408439 -0.00403685 0)
(0.410278 -0.00498694 0)
(0.412514 -0.00615436 0)
(0.415242 -0.0075863 0)
(0.41858 -0.00934459 0)
(0.422673 -0.0115043 0)
(0.427689 -0.0141553 0)
(0.433869 -0.0174005 0)
(0.441414 -0.0213857 0)
(0.450892 -0.0261638 0)
(0.462013 -0.0323002 0)
(0.477683 -0.0382211 0)
(0.400007 1.23594e-05 0)
(0.40004 2.31312e-05 0)
(0.400106 4.25779e-06 0)
(0.400191 -3.97382e-05 0)
(0.400289 -9.9463e-05 0)
(0.400408 -0.000173911 0)
(0.400555 -0.000265345 0)
(0.400736 -0.000376487 0)
(0.400955 -0.000509395 0)
(0.401219 -0.000667133 0)
(0.401535 -0.000855052 0)
(0.401916 -0.00108068 0)
(0.402372 -0.0013534 0)
(0.402921 -0.00168474 0)
(0.403581 -0.0020887 0)
(0.404379 -0.00258264 0)
(0.405344 -0.00318808 0)
(0.406515 -0.00393156 0)
(0.407936 -0.00484742 0)
(0.409664 -0.00597684 0)
(0.411766 -0.0073661 0)
(0.414329 -0.00907248 0)
(0.417465 -0.0111693 0)
(0.421309 -0.0137464 0)
(0.426021 -0.0169132 0)
(0.431832 -0.0207967 0)
(0.438924 -0.0255708 0)
(0.447875 -0.031339 0)
(0.458331 -0.038656 0)
(0.473372 -0.0462648 0)
(0.400006 2.54564e-06 0)
(0.400032 -2.55641e-06 0)
(0.400088 -3.04414e-05 0)
(0.400165 -8.25773e-05 0)
(0.400257 -0.000153881 0)
(0.400368 -0.000242771 0)
(0.400505 -0.000350837 0)
(0.400674 -0.00048075 0)
(0.400879 -0.000635243 0)
(0.401126 -0.000818238 0)
(0.401421 -0.0010359 0)
(0.401776 -0.00129678 0)
(0.402201 -0.00161172 0)
(0.402711 -0.00199399 0)
(0.403325 -0.00245979 0)
(0.404065 -0.00302905 0)
(0.404961 -0.0037264 0)
(0.406045 -0.00458234 0)
(0.407361 -0.00563518 0)
(0.408959 -0.00693155 0)
(0.410903 -0.00852626 0)
(0.413274 -0.0104865 0)
(0.416173 -0.0128967 0)
(0.419725 -0.0158609 0)
(0.424079 -0.0195066 0)
(0.429451 -0.0239846 0)
(0.436006 -0.0294961 0)
(0.444319 -0.0361974 0)
(0.453982 -0.0446296 0)
(0.468201 -0.0538769 0)
(0.400005 -5.49405e-06 0)
(0.400027 -2.42141e-05 0)
(0.400075 -6.16656e-05 0)
(0.400143 -0.000122052 0)
(0.400228 -0.000203286 0)
(0.400331 -0.000304128 0)
(0.400458 -0.000425918 0)
(0.400614 -0.000571405 0)
(0.400803 -0.000744022 0)
(0.401031 -0.000948523 0)
(0.401302 -0.00119188 0)
(0.401628 -0.00148364 0)
(0.402017 -0.00183594 0)
(0.402484 -0.00226371 0)
(0.403045 -0.00278515 0)
(0.40372 -0.00342248 0)
(0.404536 -0.00420316 0)
(0.405523 -0.00516118 0)
(0.406719 -0.00633879 0)
(0.408172 -0.00778776 0)
(0.409937 -0.00957037 0)
(0.412089 -0.0117629 0)
(0.414717 -0.0144601 0)
(0.417937 -0.0177791 0)
(0.421881 -0.0218643 0)
(0.42675 -0.0268894 0)
(0.432687 -0.0330817 0)
(0.440253 -0.0406511 0)
(0.448996 -0.050126 0)
(0.462186 -0.0609483 0)
(0.400004 -1.20336e-05 0)
(0.400022 -4.20587e-05 0)
(0.400064 -8.95381e-05 0)
(0.400125 -0.000158385 0)
(0.400202 -0.00024881 0)
(0.400296 -0.000360616 0)
(0.400412 -0.000495255 0)
(0.400554 -0.000655614 0)
(0.400726 -0.000845593 0)
(0.400931 -0.00107054 0)
(0.401176 -0.00133807 0)
(0.401469 -0.00165861 0)
(0.401819 -0.00204546 0)
(0.402238 -0.002515 0)
(0.40274 -0.00308717 0)
(0.403344 -0.0037863 0)
(0.404072 -0.00464232 0)
(0.404951 -0.00569229 0)
(0.406016 -0.00698211 0)
(0.407306 -0.00856822 0)
(0.408874 -0.0105193 0)
(0.410783 -0.0129194 0)
(0.413112 -0.0158728 0)
(0.415963 -0.0195083 0)
(0.41945 -0.0239858 0)
(0.423757 -0.0294998 0)
(0.429001 -0.036303 0)
(0.435715 -0.0446568 0)
(0.443417 -0.05508 0)
(0.455357 -0.0673814 0)
(0.400004 -1.72779e-05 0)
(0.400019 -5.77789e-05 0)
(0.400055 -0.000114206 0)
(0.400109 -0.000190948 0)
(0.400178 -0.00028985 0)
(0.400263 -0.000411644 0)
(0.400367 -0.000557879 0)
(0.400493 -0.000731429 0)
(0.400646 -0.000936505 0)
(0.400828 -0.00117903 0)
(0.401044 -0.00146732 0)
(0.401302 -0.00181262 0)
(0.401609 -0.00222925 0)
(0.401975 -0.00273488 0)
(0.402414 -0.00335094 0)
(0.40294 -0.00410356 0)
(0.403573 -0.00502486 0)
(0.404336 -0.00615454 0)
(0.405258 -0.00754173 0)
(0.406373 -0.00924696 0)
(0.407727 -0.0113443 0)
(0.409372 -0.0139246 0)
(0.411376 -0.0171003 0)
(0.413824 -0.0210104 0)
(0.416815 -0.0258283 0)
(0.420506 -0.0317671 0)
(0.424988 -0.0391025 0)
(0.430752 -0.0481444 0)
(0.437301 -0.059404 0)
(0.447764 -0.073054 0)
(0.400003 -2.18016e-05 0)
(0.400016 -7.11684e-05 0)
(0.400047 -0.000135703 0)
(0.400094 -0.000219913 0)
(0.400155 -0.000326552 0)
(0.40023 -0.000457084 0)
(0.400322 -0.000613279 0)
(0.400432 -0.000798119 0)
(0.400564 -0.00101613 0)
(0.400721 -0.00127374 0)
(0.400907 -0.00157985 0)
(0.401127 -0.00194638 0)
(0.401389 -0.00238851 0)
(0.401699 -0.00292496 0)
(0.402069 -0.00357843 0)
(0.402512 -0.00437656 0)
(0.403044 -0.00535326 0)
(0.403682 -0.00655044 0)
(0.404452 -0.00801996 0)
(0.405382 -0.00982571 0)
(0.406506 -0.0120461 0)
(0.40787 -0.0147776 0)
(0.409527 -0.0181391 0)
(0.411546 -0.0222782 0)
(0.414006 -0.0273795 0)
(0.417034 -0.0336713 0)
(0.420696 -0.0414496 0)
(0.425422 -0.0510671 0)
(0.430715 -0.0630287 0)
(0.439481 -0.0778545 0)
(0.400003 -2.56471e-05 0)
(0.400014 -8.26676e-05 0)
(0.40004 -0.000154409 0)
(0.400081 -0.000245299 0)
(0.400134 -0.000358648 0)
(0.400199 -0.000496542 0)
(0.400277 -0.000661044 0)
(0.40037 -0.000855261 0)
(0.400481 -0.00108394 0)
(0.400612 -0.00135389 0)
(0.400766 -0.00167451 0)
(0.400946 -0.00205826 0)
(0.401159 -0.00252102 0)
(0.401411 -0.00308236 0)
(0.40171 -0.00376598 0)
(0.402065 -0.00460071 0)
(0.40249 -0.0056219 0)
(0.402998 -0.00687318 0)
(0.403608 -0.00840854 0)
(0.404342 -0.0102945 0)
(0.405227 -0.012613 0)
(0.406295 -0.0154643 0)
(0.407588 -0.0189728 0)
(0.409156 -0.0232921 0)
(0.411055 -0.0286154 0)
(0.413384 -0.035183 0)
(0.416179 -0.0433063 0)
(0.419792 -0.0533737 0)
(0.423743 -0.0658828 0)
(0.430609 -0.0816686 0)
(0.400002 -2.89225e-05 0)
(0.400012 -9.25039e-05 0)
(0.400034 -0.000170462 0)
(0.400069 -0.00026709 0)
(0.400114 -0.000386044 0)
(0.400168 -0.000529888 0)
(0.400233 -0.000700957 0)
(0.400309 -0.000902486 0)
(0.400397 -0.00113939 0)
(0.400501 -0.00141879 0)
(0.400621 -0.00175044 0)
(0.400761 -0.00214727 0)
(0.400924 -0.00262565 0)
(0.401114 -0.00320578 0)
(0.401339 -0.00391212 0)
(0.401604 -0.00477437 0)
(0.401918 -0.00582889 0)
(0.402291 -0.00712059 0)
(0.402735 -0.00870494 0)
(0.403266 -0.0106504 0)
(0.403902 -0.0130409 0)
(0.404664 -0.0159799 0)
(0.405579 -0.0195949 0)
(0.40668 -0.0240436 0)
(0.408 -0.0295246 0)
(0.409602 -0.0362858 0)
(0.411494 -0.0446488 0)
(0.413938 -0.0550282 0)
(0.416483 -0.0679111 0)
(0.421276 -0.084399 0)
(0.400002 -3.17018e-05 0)
(0.40001 -0.000100839 0)
(0.400029 -0.00018402 0)
(0.400058 -0.000285365 0)
(0.400095 -0.000408724 0)
(0.400138 -0.000557012 0)
(0.400189 -0.000732819 0)
(0.400247 -0.000939503 0)
(0.400313 -0.00118211 0)
(0.400389 -0.00146795 0)
(0.400475 -0.00180707 0)
(0.400572 -0.00221267 0)
(0.400684 -0.0027015 0)
(0.400812 -0.00329414 0)
(0.40096 -0.00401552 0)
(0.401132 -0.00489588 0)
(0.401332 -0.00597221 0)
(0.401567 -0.00729013 0)
(0.401842 -0.00890602 0)
(0.402166 -0.0108893 0)
(0.402547 -0.0133253 0)
(0.402996 -0.0163187 0)
(0.403526 -0.0199984 0)
(0.404149 -0.0245241 0)
(0.404877 -0.0300963 0)
(0.405737 -0.036966 0)
(0.406706 -0.0454583 0)
(0.407946 -0.0560029 0)
(0.409045 -0.0690706 0)
(0.411641 -0.0859668 0)
(0.400002 -3.4041e-05 0)
(0.400008 -0.000107816 0)
(0.400024 -0.000195239 0)
(0.400047 -0.000300222 0)
(0.400076 -0.000426702 0)
(0.400109 -0.000577865 0)
(0.400146 -0.000756526 0)
(0.400186 -0.000966147 0)
(0.40023 -0.00121185 0)
(0.400277 -0.00150106 0)
(0.400328 -0.00184399 0)
(0.400383 -0.002254 0)
(0.400442 -0.00274799 0)
(0.400507 -0.00334672 0)
(0.400577 -0.00407531 0)
(0.400655 -0.00496422 0)
(0.40074 -0.00605064 0)
(0.400834 -0.00738044 0)
(0.400938 -0.00901019 0)
(0.401052 -0.0110096 0)
(0.401176 -0.013464 0)
(0.40131 -0.0164781 0)
(0.401451 -0.0201806 0)
(0.401593 -0.0247303 0)
(0.401725 -0.0303265 0)
(0.401838 -0.0372181 0)
(0.401879 -0.045727 0)
(0.401904 -0.0562851 0)
(0.401547 -0.0693391 0)
(0.401883 -0.0863237 0)
(0.400001 -3.59902e-05 0)
(0.400007 -0.000113569 0)
(0.40002 -0.000204284 0)
(0.400038 -0.00031179 0)
(0.400059 -0.00044005 0)
(0.400082 -0.000592473 0)
(0.400104 -0.000772067 0)
(0.400127 -0.000982366 0)
(0.400147 -0.00122851 0)
(0.400166 -0.00151798 0)
(0.400182 -0.00186102 0)
(0.400194 -0.00227102 0)
(0.400201 -0.00276484 0)
(0.400202 -0.0033632 0)
(0.400195 -0.00409114 0)
(0.400178 -0.00497898 0)
(0.400148 -0.00606374 0)
(0.400102 -0.00739099 0)
(0.400034 -0.00901689 0)
(0.399938 -0.0110105 0)
(0.399806 -0.0134563 0)
(0.399625 -0.0164576 0)
(0.399378 -0.020141 0)
(0.399042 -0.0246622 0)
(0.398583 -0.0302155 0)
(0.397957 -0.0370434 0)
(0.397081 -0.0454564 0)
(0.395907 -0.0558764 0)
(0.394115 -0.0687158 0)
(0.392197 -0.0854574 0)
(0.400001 -3.75997e-05 0)
(0.400006 -0.00011824 0)
(0.400016 -0.000211335 0)
(0.400029 -0.000320234 0)
(0.400043 -0.000448891 0)
(0.400056 -0.000600924 0)
(0.400065 -0.000779514 0)
(0.400069 -0.000988222 0)
(0.400067 -0.00123216 0)
(0.400058 -0.00151876 0)
(0.400039 -0.00185821 0)
(0.400009 -0.00226376 0)
(0.399964 -0.0027521 0)
(0.399901 -0.00334364 0)
(0.399817 -0.0040631 0)
(0.399706 -0.00494032 0)
(0.399562 -0.00601174 0)
(0.399377 -0.00732212 0)
(0.399139 -0.00892661 0)
(0.398836 -0.0108928 0)
(0.39845 -0.0133034 0)
(0.397958 -0.0162589 0)
(0.397331 -0.0198823 0)
(0.396526 -0.0243236 0)
(0.39549 -0.0297693 0)
(0.394144 -0.0364503 0)
(0.392378 -0.044659 0)
(0.390045 -0.0547943 0)
(0.386871 -0.0672243 0)
(0.382786 -0.0833972 0)
(0.400001 -3.89264e-05 0)
(0.400005 -0.000121988 0)
(0.400012 -0.000216605 0)
(0.400021 -0.00032576 0)
(0.400029 -0.000453402 0)
(0.400032 -0.000603381 0)
(0.400027 -0.000779027 0)
(0.400014 -0.000983878 0)
(0.399991 -0.00122295 0)
(0.399954 -0.00150358 0)
(0.399901 -0.00183579 0)
(0.399828 -0.00223254 0)
(0.399732 -0.00271014 0)
(0.399608 -0.00328853 0)
(0.399448 -0.00399178 0)
(0.399245 -0.00484898 0)
(0.398989 -0.00589557 0)
(0.398667 -0.00717507 0)
(0.398263 -0.00874097 0)
(0.397758 -0.0106587 0)
(0.397124 -0.0130081 0)
(0.39633 -0.015886 0)
(0.395333 -0.0194096 0)
(0.394074 -0.023722 0)
(0.392481 -0.0289983 0)
(0.390445 -0.0354541 0)
(0.387831 -0.043357 0)
(0.384406 -0.0530715 0)
(0.379936 -0.0649124 0)
(0.373842 -0.0802153 0)
(0.400001 -4.00389e-05 0)
(0.400004 -0.00012501 0)
(0.40001 -0.000220349 0)
(0.400015 -0.0003286 0)
(0.400017 -0.000453783 0)
(0.40001 -0.000600066 0)
(0.399993 -0.000770875 0)
(0.399963 -0.000969632 0)
(0.399918 -0.00120123 0)
(0.399854 -0.00147285 0)
(0.399768 -0.00179422 0)
(0.399655 -0.00217791 0)
(0.399509 -0.00263965 0)
(0.399324 -0.00319868 0)
(0.399091 -0.00387821 0)
(0.398799 -0.00470625 0)
(0.398435 -0.00571687 0)
(0.397981 -0.00695188 0)
(0.397416 -0.00846255 0)
(0.396715 -0.0103115 0)
(0.395843 -0.0125749 0)
(0.394758 -0.0153444 0)
(0.393405 -0.018731 0)
(0.391713 -0.0228681 0)
(0.389591 -0.0279178 0)
(0.386905 -0.0340763 0)
(0.383498 -0.041582 0)
(0.379068 -0.0507549 0)
(0.373414 -0.0618501 0)
(0.365537 -0.0760238 0)
(0.400001 -4.10256e-05 0)
(0.400003 -0.000127545 0)
(0.400008 -0.000222879 0)
(0.400011 -0.000329078 0)
(0.400007 -0.000450325 0)
(0.399991 -0.000591238 0)
(0.399962 -0.000755338 0)
(0.399916 -0.000945842 0)
(0.399851 -0.00116744 0)
(0.399761 -0.0014271 0)
(0.399643 -0.00173417 0)
(0.399491 -0.00210068 0)
(0.399298 -0.00254164 0)
(0.399055 -0.00307535 0)
(0.398752 -0.00372392 0)
(0.398374 -0.004514 0)
(0.397905 -0.00547795 0)
(0.397325 -0.00665542 0)
(0.396607 -0.00809497 0)
(0.395718 -0.00985578 0)
(0.394619 -0.0120094 0)
(0.393257 -0.0146419 0)
(0.391569 -0.0178563 0)
(0.389469 -0.0217756 0)
(0.386851 -0.0265465 0)
(0.383563 -0.0323438 0)
(0.37943 -0.0393728 0)
(0.374098 -0.0479027 0)
(0.367396 -0.0581257 0)
(0.358012 -0.0709684 0)
(0.400001 -4.20077e-05 0)
(0.400003 -0.000129925 0)
(0.400008 -0.00022453 0)
(0.400008 -0.000327434 0)
(0.399999 -0.00044334 0)
(0.399976 -0.000577358 0)
(0.399935 -0.00073292 0)
(0.399875 -0.000912999 0)
(0.39979 -0.00112213 0)
(0.399676 -0.00136698 0)
(0.399528 -0.00165645 0)
(0.399339 -0.00200185 0)
(0.3991 -0.00241731 0)
(0.398803 -0.00292005 0)
(0.398433 -0.00353083 0)
(0.397974 -0.00427464 0)
(0.397407 -0.00518182 0)
(0.396707 -0.00628947 0)
(0.395844 -0.00764294 0)
(0.394779 -0.00929735 0)
(0.393466 -0.0113192 0)
(0.391845 -0.0137879 0)
(0.389843 -0.0167979 0)
(0.387363 -0.0204607 0)
(0.384289 -0.0249067 0)
(0.380452 -0.0302875 0)
(0.375667 -0.0367741 0)
(0.369547 -0.0445813 0)
(0.361947 -0.0538401 0)
(0.351362 -0.0652174 0)
(0.400001 -4.31595e-05 0)
(0.400004 -0.0001326 0)
(0.400009 -0.00022571 0)
(0.400009 -0.000323959 0)
(0.399996 -0.000433179 0)
(0.399965 -0.000558843 0)
(0.399914 -0.000704105 0)
(0.399839 -0.000871743 0)
(0.399736 -0.00106609 0)
(0.3996 -0.00129346 0)
(0.399423 -0.00156217 0)
(0.3992 -0.00188271 0)
(0.398919 -0.00226817 0)
(0.39857 -0.00273449 0)
(0.398138 -0.0033009 0)
(0.397604 -0.0039905 0)
(0.396945 -0.00483129 0)
(0.396134 -0.00585749 0)
(0.395136 -0.00711083 0)
(0.393908 -0.00864193 0)
(0.392397 -0.0105116 0)
(0.390536 -0.0127921 0)
(0.388244 -0.0155688 0)
(0.385418 -0.0189411 0)
(0.38193 -0.0230224 0)
(0.377602 -0.0279408 0)
(0.372242 -0.0338335 0)
(0.365453 -0.0408612 0)
(0.357111 -0.0491001 0)
(0.345634 -0.0589491 0)
(0.400001 -4.47444e-05 0)
(0.400006 -0.000136176 0)
(0.400013 -0.000227046 0)
(0.400013 -0.000319198 0)
(0.399996 -0.000420208 0)
(0.399959 -0.000535957 0)
(0.399898 -0.00066919 0)
(0.399811 -0.000822475 0)
(0.399692 -0.000999969 0)
(0.399534 -0.00120754 0)
(0.399332 -0.00145281 0)
(0.399077 -0.00174533 0)
(0.398758 -0.00209701 0)
(0.398362 -0.00252232 0)
(0.397872 -0.00303873 0)
(0.397269 -0.00366721 0)
(0.396526 -0.00443315 0)
(0.395613 -0.00536753 0)
(0.394491 -0.00650807 0)
(0.393114 -0.00790044 0)
(0.391421 -0.00959932 0)
(0.389343 -0.0116695 0)
(0.386789 -0.0141866 0)
(0.38365 -0.0172382 0)
(0.379792 -0.020921 0)
(0.375034 -0.0253398 0)
(0.369179 -0.0306003 0)
(0.361836 -0.036813 0)
(0.352904 -0.0440106 0)
(0.340826 -0.0523367 0)
(0.400002 -4.71043e-05 0)
(0.40001 -0.000141421 0)
(0.400021 -0.000229051 0)
(0.400022 -0.000313544 0)
(0.400003 -0.000405059 0)
(0.399959 -0.000509632 0)
(0.39989 -0.000629158 0)
(0.399792 -0.000765938 0)
(0.399657 -0.00092407 0)
(0.399481 -0.00110895 0)
(0.399256 -0.00132743 0)
(0.398971 -0.00158809 0)
(0.398617 -0.00190152 0)
(0.398179 -0.00228066 0)
(0.397638 -0.00274106 0)
(0.396972 -0.00330136 0)
(0.396154 -0.00398414 0)
(0.395149 -0.00481687 0)
(0.393917 -0.00583299 0)
(0.392405 -0.00707285 0)
(0.390551 -0.00858467 0)
(0.388277 -0.0104253 0)
(0.38549 -0.012661 0)
(0.382075 -0.0153673 0)
(0.377894 -0.0186254 0)
(0.372764 -0.0225171 0)
(0.366491 -0.0271204 0)
(0.358702 -0.0325022 0)
(0.349315 -0.038667 0)
(0.336889 -0.0455355 0)
(0.400003 -5.13833e-05 0)
(0.400016 -0.000149612 0)
(0.400034 -0.000231932 0)
(0.400038 -0.000306555 0)
(0.400016 -0.000387608 0)
(0.399968 -0.000480562 0)
(0.399892 -0.000586036 0)
(0.399783 -0.000706017 0)
(0.399636 -0.000844402 0)
(0.399443 -0.00100595 0)
(0.399197 -0.00119669 0)
(0.398888 -0.00142404 0)
(0.398503 -0.00169711 0)
(0.398027 -0.00202711 0)
(0.397441 -0.00242753 0)
(0.39672 -0.00291451 0)
(0.395835 -0.00350754 0)
(0.39475 -0.00423036 0)
(0.39342 -0.00511177 0)
(0.391791 -0.00618649 0)
(0.389795 -0.00749601 0)
(0.387351 -0.00908911 0)
(0.384361 -0.0110224 0)
(0.380705 -0.013361 0)
(0.376246 -0.0161709 0)
(0.370803 -0.0195127 0)
(0.364185 -0.0234417 0)
(0.356046 -0.0279887 0)
(0.346325 -0.033152 0)
(0.333763 -0.0386752 0)
(0.400005 -5.8587e-05 0)
(0.400027 -0.000162977 0)
(0.400056 -0.000237345 0)
(0.400063 -0.000298633 0)
(0.400038 -0.000365563 0)
(0.399985 -0.000442695 0)
(0.399903 -0.000529871 0)
(0.399787 -0.000629096 0)
(0.399628 -0.000743789 0)
(0.399421 -0.000877787 0)
(0.399158 -0.00103665 0)
(0.398827 -0.00122661 0)
(0.398416 -0.00145511 0)
(0.397908 -0.00173147 0)
(0.397283 -0.00206698 0)
(0.396516 -0.00247513 0)
(0.395574 -0.00297223 0)
(0.394421 -0.00357804 0)
(0.393008 -0.00431653 0)
(0.391279 -0.00521653 0)
(0.389164 -0.00631253 0)
(0.386576 -0.00764512 0)
(0.383413 -0.00926169 0)
(0.379554 -0.011218 0)
(0.374865 -0.0135656 0)
(0.36917 -0.0163443 0)
(0.362285 -0.0195944 0)
(0.353899 -0.023317 0)
(0.343973 -0.0275355 0)
(0.331474 -0.0318612 0)
(0.400009 -7.04687e-05 0)
(0.400047 -0.000182203 0)
(0.400091 -0.000249842 0)
(0.400102 -0.000303581 0)
(0.400076 -0.000361691 0)
(0.40002 -0.000426112 0)
(0.399933 -0.000497105 0)
(0.39981 -0.000577589 0)
(0.399643 -0.000670619 0)
(0.399425 -0.000778246 0)
(0.399146 -0.000905264 0)
(0.398797 -0.00105693 0)
(0.398365 -0.0012393 0)
(0.397832 -0.00145976 0)
(0.397175 -0.00172718 0)
(0.39637 -0.00205228 0)
(0.395383 -0.00244796 0)
(0.394175 -0.00292991 0)
(0.392697 -0.00351706 0)
(0.390889 -0.00423208 0)
(0.388679 -0.00510223 0)
(0.385979 -0.00615936 0)
(0.382684 -0.00744269 0)
(0.378674 -0.009004 0)
(0.373825 -0.0108802 0)
(0.36797 -0.0130874 0)
(0.360939 -0.0156596 0)
(0.352437 -0.0185712 0)
(0.342471 -0.0219066 0)
(0.33015 -0.0251563 0)
(0.400017 -9.53918e-05 0)
(0.400077 -0.00018944 0)
(0.400138 -0.000226621 0)
(0.400153 -0.000262614 0)
(0.400126 -0.000306364 0)
(0.400069 -0.000353577 0)
(0.399979 -0.000404564 0)
(0.399851 -0.000462104 0)
(0.399677 -0.000529063 0)
(0.399451 -0.000608636 0)
(0.399162 -0.00070284 0)
(0.3988 -0.000814914 0)
(0.398352 -0.000949544 0)
(0.3978 -0.00111231 0)
(0.397121 -0.00130973 0)
(0.396289 -0.00154967 0)
(0.39527 -0.00184157 0)
(0.394025 -0.00219685 0)
(0.392504 -0.0026293 0)
(0.390647 -0.0031554 0)
(0.388382 -0.00379536 0)
(0.385623 -0.00457142 0)
(0.382266 -0.00551301 0)
(0.378202 -0.00667662 0)
(0.373301 -0.0080922 0)
(0.367385 -0.0097479 0)
(0.360293 -0.0116669 0)
(0.351692 -0.0137998 0)
(0.341738 -0.0163015 0)
(0.329092 -0.0183969 0)
(0.400025 -0.000160837 0)
(0.400182 -0.000314888 0)
(0.400248 -0.000309419 0)
(0.400228 -0.000322432 0)
(0.400178 -0.000348055 0)
(0.400102 -0.000376196 0)
(0.399992 -0.000406711 0)
(0.39984 -0.000443968 0)
(0.39964 -0.000486727 0)
(0.399384 -0.000530259 0)
(0.399063 -0.000587974 0)
(0.398666 -0.000657757 0)
(0.398177 -0.000742071 0)
(0.397578 -0.000844492 0)
(0.396845 -0.000969234 0)
(0.395953 -0.00112146 0)
(0.394868 -0.00130748 0)
(0.393549 -0.00153493 0)
(0.391947 -0.00181295 0)
(0.390005 -0.00215256 0)
(0.38765 -0.00256703 0)
(0.384795 -0.00307189 0)
(0.381344 -0.00368521 0)
(0.377151 -0.00442956 0)
(0.371845 -0.00532397 0)
(0.365402 -0.00637914 0)
(0.357705 -0.00760713 0)
(0.34833 -0.00895635 0)
(0.337791 -0.0106351 0)
(0.322788 -0.0111383 0)
(0.399647 -0.00011129 0)
(0.399353 -0.000187801 0)
(0.398896 -0.000204279 0)
(0.398357 -0.000214336 0)
(0.39779 -0.000226634 0)
(0.397198 -0.000238918 0)
(0.39657 -0.000251366 0)
(0.395896 -0.000264517 0)
(0.395169 -0.000279618 0)
(0.394383 -0.000298914 0)
(0.393526 -0.000321483 0)
(0.392585 -0.0003475 0)
(0.391541 -0.000378316 0)
(0.390372 -0.000415555 0)
(0.389051 -0.000460969 0)
(0.387545 -0.000516584 0)
(0.38581 -0.000584844 0)
(0.383797 -0.000668758 0)
(0.381441 -0.000772047 0)
(0.378666 -0.00089935 0)
(0.375377 -0.00105585 0)
(0.371459 -0.00124893 0)
(0.366777 -0.0014853 0)
(0.361188 -0.00175646 0)
(0.354535 -0.00206659 0)
(0.346603 -0.00243931 0)
(0.337144 -0.00288731 0)
(0.3259 -0.00336112 0)
(0.312954 -0.00409334 0)
(0.292814 -0.00356247 0)
(0.490399 -0.00829248 7.85844e-21)
(0.497086 -0.0127885 -1.64358e-17)
(0.503285 -0.0179894 1.652e-17)
(0.508452 -0.0237495 8.30798e-18)
(0.513048 -0.0299683 6.27589e-18)
(0.51735 -0.0366141 1.26537e-17)
(0.521437 -0.0437186 6.36591e-18)
(0.525362 -0.0513433 1.71343e-17)
(0.529193 -0.0595423 8.64632e-18)
(0.532978 -0.0683539 4.3482e-18)
(0.536732 -0.0778114 -4.39671e-18)
(0.540446 -0.087953 8.84867e-18)
(0.544108 -0.0988279 4.48709e-18)
(0.54771 -0.110499 4.51751e-18)
(0.551255 -0.123043 9.11322e-18)
(0.554754 -0.136558 4.61765e-18)
(0.55822 -0.151161 1.39134e-17)
(0.561672 -0.166996 0)
(0.565132 -0.184239 0)
(0.568624 -0.203108 4.72114e-18)
(0.572182 -0.223876 -2.64416e-20)
(0.575838 -0.246887 4.81428e-18)
(0.579655 -0.272563 0)
(0.583612 -0.301515 9.58747e-18)
(0.588019 -0.334252 4.76111e-18)
(0.591985 -0.372501 -4.82376e-18)
(0.598958 -0.414351 4.72532e-18)
(0.597305 -0.47425 4.68691e-18)
(0.620924 -0.509146 1.34782e-17)
(0.57949 -0.651412 -4.29558e-18)
(0.496304 -0.0182634 -8.26053e-18)
(0.500835 -0.0229549 9.35183e-18)
(0.504726 -0.0285789 -9.4242e-18)
(0.508038 -0.034656 0)
(0.511182 -0.0410817 -8.53362e-18)
(0.514349 -0.0479064 -8.59522e-18)
(0.517541 -0.0552084 -2.16796e-18)
(0.520739 -0.0630383 -1.53259e-17)
(0.523933 -0.0714195 -8.82952e-18)
(0.527103 -0.0803722 -8.93457e-18)
(0.530215 -0.0899284 4.49868e-18)
(0.533239 -0.100135 -4.55371e-18)
(0.536156 -0.111049 -9.16942e-18)
(0.538964 -0.122743 -9.25963e-18)
(0.541665 -0.135298 -9.35138e-18)
(0.544259 -0.148814 -9.44408e-18)
(0.546749 -0.163408 -1.91196e-17)
(0.549134 -0.179224 4.81565e-18)
(0.551412 -0.196437 -4.88544e-18)
(0.55358 -0.215264 -1.477e-17)
(0.555634 -0.23597 3.48375e-20)
(0.557563 -0.258889 -4.34518e-20)
(0.559358 -0.284431 -5.0541e-20)
(0.560951 -0.313163 -1.52354e-17)
(0.56245 -0.345603 -1.01858e-17)
(0.563134 -0.383229 -5.00035e-18)
(0.565283 -0.424825 1.31741e-19)
(0.559688 -0.481199 -1.06613e-19)
(0.575304 -0.519907 -1.46311e-17)
(0.528252 -0.650882 0)
(0.493618 -0.0275533 0)
(0.496859 -0.0322039 0)
(0.499814 -0.0378029 0)
(0.502686 -0.0439064 -1.07817e-18)
(0.505594 -0.0504009 9.79806e-18)
(0.508532 -0.0573129 -2.19709e-18)
(0.511438 -0.0646837 2.22221e-18)
(0.514265 -0.0725367 8.95992e-18)
(0.516991 -0.0808958 -2.26251e-18)
(0.519602 -0.0897992 1.14317e-17)
(0.522083 -0.0992972 4.61922e-18)
(0.524429 -0.109446 -4.6793e-18)
(0.526636 -0.120307 4.71911e-18)
(0.528701 -0.131948 -4.78383e-18)
(0.530615 -0.14445 -9.68421e-18)
(0.532365 -0.157909 9.79583e-18)
(0.533936 -0.172443 9.86071e-18)
(0.535306 -0.188193 0)
(0.536452 -0.205331 0)
(0.537344 -0.224066 1.0187e-17)
(0.537942 -0.244657 0)
(0.538191 -0.267422 1.56695e-17)
(0.53802 -0.292753 5.28341e-18)
(0.5373 -0.321171 1.05532e-17)
(0.535992 -0.3532 1.59058e-17)
(0.533421 -0.390068 5.39644e-18)
(0.531088 -0.431121 0)
(0.521639 -0.4843 2.13105e-17)
(0.528479 -0.526158 0)
(0.477968 -0.645062 1.02786e-17)
(0.490654 -0.0370831 0)
(0.493351 -0.0419277 0)
(0.495814 -0.0476292 0)
(0.498318 -0.0537872 -8.82192e-18)
(0.500826 -0.0603088 0)
(0.503247 -0.0672231 0)
(0.505546 -0.0745759 0)
(0.507722 -0.0824018 9.20166e-18)
(0.509777 -0.090735 0)
(0.511706 -0.0996161 0)
(0.513499 -0.109091 0)
(0.515142 -0.119207 -9.63645e-18)
(0.516619 -0.130022 -9.75431e-18)
(0.517911 -0.1416 -4.92118e-18)
(0.518994 -0.154024 -3.23347e-20)
(0.519843 -0.167388 -1.00661e-17)
(0.520428 -0.18181 1.61588e-20)
(0.520713 -0.197425 1.55896e-17)
(0.520655 -0.2144 5.23923e-18)
(0.520196 -0.232934 -5.32992e-18)
(0.519263 -0.253271 -5.37091e-18)
(0.517761 -0.275709 -5.39255e-18)
(0.515563 -0.300612 -5.4971e-18)
(0.512487 -0.328448 1.68356e-17)
(0.508365 -0.359722 0)
(0.502572 -0.395426 -1.71217e-17)
(0.495954 -0.435298 -5.77684e-18)
(0.482722 -0.485232 2.52674e-19)
(0.481208 -0.527956 -1.73149e-17)
(0.428098 -0.634687 5.84144e-19)
(0.486658 -0.0462138 0)
(0.488789 -0.0511198 8.82368e-18)
(0.490661 -0.0568059 -1.1133e-18)
(0.492643 -0.0629383 1.91459e-17)
(0.494631 -0.0694506 0)
(0.496497 -0.0763678 0)
(0.498221 -0.0837249 9.33067e-18)
(0.49982 -0.0915486 -9.41509e-18)
(0.501289 -0.0998663 0)
(0.502611 -0.108713 0)
(0.503761 -0.118133 0)
(0.504718 -0.128175 9.89117e-18)
(0.505461 -0.138896 1.00209e-17)
(0.505963 -0.150366 -5.08303e-18)
(0.506195 -0.162664 1.5458e-17)
(0.506123 -0.175882 0)
(0.505705 -0.190131 1.06451e-17)
(0.504889 -0.205542 -1.61646e-17)
(0.503609 -0.222269 -5.47304e-18)
(0.501785 -0.240499 0)
(0.499314 -0.260457 0)
(0.496062 -0.282415 0)
(0.491856 -0.306703 0)
(0.486464 -0.333735 -5.84944e-18)
(0.479619 -0.363974 -6.0023e-18)
(0.470724 -0.398212 6.01112e-18)
(0.460105 -0.436454 6.18408e-18)
(0.443272 -0.482966 -1.22935e-17)
(0.433961 -0.525254 1.2436e-17)
(0.379411 -0.620114 -1.22297e-17)
(0.481718 -0.0549513 -8.9108e-18)
(0.483324 -0.0599265 -8.43305e-18)
(0.48465 -0.0656352 -1.70791e-18)
(0.486138 -0.0717796 -6.90312e-18)
(0.487638 -0.078299 -1.32961e-21)
(0.488983 -0.0852096 -3.53986e-18)
(0.490155 -0.0925397 3.13824e-20)
(0.491176 -0.100315 -9.69609e-18)
(0.49204 -0.108566 -7.37362e-18)
(0.49272 -0.117329 9.96113e-18)
(0.493191 -0.12665 0)
(0.493429 -0.136578 1.27978e-17)
(0.49341 -0.147168 -1.29888e-17)
(0.4931 -0.158486 -1.05506e-17)
(0.492462 -0.170605 1.60504e-17)
(0.491449 -0.183615 -1.63136e-17)
(0.490007 -0.197617 -5.48686e-18)
(0.488067 -0.212732 -5.68258e-18)
(0.485547 -0.229105 -5.68825e-18)
(0.482344 -0.246904 1.74392e-17)
(0.478327 -0.266334 0)
(0.473332 -0.287636 5.98846e-18)
(0.467145 -0.311101 -1.22233e-17)
(0.459494 -0.337085 1.25696e-17)
(0.450033 -0.365993 6.36917e-18)
(0.438188 -0.398449 1.30426e-17)
(0.423872 -0.434601 0)
(0.403675 -0.477451 1.36014e-17)
(0.38735 -0.518098 0)
(0.332232 -0.601429 -1.40732e-17)
(0.475834 -0.0632119 9.08493e-18)
(0.476927 -0.0682349 4.60892e-18)
(0.477715 -0.0739402 -4.6684e-18)
(0.478701 -0.0800596 3.54818e-18)
(0.479696 -0.0865404 1.14676e-21)
(0.480504 -0.0933986 1.12893e-21)
(0.481107 -0.100662 -8.57655e-18)
(0.481537 -0.108357 2.46447e-18)
(0.481786 -0.116513 1.51285e-17)
(0.481822 -0.125166 -1.27879e-17)
(0.481614 -0.134357 2.59805e-18)
(0.481136 -0.144133 -1.3176e-17)
(0.480354 -0.154546 1.06997e-17)
(0.479229 -0.165656 1.08716e-17)
(0.477715 -0.177534 -5.4949e-18)
(0.475755 -0.190261 1.12386e-17)
(0.473282 -0.203932 0)
(0.470217 -0.218656 5.80698e-18)
(0.46646 -0.234563 5.95575e-18)
(0.461889 -0.251803 -1.20829e-17)
(0.45635 -0.270553 0)
(0.449654 -0.291025 -6.30455e-18)
(0.441554 -0.313464 2.61805e-20)
(0.431747 -0.338166 -1.30883e-17)
(0.419824 -0.365471 1.35051e-17)
(0.405235 -0.395857 -2.06855e-17)
(0.387583 -0.429518 0)
(0.364336 -0.468496 -1.43313e-17)
(0.341905 -0.50655 1.36555e-19)
(0.286986 -0.578856 1.52307e-17)
(0.469011 -0.0708843 4.65591e-18)
(0.4696 -0.0759324 -4.11676e-18)
(0.469861 -0.08161 4.17261e-18)
(0.470348 -0.087679 -9.68266e-18)
(0.470839 -0.0940956 -4.91566e-18)
(0.471113 -0.100876 -1.24375e-18)
(0.471153 -0.108044 5.0597e-18)
(0.470997 -0.115626 1.15318e-17)
(0.470634 -0.12365 5.21405e-18)
(0.470026 -0.132149 -2.64133e-18)
(0.46914 -0.141161 2.68623e-18)