/*--------------------------------*- C++ -*----------------------------------*\
  =========                 |
  \\      /  F ield         | OpenFOAM: The Open Source CFD Toolbox
   \\    /   O peration     | Website:  https://openfoam.org
    \\  /    A nd           | Version:  11
     \\/     M anipulation  |
\*---------------------------------------------------------------------------*/
FoamFile
{
    format      ascii;
    class       volVectorField;
    location    "6";
    object      U;
}
// * * * * * * * * * * * * * * * * * * * * * * * * * * * * * * * * * * * * * //

dimensions      [0 1 -1 0 0 0 0];

internalField   nonuniform List<vector> 
12600
(
(0.412112 0.0001091 0)
(0.411839 0.000181578 0)
(0.411422 0.000191652 0)
(0.410946 0.000195059 0)
(0.410474 0.000199714 0)
(0.410011 0.000202852 0)
(0.409552 0.000204504 0)
(0.409093 0.000205482 0)
(0.408637 0.000205998 0)
(0.408184 0.000206038 0)
(0.407737 0.000205599 0)
(0.407296 0.000204657 0)
(0.406863 0.000203085 0)
(0.406441 0.000200678 0)
(0.406033 0.000197328 0)
(0.405641 0.000193072 0)
(0.40527 0.000187633 0)
(0.404925 0.000180344 0)
(0.40461 0.000170991 0)
(0.404333 0.00015986 0)
(0.404105 0.000146264 0)
(0.403937 0.000131002 0)
(0.403843 0.000112672 0)
(0.403841 8.47837e-05 0)
(0.403956 4.28341e-05 0)
(0.404221 -1.00795e-05 0)
(0.40468 -7.23452e-05 0)
(0.405389 -0.000148379 0)
(0.406534 -0.000275201 0)
(0.407005 -0.000835783 0)
(0.412491 0.000156274 0)
(0.412638 0.000284433 0)
(0.412766 0.000266514 0)
(0.412813 0.00025908 0)
(0.412853 0.000261229 0)
(0.412901 0.000261119 0)
(0.412953 0.000258958 0)
(0.413005 0.000256077 0)
(0.41306 0.000252645 0)
(0.413117 0.000248432 0)
(0.41318 0.000243248 0)
(0.413248 0.000236922 0)
(0.413324 0.000229174 0)
(0.41341 0.000219569 0)
(0.413508 0.000207485 0)
(0.413621 0.000192429 0)
(0.413753 0.00017379 0)
(0.413908 0.000152841 0)
(0.41409 0.000128042 0)
(0.414306 9.49339e-05 0)
(0.414564 5.46319e-05 0)
(0.414874 4.18457e-06 0)
(0.415249 -5.96389e-05 0)
(0.415702 -0.000137636 0)
(0.416257 -0.000232652 0)
(0.416915 -0.000352716 0)
(0.417778 -0.000506612 0)
(0.418658 -0.000731224 0)
(0.420101 -0.00101794 0)
(0.420344 -0.00185013 0)
(0.41248 8.48304e-05 0)
(0.412552 0.000155698 0)
(0.41264 0.000162562 0)
(0.412702 0.000164263 0)
(0.412747 0.000169703 0)
(0.412794 0.000171688 0)
(0.412845 0.000170143 0)
(0.412899 0.000167235 0)
(0.412956 0.000163334 0)
(0.413015 0.000158187 0)
(0.413079 0.000151439 0)
(0.413147 0.000142865 0)
(0.413221 0.000131843 0)
(0.413304 0.000117808 0)
(0.413397 0.000100686 0)
(0.413503 7.90178e-05 0)
(0.413627 5.29063e-05 0)
(0.413773 2.04147e-05 0)
(0.413945 -2.26473e-05 0)
(0.414148 -7.51331e-05 0)
(0.41439 -0.000137206 0)
(0.414678 -0.000213862 0)
(0.415024 -0.000308852 0)
(0.415442 -0.000428012 0)
(0.415952 -0.000576888 0)
(0.416574 -0.000768751 0)
(0.41734 -0.00100544 0)
(0.418271 -0.00132378 0)
(0.419365 -0.00174189 0)
(0.420694 -0.00211114 0)
(0.412472 5.69748e-05 0)
(0.41252 0.000135751 0)
(0.412591 0.000166845 0)
(0.412649 0.00017506 0)
(0.412693 0.000183183 0)
(0.412737 0.000185832 0)
(0.412786 0.000184088 0)
(0.412839 0.000180376 0)
(0.412894 0.000175208 0)
(0.412952 0.000168592 0)
(0.413014 0.000160159 0)
(0.41308 0.000149308 0)
(0.413153 0.000135372 0)
(0.413233 0.000116767 0)
(0.413324 9.18255e-05 0)
(0.413428 6.12374e-05 0)
(0.413548 2.45713e-05 0)
(0.413689 -2.0064e-05 0)
(0.413856 -7.54096e-05 0)
(0.414053 -0.000142769 0)
(0.414286 -0.0002265 0)
(0.414563 -0.000329871 0)
(0.414896 -0.00045817 0)
(0.415299 -0.00061886 0)
(0.415788 -0.000820016 0)
(0.416385 -0.00107376 0)
(0.417113 -0.00139207 0)
(0.41801 -0.00179195 0)
(0.419065 -0.00230914 0)
(0.4205 -0.00269624 0)
(0.412468 4.15855e-05 0)
(0.4125 0.000106901 0)
(0.412554 0.000135258 0)
(0.412606 0.000141718 0)
(0.412649 0.000142974 0)
(0.412691 0.000142037 0)
(0.412739 0.000137792 0)
(0.412789 0.000130877 0)
(0.412843 0.000122414 0)
(0.4129 0.000112578 0)
(0.41296 0.000100653 0)
(0.413025 8.63045e-05 0)
(0.413095 6.77975e-05 0)
(0.413174 4.38337e-05 0)
(0.413262 1.34766e-05 0)
(0.413364 -2.54166e-05 0)
(0.41348 -7.19144e-05 0)
(0.413616 -0.000128295 0)
(0.413775 -0.000196985 0)
(0.413963 -0.000281579 0)
(0.414185 -0.000385943 0)
(0.41445 -0.000514556 0)
(0.414767 -0.000674155 0)
(0.415149 -0.000873454 0)
(0.415612 -0.00112275 0)
(0.416177 -0.00143558 0)
(0.416862 -0.00182841 0)
(0.417718 -0.00231154 0)
(0.418716 -0.00293387 0)
(0.420159 -0.00351098 0)
(0.412465 3.13626e-05 0)
(0.412488 8.40961e-05 0)
(0.412531 0.000112628 0)
(0.412577 0.000122031 0)
(0.412618 0.000124817 0)
(0.41266 0.000124811 0)
(0.412705 0.000121334 0)
(0.412755 0.000114872 0)
(0.412807 0.00010652 0)
(0.412862 9.65087e-05 0)
(0.412921 8.4107e-05 0)
(0.412984 6.80491e-05 0)
(0.413052 4.71483e-05 0)
(0.413128 2.04553e-05 0)
(0.413212 -1.38294e-05 0)
(0.413309 -5.81178e-05 0)
(0.41342 -0.000113192 0)
(0.413549 -0.000180366 0)
(0.413701 -0.000262035 0)
(0.413878 -0.000361948 0)
(0.414088 -0.000484661 0)
(0.414337 -0.000636061 0)
(0.414634 -0.000824091 0)
(0.414992 -0.00105889 0)
(0.415423 -0.00135283 0)
(0.415949 -0.00172097 0)
(0.416585 -0.00218297 0)
(0.417386 -0.00275022 0)
(0.418314 -0.00348466 0)
(0.419704 -0.00423262 0)
(0.412464 2.43287e-05 0)
(0.412481 6.69935e-05 0)
(0.412515 9.31451e-05 0)
(0.412556 0.000102929 0)
(0.412595 0.000104283 0)
(0.412635 0.000101583 0)
(0.412678 9.54053e-05 0)
(0.412726 8.62957e-05 0)
(0.412776 7.5174e-05 0)
(0.412829 6.22429e-05 0)
(0.412885 4.67398e-05 0)
(0.412946 2.73186e-05 0)
(0.413012 1.95886e-06 0)
(0.413084 -3.06829e-05 0)
(0.413165 -7.19071e-05 0)
(0.413257 -0.000123023 0)
(0.413362 -0.000186339 0)
(0.413484 -0.00026354 0)
(0.413626 -0.000357349 0)
(0.413791 -0.000471861 0)
(0.413987 -0.000612359 0)
(0.414217 -0.00078566 0)
(0.414492 -0.00100066 0)
(0.41482 -0.00126864 0)
(0.415216 -0.00160361 0)
(0.415697 -0.00202247 0)
(0.416277 -0.00254782 0)
(0.41701 -0.00319624 0)
(0.417855 -0.004032 0)
(0.419152 -0.00494808 0)
(0.412463 1.91759e-05 0)
(0.412476 5.34888e-05 0)
(0.412504 7.59163e-05 0)
(0.41254 8.47029e-05 0)
(0.412577 8.46958e-05 0)
(0.412616 8.01916e-05 0)
(0.412657 7.25907e-05 0)
(0.412702 6.24508e-05 0)
(0.412751 5.03957e-05 0)
(0.412802 3.64726e-05 0)
(0.412856 1.98119e-05 0)
(0.412914 -9.74877e-07 0)
(0.412977 -2.79559e-05 0)
(0.413046 -6.32063e-05 0)
(0.413122 -0.000108448 0)
(0.413209 -0.000165079 0)
(0.413307 -0.000235213 0)
(0.41342 -0.000320871 0)
(0.413552 -0.000425007 0)
(0.413704 -0.000552009 0)
(0.413883 -0.000707691 0)
(0.414093 -0.00089963 0)
(0.414342 -0.00113769 0)
(0.414639 -0.00143435 0)
(0.414994 -0.0018052 0)
(0.415424 -0.00226905 0)
(0.415941 -0.00285114 0)
(0.416595 -0.00357338 0)
(0.417342 -0.00450112 0)
(0.418517 -0.00556916 0)
(0.412463 1.51602e-05 0)
(0.412473 4.24702e-05 0)
(0.412497 6.07959e-05 0)
(0.412529 6.78394e-05 0)
(0.412563 6.64199e-05 0)
(0.4126 6.01795e-05 0)
(0.41264 5.08717e-05 0)
(0.412683 3.91623e-05 0)
(0.412729 2.55022e-05 0)
(0.412778 9.82317e-06 0)
(0.41283 -8.89073e-06 0)
(0.412885 -3.22937e-05 0)
(0.412945 -6.23887e-05 0)
(0.41301 -0.000101418 0)
(0.413081 -0.000151289 0)
(0.413161 -0.000213648 0)
(0.413252 -0.000290594 0)
(0.413356 -0.000384457 0)
(0.413476 -0.000498434 0)
(0.413614 -0.000637168 0)
(0.413775 -0.000806939 0)
(0.413962 -0.00101599 0)
(0.414183 -0.00127495 0)
(0.414445 -0.00159724 0)
(0.414756 -0.00199965 0)
(0.415131 -0.00250269 0)
(0.415578 -0.00313386 0)
(0.416143 -0.00392059 0)
(0.416779 -0.0049273 0)
(0.417808 -0.00613185 0)
(0.412462 1.18774e-05 0)
(0.412471 3.32173e-05 0)
(0.412492 4.7439e-05 0)
(0.41252 5.22287e-05 0)
(0.412553 4.91431e-05 0)
(0.412588 4.11072e-05 0)
(0.412626 3.00298e-05 0)
(0.412667 1.67701e-05 0)
(0.412711 1.71141e-06 0)
(0.412757 -1.5339e-05 0)
(0.412807 -3.54646e-05 0)
(0.412859 -6.05655e-05 0)
(0.412915 -9.27865e-05 0)
(0.412975 -0.000134485 0)
(0.413042 -0.000187761 0)
(0.413116 -0.000254481 0)
(0.413198 -0.000336774 0)
(0.413292 -0.000437141 0)
(0.413399 -0.000558968 0)
(0.413522 -0.000707115 0)
(0.413663 -0.000888223 0)
(0.413827 -0.00111103 0)
(0.414018 -0.00138679 0)
(0.414242 -0.0017297 0)
(0.414506 -0.00215759 0)
(0.414821 -0.00269244 0)
(0.415193 -0.00336355 0)
(0.415661 -0.00420314 0)
(0.416175 -0.00527411 0)
(0.417036 -0.00659268 0)
(0.412462 9.08504e-06 0)
(0.41247 2.52123e-05 0)
(0.412488 3.54689e-05 0)
(0.412514 3.77134e-05 0)
(0.412544 3.27677e-05 0)
(0.412578 2.29623e-05 0)
(0.412614 1.02067e-05 0)
(0.412653 -4.50472e-06 0)
(0.412695 -2.08338e-05 0)
(0.412739 -3.91322e-05 0)
(0.412786 -6.06222e-05 0)
(0.412835 -8.73091e-05 0)
(0.412887 -0.000121532 0)
(0.412943 -0.000165743 0)
(0.413004 -0.000222182 0)
(0.41307 -0.000292856 0)
(0.413145 -0.000379932 0)
(0.413228 -0.000486024 0)
(0.413322 -0.00061467 0)
(0.413428 -0.000770894 0)
(0.413549 -0.000961592 0)
(0.413688 -0.00119586 0)
(0.413847 -0.0014854 0)
(0.414032 -0.00184494 0)
(0.414246 -0.00229297 0)
(0.414498 -0.00285252 0)
(0.41479 -0.00355407 0)
(0.415154 -0.00443381 0)
(0.415537 -0.00555205 0)
(0.416212 -0.00696073 0)
(0.412462 6.62658e-06 0)
(0.412469 1.8083e-05 0)
(0.412486 2.45458e-05 0)
(0.412509 2.41128e-05 0)
(0.412538 1.72037e-05 0)
(0.41257 5.68513e-06 0)
(0.412604 -8.63446e-06 0)
(0.412642 -2.46977e-05 0)
(0.412681 -4.21995e-05 0)
(0.412723 -6.16089e-05 0)
(0.412767 -8.42626e-05 0)
(0.412812 -0.000112261 0)
(0.412861 -0.000148081 0)
(0.412912 -0.000194263 0)
(0.412967 -0.000253147 0)
(0.413026 -0.000326844 0)
(0.413092 -0.000417562 0)
(0.413164 -0.000527983 0)
(0.413244 -0.000661738 0)
(0.413333 -0.000823958 0)
(0.413433 -0.0010217 0)
(0.413546 -0.00126426 0)
(0.413673 -0.0015636 0)
(0.413817 -0.00193473 0)
(0.41398 -0.0023965 0)
(0.414167 -0.0029725 0)
(0.414375 -0.0036938 0)
(0.414631 -0.00459934 0)
(0.414878 -0.00574618 0)
(0.415351 -0.00721636 0)
(0.412462 4.38851e-06 0)
(0.412468 1.15653e-05 0)
(0.412484 1.44295e-05 0)
(0.412506 1.12979e-05 0)
(0.412533 2.382e-06 0)
(0.412564 -1.07911e-05 0)
(0.412597 -2.65578e-05 0)
(0.412632 -4.38469e-05 0)
(0.41267 -6.23727e-05 0)
(0.412709 -8.27004e-05 0)
(0.412749 -0.00010628 0)
(0.412792 -0.000135301 0)
(0.412836 -0.00017234 0)
(0.412882 -0.000220012 0)
(0.412931 -0.000280727 0)
(0.412983 -0.000356668 0)
(0.413039 -0.000450073 0)
(0.4131 -0.00056365 0)
(0.413166 -0.000701073 0)
(0.413238 -0.000867514 0)
(0.413316 -0.00107008 0)
(0.413402 -0.00131814 0)
(0.413496 -0.0016237 0)
(0.413598 -0.0020018 0)
(0.413709 -0.00247128 0)
(0.41383 -0.00305575 0)
(0.413955 -0.00378611 0)
(0.4141 -0.00470272 0)
(0.414208 -0.00585847 0)
(0.414469 -0.00735914 0)
(0.412461 2.2887e-06 0)
(0.412468 5.44108e-06 0)
(0.412483 4.85331e-06 0)
(0.412504 -9.30893e-07 0)
(0.41253 -1.1797e-05 0)
(0.412559 -2.65122e-05 0)
(0.412591 -4.35861e-05 0)
(0.412624 -6.19558e-05 0)
(0.41266 -8.13461e-05 0)
(0.412696 -0.000102402 0)
(0.412734 -0.000126671 0)
(0.412773 -0.00015642 0)
(0.412813 -0.000194289 0)
(0.412854 -0.000242942 0)
(0.412897 -0.000304833 0)
(0.412941 -0.000382183 0)
(0.412988 -0.000477238 0)
(0.413037 -0.000592697 0)
(0.413089 -0.000732221 0)
(0.413143 -0.00090095 0)
(0.413199 -0.00110594 0)
(0.413258 -0.0013565 0)
(0.413319 -0.00166447 0)
(0.41338 -0.00204467 0)
(0.413439 -0.00251554 0)
(0.413494 -0.00310018 0)
(0.413536 -0.00382853 0)
(0.413569 -0.00474093 0)
(0.41354 -0.00588523 0)
(0.413585 -0.00738287 0)
(0.412461 2.73365e-07 0)
(0.412468 -4.4001e-07 0)
(0.412482 -4.34297e-06 0)
(0.412503 -1.26892e-05 0)
(0.412528 -2.5454e-05 0)
(0.412556 -4.16119e-05 0)
(0.412586 -5.98205e-05 0)
(0.412618 -7.90727e-05 0)
(0.412651 -9.91314e-05 0)
(0.412685 -0.000120707 0)
(0.41272 -0.00014542 0)
(0.412756 -0.000175587 0)
(0.412791 -0.000213882 0)
(0.412828 -0.000262996 0)
(0.412864 -0.000325401 0)
(0.412901 -0.000403328 0)
(0.412938 -0.000499004 0)
(0.412976 -0.000615085 0)
(0.413013 -0.000755171 0)
(0.413049 -0.000924309 0)
(0.413084 -0.00112941 0)
(0.413117 -0.00137958 0)
(0.413144 -0.00168632 0)
(0.413164 -0.00206396 0)
(0.413173 -0.0025302 0)
(0.413163 -0.00310706 0)
(0.413123 -0.00382274 0)
(0.413049 -0.00471606 0)
(0.412887 -0.00582889 0)
(0.412719 -0.00728936 0)
(0.412461 -1.82113e-06 0)
(0.412468 -6.17499e-06 0)
(0.412482 -1.32764e-05 0)
(0.412502 -2.41752e-05 0)
(0.412527 -3.8742e-05 0)
(0.412554 -5.61599e-05 0)
(0.412583 -7.52979e-05 0)
(0.412614 -9.52329e-05 0)
(0.412645 -0.00011576 0)
(0.412677 -0.000137636 0)
(0.412708 -0.000162533 0)
(0.41274 -0.000192797 0)
(0.412772 -0.000231112 0)
(0.412803 -0.000280168 0)
(0.412834 -0.000342428 0)
(0.412863 -0.000420102 0)
(0.412891 -0.000515376 0)
(0.412916 -0.000630831 0)
(0.412939 -0.000769961 0)
(0.412958 -0.000937659 0)
(0.412972 -0.00114061 0)
(0.412978 -0.00138756 0)
(0.412973 -0.00168954 0)
(0.412954 -0.00206013 0)
(0.412913 -0.00251594 0)
(0.412841 -0.00307741 0)
(0.412724 -0.00377031 0)
(0.412547 -0.00463038 0)
(0.412261 -0.00569276 0)
(0.411891 -0.00708274 0)
(0.412461 -3.82756e-06 0)
(0.412468 -1.1916e-05 0)
(0.412482 -2.23082e-05 0)
(0.412503 -3.5601e-05 0)
(0.412527 -5.17654e-05 0)
(0.412554 -7.02471e-05 0)
(0.412582 -9.01057e-05 0)
(0.412611 -0.0001105 0)
(0.41264 -0.000131265 0)
(0.41267 -0.000153201 0)
(0.412699 -0.000178018 0)
(0.412727 -0.000208065 0)
(0.412755 -0.000246006 0)
(0.412781 -0.000294495 0)
(0.412805 -0.00035596 0)
(0.412827 -0.000432563 0)
(0.412846 -0.000526422 0)
(0.41286 -0.00064002 0)
(0.412869 -0.000776711 0)
(0.412871 -0.000941175 0)
(0.412863 -0.00113979 0)
(0.412844 -0.00138085 0)
(0.412809 -0.00167474 0)
(0.412751 -0.00203409 0)
(0.412663 -0.00247413 0)
(0.412534 -0.0030133 0)
(0.412344 -0.00367425 0)
(0.412073 -0.00448834 0)
(0.411675 -0.00548335 0)
(0.411121 -0.0067724 0)
(0.412462 -5.86646e-06 0)
(0.412468 -1.79087e-05 0)
(0.412483 -3.15163e-05 0)
(0.412504 -4.70753e-05 0)
(0.412529 -6.46534e-05 0)
(0.412555 -8.39729e-05 0)
(0.412583 -0.000104319 0)
(0.41261 -0.000124938 0)
(0.412637 -0.000145702 0)
(0.412665 -0.000167454 0)
(0.412691 -0.000191923 0)
(0.412716 -0.000221438 0)
(0.41274 -0.000258609 0)
(0.412761 -0.000306027 0)
(0.412779 -0.000366056 0)
(0.412794 -0.00044079 0)
(0.412803 -0.000532256 0)
(0.412807 -0.000642815 0)
(0.412802 -0.000775645 0)
(0.412787 -0.000935168 0)
(0.41276 -0.00112738 0)
(0.412717 -0.00136003 0)
(0.412652 -0.00164274 0)
(0.412558 -0.00198702 0)
(0.412427 -0.00240648 0)
(0.412244 -0.00291719 0)
(0.411989 -0.00353825 0)
(0.411634 -0.0042955 0)
(0.411137 -0.00520904 0)
(0.410426 -0.00637152 0)
(0.412462 -8.04132e-06 0)
(0.412469 -2.42313e-05 0)
(0.412485 -4.11225e-05 0)
(0.412507 -5.88056e-05 0)
(0.412532 -7.75348e-05 0)
(0.412558 -9.7434e-05 0)
(0.412585 -0.000118027 0)
(0.412611 -0.000138624 0)
(0.412637 -0.000159134 0)
(0.412662 -0.000180448 0)
(0.412686 -0.000204304 0)
(0.412708 -0.000232976 0)
(0.412727 -0.000268988 0)
(0.412744 -0.000314843 0)
(0.412757 -0.000372814 0)
(0.412764 -0.000444906 0)
(0.412765 -0.000533039 0)
(0.412758 -0.000639435 0)
(0.41274 -0.000767069 0)
(0.41271 -0.000920065 0)
(0.412663 -0.00110398 0)
(0.412597 -0.00132596 0)
(0.412504 -0.00159474 0)
(0.412378 -0.00192057 0)
(0.412207 -0.00231532 0)
(0.411975 -0.00279244 0)
(0.411663 -0.00336718 0)
(0.411235 -0.00405911 0)
(0.410657 -0.00488071 0)
(0.40982 -0.00589766 0)
(0.412462 -1.04183e-05 0)
(0.41247 -3.1115e-05 0)
(0.412487 -5.13693e-05 0)
(0.412511 -7.09614e-05 0)
(0.412537 -9.05328e-05 0)
(0.412563 -0.00011074 0)
(0.412589 -0.000131327 0)
(0.412614 -0.000151634 0)
(0.412639 -0.000171626 0)
(0.412662 -0.000192256 0)
(0.412683 -0.000215244 0)
(0.412702 -0.000242775 0)
(0.412718 -0.000277257 0)
(0.41273 -0.000321074 0)
(0.412737 -0.000376384 0)
(0.412738 -0.000445082 0)
(0.412731 -0.000528963 0)
(0.412713 -0.000630089 0)
(0.412683 -0.000751211 0)
(0.412638 -0.000896128 0)
(0.412574 -0.00106992 0)
(0.412486 -0.00127906 0)
(0.412368 -0.00153135 0)
(0.412211 -0.00183573 0)
(0.412004 -0.00220219 0)
(0.41173 -0.00264153 0)
(0.411369 -0.00316504 0)
(0.410881 -0.0037857 0)
(0.41024 -0.00450891 0)
(0.409311 -0.00536926 0)
(0.412462 -1.31133e-05 0)
(0.412471 -3.88304e-05 0)
(0.412491 -6.25329e-05 0)
(0.412516 -8.37239e-05 0)
(0.412544 -0.00010377 0)
(0.41257 -0.000124007 0)
(0.412596 -0.000144329 0)
(0.41262 -0.00016406 0)
(0.412643 -0.000183247 0)
(0.412665 -0.000202922 0)
(0.412683 -0.000224778 0)
(0.412699 -0.000250882 0)
(0.412712 -0.000283499 0)
(0.41272 -0.000324868 0)
(0.412722 -0.000377017 0)
(0.412717 -0.000441715 0)
(0.412702 -0.000520613 0)
(0.412675 -0.000615604 0)
(0.412633 -0.000729203 0)
(0.412574 -0.00086485 0)
(0.412494 -0.00102712 0)
(0.412386 -0.00122176 0)
(0.412245 -0.00145561 0)
(0.412061 -0.00173627 0)
(0.411822 -0.00207184 0)
(0.411512 -0.00247046 0)
(0.411109 -0.00293965 0)
(0.410575 -0.00348591 0)
(0.409889 -0.0041086 0)
(0.408904 -0.00481001 0)
(0.412462 -1.62899e-05 0)
(0.412473 -4.77367e-05 0)
(0.412496 -7.49447e-05 0)
(0.412524 -9.72768e-05 0)
(0.412553 -0.000117354 0)
(0.41258 -0.000137334 0)
(0.412606 -0.000157138 0)
(0.412629 -0.000176033 0)
(0.412651 -0.000194168 0)
(0.412671 -0.00021264 0)
(0.412687 -0.000233065 0)
(0.412701 -0.000257364 0)
(0.41271 -0.000287643 0)
(0.412714 -0.000325963 0)
(0.412712 -0.000374205 0)
(0.4127 -0.00043401 0)
(0.412678 -0.000506875 0)
(0.412642 -0.000594513 0)
(0.41259 -0.0006992 0)
(0.412519 -0.00082402 0)
(0.412423 -0.000973023 0)
(0.412298 -0.00115127 0)
(0.412136 -0.0013646 0)
(0.411928 -0.00161931 0)
(0.411662 -0.0019217 0)
(0.411321 -0.0022774 0)
(0.410885 -0.00269054 0)
(0.410318 -0.00316166 0)
(0.409603 -0.00368566 0)
(0.408596 -0.00423446 0)
(0.412463 -2.02122e-05 0)
(0.412476 -5.83641e-05 0)
(0.412503 -8.89811e-05 0)
(0.412535 -0.000111807 0)
(0.412566 -0.000131424 0)
(0.412593 -0.000150797 0)
(0.412619 -0.000169701 0)
(0.412642 -0.000187422 0)
(0.412663 -0.000204331 0)
(0.412681 -0.000221586 0)
(0.412696 -0.000240664 0)
(0.412707 -0.000263277 0)
(0.412713 -0.000291321 0)
(0.412714 -0.000326689 0)
(0.412707 -0.00037107 0)
(0.41269 -0.000425913 0)
(0.412661 -0.00049258 0)
(0.412618 -0.00057261 0)
(0.412556 -0.000668015 0)
(0.412473 -0.000781488 0)
(0.412364 -0.000916532 0)
(0.412223 -0.0010775 0)
(0.412043 -0.00126931 0)
(0.411814 -0.00149695 0)
(0.411525 -0.00176505 0)
(0.411159 -0.00207698 0)
(0.410698 -0.00243399 0)
(0.410108 -0.00283158 0)
(0.409379 -0.0032623 0)
(0.408379 -0.00367225 0)
(0.412464 -2.5283e-05 0)
(0.412481 -7.14602e-05 0)
(0.412513 -0.000104984 0)
(0.41255 -0.000127441 0)
(0.412583 -0.000146318 0)
(0.412611 -0.00016491 0)
(0.412636 -0.000182413 0)
(0.412659 -0.000198189 0)
(0.41268 -0.000212959 0)
(0.412696 -0.000227981 0)
(0.412709 -0.000244622 0)
(0.412718 -0.000264395 0)
(0.412722 -0.000288994 0)
(0.412719 -0.000320127 0)
(0.412708 -0.000359288 0)
(0.412687 -0.000407728 0)
(0.412652 -0.000466669 0)
(0.412601 -0.000537484 0)
(0.412531 -0.000621944 0)
(0.412438 -0.000722367 0)
(0.412316 -0.000841728 0)
(0.412162 -0.000983739 0)
(0.411966 -0.00115241 0)
(0.411719 -0.00135154 0)
(0.411411 -0.00158426 0)
(0.411026 -0.00185196 0)
(0.410547 -0.00215365 0)
(0.409944 -0.00248082 0)
(0.409213 -0.00282627 0)
(0.408241 -0.00311713 0)
(0.412465 -3.22234e-05 0)
(0.412488 -8.81504e-05 0)
(0.412529 -0.000123135 0)
(0.412571 -0.000143706 0)
(0.412605 -0.000161625 0)
(0.412634 -0.000179949 0)
(0.41266 -0.000196955 0)
(0.412683 -0.00021205 0)
(0.412703 -0.000226161 0)
(0.412718 -0.000240472 0)
(0.41273 -0.00025614 0)
(0.412737 -0.000274435 0)
(0.412738 -0.000296821 0)
(0.412733 -0.000324777 0)
(0.412719 -0.000359598 0)
(0.412693 -0.000402388 0)
(0.412653 -0.000454206 0)
(0.412596 -0.000516231 0)
(0.412518 -0.000590005 0)
(0.412416 -0.000677443 0)
(0.412285 -0.000780973 0)
(0.412118 -0.000903718 0)
(0.411909 -0.00104884 0)
(0.411648 -0.00121904 0)
(0.411325 -0.00141624 0)
(0.410925 -0.00164016 0)
(0.410434 -0.00188828 0)
(0.409825 -0.00214894 0)
(0.409099 -0.00241841 0)
(0.408166 -0.00261155 0)
(0.412468 -4.23622e-05 0)
(0.4125 -0.000110438 0)
(0.412552 -0.000144717 0)
(0.4126 -0.000160766 0)
(0.412635 -0.000174775 0)
(0.412664 -0.000189074 0)
(0.41269 -0.000201724 0)
(0.412714 -0.000212718 0)
(0.412733 -0.000223146 0)
(0.412747 -0.000233986 0)
(0.412757 -0.000246216 0)
(0.412763 -0.000260852 0)
(0.412762 -0.00027906 0)
(0.412755 -0.000302017 0)
(0.412737 -0.000330778 0)
(0.412708 -0.000366228 0)
(0.412664 -0.000409262 0)
(0.412601 -0.000460881 0)
(0.412517 -0.000522476 0)
(0.412408 -0.000595496 0)
(0.412268 -0.000681899 0)
(0.412091 -0.000784462 0)
(0.411871 -0.000905442 0)
(0.411599 -0.00104644 0)
(0.411264 -0.00120836 0)
(0.410854 -0.0013895 0)
(0.410356 -0.0015864 0)
(0.409747 -0.00178413 0)
(0.409032 -0.001989 0)
(0.408134 -0.00210477 0)
(0.412472 -5.75384e-05 0)
(0.41252 -0.000139174 0)
(0.412588 -0.000173315 0)
(0.412643 -0.000190978 0)
(0.412679 -0.000208004 0)
(0.412709 -0.000223371 0)
(0.412736 -0.000235587 0)
(0.412759 -0.000245869 0)
(0.412778 -0.000255615 0)
(0.412791 -0.00026557 0)
(0.4128 -0.000276349 0)
(0.412804 -0.000288858 0)
(0.412802 -0.000304095 0)
(0.412792 -0.000322981 0)
(0.412773 -0.000346414 0)
(0.412741 -0.000375119 0)
(0.412693 -0.000409818 0)
(0.412626 -0.000451242 0)
(0.412537 -0.000500793 0)
(0.412421 -0.000559374 0)
(0.412274 -0.000627905 0)
(0.41209 -0.00070908 0)
(0.411861 -0.000804919 0)
(0.41158 -0.000916155 0)
(0.411238 -0.00104287 0)
(0.410822 -0.00118228 0)
(0.410323 -0.00133024 0)
(0.409715 -0.00146666 0)
(0.409015 -0.00160944 0)
(0.408132 -0.00166491 0)
(0.412479 -8.5295e-05 0)
(0.412551 -0.000157442 0)
(0.412638 -0.000169428 0)
(0.412695 -0.000177896 0)
(0.412733 -0.000189896 0)
(0.412764 -0.000200518 0)
(0.412793 -0.00020868 0)
(0.412817 -0.000215694 0)
(0.412835 -0.000222392 0)
(0.412848 -0.000229482 0)
(0.412857 -0.000237971 0)
(0.41286 -0.00024788 0)
(0.412857 -0.000259829 0)
(0.412846 -0.000274409 0)
(0.412825 -0.000292101 0)
(0.41279 -0.000313483 0)
(0.41274 -0.000339229 0)
(0.41267 -0.00037014 0)
(0.412576 -0.000406888 0)
(0.412456 -0.000450887 0)
(0.412304 -0.000503697 0)
(0.412114 -0.000565575 0)
(0.411878 -0.000637246 0)
(0.411591 -0.000719744 0)
(0.411243 -0.000812827 0)
(0.410823 -0.000913379 0)
(0.410328 -0.00101657 0)
(0.409723 -0.00109606 0)
(0.409049 -0.00117561 0)
(0.408086 -0.00109045 0)
(0.41249 -0.000156429 0)
(0.41264 -0.00028745 0)
(0.412765 -0.000271065 0)
(0.412802 -0.000267476 0)
(0.412829 -0.000273807 0)
(0.412857 -0.000279489 0)
(0.412882 -0.000283037 0)
(0.4129 -0.000286055 0)
(0.412913 -0.000289352 0)
(0.41292 -0.000293134 0)
(0.412922 -0.0002976 0)
(0.412916 -0.00030314 0)
(0.412903 -0.000310046 0)
(0.412879 -0.000318621 0)
(0.412843 -0.000329565 0)
(0.412792 -0.000342805 0)
(0.412723 -0.000358977 0)
(0.412633 -0.000377508 0)
(0.412517 -0.000402326 0)
(0.41237 -0.000429501 0)
(0.412188 -0.000458636 0)
(0.411963 -0.000497172 0)
(0.411689 -0.00054376 0)
(0.411358 -0.000596687 0)
(0.410961 -0.000655944 0)
(0.410492 -0.000719237 0)
(0.409946 -0.00078316 0)
(0.409306 -0.000812729 0)
(0.408565 -0.000850081 0)
(0.406919 -0.000261985 0)
(0.412112 -0.00010959 0)
(0.411837 -0.000182235 0)
(0.411415 -0.000193157 0)
(0.410932 -0.00019769 0)
(0.410447 -0.000203684 0)
(0.409965 -0.000208366 0)
(0.409479 -0.000211933 0)
(0.408985 -0.000215174 0)
(0.408486 -0.000218238 0)
(0.40798 -0.000221115 0)
(0.407469 -0.000223978 0)
(0.40695 -0.000226986 0)
(0.406423 -0.000230308 0)
(0.405884 -0.000234091 0)
(0.405333 -0.000238375 0)
(0.404765 -0.000243374 0)
(0.404179 -0.000249295 0)
(0.403568 -0.000256472 0)
(0.40293 -0.000264501 0)
(0.402257 -0.000274459 0)
(0.401545 -0.000287502 0)
(0.400786 -0.00030232 0)
(0.399971 -0.000318881 0)
(0.39909 -0.000337678 0)
(0.398134 -0.000359021 0)
(0.397096 -0.00038103 0)
(0.395975 -0.000406387 0)
(0.394795 -0.000400122 0)
(0.393655 -0.000463963 0)
(0.391144 0.000283398 0)
(0.412485 -0.00162538 -1.4434e-18)
(0.417557 -0.00208394 -1.1237e-20)
(0.421234 -0.00240551 1.49983e-18)
(0.423084 -0.00290322 3.02247e-18)
(0.424075 -0.0036142 1.54787e-18)
(0.424736 -0.00450816 -1.53837e-18)
(0.425239 -0.00554699 1.57587e-18)
(0.425633 -0.00671575 0)
(0.425978 -0.00801808 1.60836e-18)
(0.4263 -0.00945653 -3.29346e-21)
(0.426593 -0.0110346 1.13596e-19)
(0.426839 -0.0127633 0)
(0.427026 -0.0146621 -1.93117e-18)
(0.427144 -0.0167564 0)
(0.427185 -0.0190783 0)
(0.427138 -0.0216682 -2.14548e-18)
(0.42699 -0.0245784 -2.07849e-18)
(0.42672 -0.0278773 2.80671e-22)
(0.426303 -0.0316557 2.09756e-18)
(0.425706 -0.0360361 3.13246e-19)
(0.424887 -0.0411857 -2.93862e-18)
(0.423787 -0.0473519 3.42646e-19)
(0.422338 -0.0548347 -1.79277e-19)
(0.420408 -0.0643452 2.81261e-18)
(0.417967 -0.0759926 3.95808e-19)
(0.414562 -0.0935015 -2.06788e-19)
(0.410692 -0.112092 0)
(0.404778 -0.155948 -3.38234e-18)
(0.399198 -0.185547 -3.53323e-18)
(0.392578 -0.33846 0)
(0.421772 -0.00217944 1.448e-18)
(0.423333 -0.0024316 -3.4293e-20)
(0.424201 -0.00297433 2.66743e-20)
(0.424228 -0.00374968 -1.5277e-18)
(0.4243 -0.00467798 -4.90307e-20)
(0.424499 -0.00570929 1.65848e-18)
(0.424738 -0.00683814 1.55012e-18)
(0.425025 -0.00807263 2.1214e-19)
(0.42531 -0.00942052 -1.09075e-19)
(0.42557 -0.0108884 1.79337e-18)
(0.425782 -0.0124877 1.96865e-18)
(0.425933 -0.0142367 1.79239e-18)
(0.426013 -0.016158 2.09791e-18)
(0.426018 -0.0182777 1.91507e-18)
(0.425937 -0.0206278 2.11554e-18)
(0.425756 -0.0232495 4.51556e-18)
(0.425456 -0.0261956 2.13845e-18)
(0.42501 -0.0295356 -2.5221e-18)
(0.424387 -0.033361 2.63008e-18)
(0.423546 -0.0377952 -1.61485e-19)
(0.422429 -0.0430069 1.68376e-19)
(0.420962 -0.049239 2.84645e-18)
(0.419038 -0.0568139 0)
(0.416509 -0.0663607 -1.96856e-19)
(0.413193 -0.078245 3.54624e-18)
(0.408664 -0.0954525 0)
(0.402886 -0.114962 3.73901e-18)
(0.394155 -0.156944 -3.61698e-18)
(0.383242 -0.188785 -2.26352e-20)
(0.368051 -0.334973 2.43344e-18)
(0.421445 -0.00231984 -1.13007e-20)
(0.422037 -0.00277356 -1.15146e-20)
(0.422508 -0.0036382 -1.48858e-18)
(0.422845 -0.00463505 -4.8471e-20)
(0.423136 -0.00565321 4.97307e-20)
(0.423496 -0.00669864 -5.10217e-20)
(0.423861 -0.00781343 -1.62334e-18)
(0.424166 -0.00902776 0)
(0.424399 -0.0103527 0)
(0.424569 -0.0117989 0)
(0.424679 -0.0133812 -1.88128e-18)
(0.424724 -0.0151171 -1.15041e-19)
(0.424697 -0.0170264 -1.75565e-18)
(0.424588 -0.0191336 -2.07691e-18)
(0.424383 -0.0214708 -2.28752e-18)
(0.424061 -0.0240791 -2.2348e-18)
(0.423601 -0.0270121 1.58803e-19)
(0.422971 -0.0303388 2.26959e-18)
(0.422133 -0.0341506 -2.36868e-18)
(0.421036 -0.0385704 -1.65529e-19)
(0.419611 -0.0437668 0)
(0.417762 -0.0499779 -6.04382e-18)
(0.415357 -0.0575419 1.9242e-19)
(0.412199 -0.0670141 -3.29104e-18)
(0.40804 -0.0790025 5.68709e-20)
(0.4023 -0.0957101 0)
(0.394763 -0.11614 -7.94835e-18)
(0.383056 -0.155518 8.07364e-18)
(0.367127 -0.190699 -4.43329e-18)
(0.342537 -0.328056 -2.68316e-18)
(0.421391 -0.0034111 0)
(0.421835 -0.00408613 -1.52192e-18)
(0.422237 -0.00494545 1.00531e-23)
(0.422525 -0.00583676 2.4582e-20)
(0.422767 -0.00674382 0)
(0.423004 -0.00772398 0)
(0.423209 -0.00881313 -1.70517e-18)
(0.423364 -0.0100191 0)
(0.423472 -0.0113417 1.12779e-19)
(0.423535 -0.0127868 -2.32474e-19)
(0.423548 -0.0143665 -8.87815e-23)
(0.423494 -0.0160967 -1.85553e-18)
(0.423361 -0.0179972 1.28332e-19)
(0.423134 -0.020094 1.99808e-18)
(0.422796 -0.02242 1.38061e-19)
(0.422324 -0.0250168 2.15692e-18)
(0.421693 -0.0279375 -2.38202e-18)
(0.420868 -0.0312508 -2.502e-18)
(0.419801 -0.0350473 0)
(0.418432 -0.0394487 2.57559e-18)
(0.416677 -0.0446223 1.79216e-19)
(0.414421 -0.050803 3.20817e-18)
(0.411499 -0.0583285 -1.99745e-19)
(0.407677 -0.0677232 3.38347e-18)
(0.402597 -0.0796844 -3.59968e-18)
(0.39563 -0.0959854 0)
(0.38612 -0.116818 4.23255e-18)
(0.371569 -0.153841 -4.37038e-18)
(0.350223 -0.191121 4.51117e-18)
(0.316433 -0.318439 1.28981e-19)
(0.421016 -0.00435816 0)
(0.421308 -0.00499997 1.51594e-18)
(0.421549 -0.00577759 0)
(0.421751 -0.00663224 0)
(0.421929 -0.0075568 0)
(0.422094 -0.0085719 0)
(0.422232 -0.00968781 1.72834e-18)
(0.422327 -0.0109041 5.56748e-20)
(0.422372 -0.0122235 -5.73428e-20)
(0.422361 -0.0136573 0)
(0.422283 -0.0152212 0)
(0.422126 -0.0169335 1.26506e-19)
(0.421878 -0.0188152 2.27931e-22)
(0.421524 -0.0208923 -2.3034e-18)
(0.421044 -0.0231971 0)
(0.420415 -0.0257705 -2.3433e-18)
(0.419605 -0.0286646 0)
(0.418573 -0.0319473 2.7139e-18)
(0.417264 -0.0357079 -3.35711e-19)
(0.415607 -0.0400663 -2.63354e-18)
(0.413503 -0.0451867 1.49459e-18)
(0.410818 -0.0512991 0)
(0.407353 -0.0587355 0)
(0.402829 -0.0679954 0)
(0.396795 -0.0798107 1.92389e-18)
(0.388551 -0.0956581 -2.07222e-18)
(0.377008 -0.116515 0)
(0.359655 -0.151156 -2.40512e-18)
(0.332766 -0.189766 -2.65423e-18)
(0.290454 -0.306001 2.35386e-18)
(0.420491 -0.00518585 7.38396e-19)
(0.420691 -0.00585231 7.80936e-19)
(0.420846 -0.006639 8.1354e-19)
(0.420993 -0.00750398 7.59284e-19)
(0.421122 -0.0084369 9.09862e-19)
(0.421219 -0.00944688 8.02027e-19)
(0.421276 -0.0105446 8.80394e-19)
(0.421282 -0.0117374 -9.07025e-19)
(0.421231 -0.0130341 5.84002e-20)
(0.421119 -0.0144469 8.45439e-19)
(0.420934 -0.0159907 9.98646e-19)
(0.420664 -0.0176818 9.69372e-19)
(0.420296 -0.0195401 1.33583e-19)
(0.419811 -0.0215907 -1.11362e-18)
(0.419186 -0.0238651 1.44684e-19)
(0.418393 -0.0264037 -3.01143e-19)
(0.417395 -0.0292578 -1.10538e-18)
(0.416146 -0.0324937 -1.32223e-18)
(0.414583 -0.036199 0)
(0.412624 -0.0404903 -1.82836e-19)
(0.410155 -0.0455273 1.42376e-20)
(0.40702 -0.0515329 2.03018e-19)
(0.402988 -0.0588289 1.53232e-18)
(0.397734 -0.0678911 3.48497e-19)
(0.390714 -0.0794447 -8.61633e-20)
(0.381152 -0.0947663 2.28329e-18)
(0.367543 -0.115267 -1.46015e-19)
(0.347432 -0.147495 2.51651e-18)
(0.315008 -0.186522 2.96626e-18)
(0.264891 -0.29071 -2.7027e-18)
(0.41985 -0.00596842 -7.58575e-19)
(0.419975 -0.00663906 -7.65703e-19)
(0.420052 -0.00741474 -8.10849e-19)
(0.420131 -0.00826485 2.74483e-20)
(0.420191 -0.00918443 -1.66074e-18)
(0.420209 -0.0101814 -8.66653e-19)
(0.420181 -0.0112653 -1.899e-18)
(0.420101 -0.0124438 1.12284e-19)
(0.419963 -0.0137246 -5.93874e-20)
(0.419757 -0.0151182 -1.96476e-18)
(0.419472 -0.0166382 4.08838e-21)
(0.419094 -0.0183007 -9.84968e-19)
(0.418604 -0.0201258 1.02735e-18)
(0.417984 -0.0221385 -5.92902e-21)
(0.417208 -0.02437 1.48217e-19)
(0.416244 -0.0268596 -1.54083e-19)
(0.415051 -0.0296569 1.28774e-18)
(0.413576 -0.0328264 1.3502e-18)
(0.411749 -0.0364523 1.78946e-19)
(0.409476 -0.0406472 1.13572e-18)