/*--------------------------------*- C++ -*----------------------------------*\
  =========                 |
  \\      /  F ield         | OpenFOAM: The Open Source CFD Toolbox
   \\    /   O peration     | Website:  https://openfoam.org
    \\  /    A nd           | Version:  11
     \\/     M anipulation  |
\*---------------------------------------------------------------------------*/
FoamFile
{
    format      ascii;
    class       surfaceScalarField;
    location    "6.4";
    object      phi;
}
// * * * * * * * * * * * * * * * * * * * * * * * * * * * * * * * * * * * * * //

dimensions      [0 3 -1 0 0 0 0];

internalField   nonuniform List<scalar> 
24840
(
1.532e-05
1.33422e-08
1.53022e-05
1.78185e-08
1.52858e-05
1.6321e-08
1.52702e-05
1.56973e-08
1.52547e-05
1.54761e-08
1.52396e-05
1.50387e-08
1.52253e-05
1.43418e-08
1.52119e-05
1.33971e-08
1.51997e-05
1.22029e-08
1.5189e-05
1.07131e-08
1.51801e-05
8.84675e-09
1.51737e-05
6.41615e-09
1.51702e-05
3.48536e-09
1.51703e-05
-7.10236e-11
1.51748e-05
-4.53381e-09
1.51849e-05
-1.00669e-08
1.52018e-05
-1.68654e-08
1.5227e-05
-2.52248e-08
1.52627e-05
-3.57059e-08
1.53111e-05
-4.84216e-08
1.53755e-05
-6.43392e-08
1.54592e-05
-8.37421e-08
1.55664e-05
-1.07179e-07
1.57032e-05
-1.36803e-07
1.5877e-05
-1.73841e-07
1.60967e-05
-2.19685e-07
1.63732e-05
-2.76512e-07
1.67156e-05
-3.42413e-07
1.71565e-05
-4.40845e-07
-4.67305e-07
1.76238e-05
1.53394e-05
7.23571e-09
1.53438e-05
1.35053e-08
1.53477e-05
1.23994e-08
1.53515e-05
1.19091e-08
1.53554e-05
1.14982e-08
1.53598e-05
1.0625e-08
1.53649e-05
9.31757e-09
1.53708e-05
7.51408e-09
1.53777e-05
5.26774e-09
1.53859e-05
2.45338e-09
1.53958e-05
-1.05472e-09
1.54079e-05
-5.60413e-09
1.54224e-05
-1.10706e-08
1.54401e-05
-1.77818e-08
1.54617e-05
-2.6061e-08
1.54878e-05
-3.61827e-08
1.55195e-05
-4.85809e-08
1.5558e-05
-6.37343e-08
1.56042e-05
-8.19459e-08
1.56606e-05
-1.04767e-07
1.57293e-05
-1.33036e-07
1.58138e-05
-1.68295e-07
1.59194e-05
-2.12791e-07
1.60507e-05
-2.68035e-07
1.62137e-05
-3.36883e-07
1.64165e-05
-4.22463e-07
1.66687e-05
-5.28727e-07
1.69827e-05
-6.56409e-07
1.73712e-05
-8.29377e-07
-9.44795e-07
1.78487e-05
1.53362e-05
4.32049e-09
1.53402e-05
9.58789e-09
1.53432e-05
9.39229e-09
1.53467e-05
8.4236e-09
1.53505e-05
7.61584e-09
1.53548e-05
6.36873e-09
1.53595e-05
4.56649e-09
1.53651e-05
1.99422e-09
1.53715e-05
-1.20121e-09
1.53792e-05
-5.1766e-09
1.53884e-05
-1.02709e-08
1.53995e-05
-1.66853e-08
1.5413e-05
-2.45744e-08
1.54295e-05
-3.42939e-08
1.54497e-05
-4.62713e-08
1.54745e-05
-6.09591e-08
1.55048e-05
-7.89537e-08
1.55421e-05
-1.01006e-07
1.5588e-05
-1.27884e-07
1.56444e-05
-1.61142e-07
1.57138e-05
-2.02457e-07
1.57992e-05
-2.53671e-07
1.5904e-05
-3.17549e-07
1.60331e-05
-3.97166e-07
1.61925e-05
-4.96335e-07
1.63897e-05
-6.19647e-07
1.66345e-05
-7.73467e-07
1.6938e-05
-9.5991e-07
1.73162e-05
-1.20762e-06
-1.42073e-06
1.77922e-05
1.53351e-05
2.55814e-09
1.53385e-05
6.23033e-09
1.53414e-05
6.44973e-09
1.53445e-05
5.27115e-09
1.53482e-05
3.96154e-09
1.53523e-05
2.25563e-09
1.53569e-05
-4.70499e-12
1.53622e-05
-3.34276e-09
1.53685e-05
-7.43722e-09
1.53759e-05
-1.26136e-08
1.53848e-05
-1.91824e-08
1.53955e-05
-2.74242e-08
1.54086e-05
-3.76438e-08
1.54246e-05
-5.02551e-08
1.54441e-05
-6.57919e-08
1.5468e-05
-8.48754e-08
1.54973e-05
-1.08279e-07
1.55333e-05
-1.36975e-07
1.55775e-05
-1.72112e-07
1.56318e-05
-2.15442e-07
1.56985e-05
-2.69101e-07
1.57803e-05
-3.35523e-07
1.58809e-05
-4.18134e-07
1.60048e-05
-5.21109e-07
1.61579e-05
-6.49409e-07
1.63473e-05
-8.09057e-07
1.65824e-05
-1.00852e-06
1.6875e-05
-1.25254e-06
1.72389e-05
-1.57153e-06
-1.88553e-06
1.77037e-05
1.53345e-05
1.40284e-09
1.53371e-05
3.60881e-09
1.53399e-05
3.69693e-09
1.53428e-05
2.34198e-09
1.53462e-05
5.64905e-10
1.53501e-05
-1.63338e-09
1.53546e-05
-4.49952e-09
1.53597e-05
-8.44803e-09
1.53657e-05
-1.34401e-08
1.53728e-05
-1.97548e-08
1.53814e-05
-2.77278e-08
1.53917e-05
-3.77246e-08
1.54042e-05
-5.01529e-08
1.54194e-05
-6.55127e-08
1.54381e-05
-8.44417e-08
1.54609e-05
-1.07706e-07
1.54889e-05
-1.36246e-07
1.55231e-05
-1.71241e-07
1.55652e-05
-2.14155e-07
1.56167e-05
-2.66985e-07
1.56799e-05
-3.32277e-07
1.57575e-05
-4.13082e-07
1.58527e-05
-5.13426e-07
1.597e-05
-6.38365e-07
1.61147e-05
-7.94076e-07
1.62937e-05
-9.88083e-07
1.6516e-05
-1.23078e-06
1.67934e-05
-1.53003e-06
1.71385e-05
-1.9166e-06
-2.32936e-06
1.75823e-05
1.53342e-05
5.85233e-10
1.53362e-05
1.51946e-09
1.53388e-05
1.16504e-09
1.53415e-05
-4.33833e-10
1.53447e-05
-2.63149e-09
1.53484e-05
-5.32004e-09
1.53527e-05
-8.76413e-09
1.53576e-05
-1.33215e-08
1.53633e-05
-1.91507e-08
1.537e-05
-2.65281e-08
1.53781e-05
-3.58259e-08
1.53879e-05
-4.74792e-08
1.53997e-05
-6.19797e-08
1.54141e-05
-7.99157e-08
1.54317e-05
-1.02022e-07
1.54532e-05
-1.29193e-07
1.54795e-05
-1.62527e-07
1.55116e-05
-2.03397e-07
1.5551e-05
-2.53531e-07
1.55992e-05
-3.15192e-07
1.56582e-05
-3.91289e-07
1.57305e-05
-4.85403e-07
1.58193e-05
-6.02149e-07
1.59283e-05
-7.47405e-07
1.60627e-05
-9.28493e-07
1.6229e-05
-1.15439e-06
1.64355e-05
-1.43727e-06
1.66938e-05
-1.78826e-06
1.70152e-05
-2.23806e-06
-2.74597e-06
1.74318e-05
1.5334e-05
-3.97405e-11
1.53357e-05
-1.86034e-10
1.53379e-05
-1.10627e-09
1.53405e-05
-3.01788e-09
1.53435e-05
-5.60458e-09
1.53469e-05
-8.76806e-09
1.53509e-05
-1.27553e-08
1.53555e-05
-1.79133e-08
1.53609e-05
-2.45154e-08
1.53672e-05
-3.28782e-08
1.53748e-05
-4.34095e-08
1.53839e-05
-5.65974e-08
1.5395e-05
-7.30076e-08
1.54084e-05
-9.3314e-08
1.54247e-05
-1.18344e-07
1.54446e-05
-1.49108e-07
1.54689e-05
-1.86845e-07
1.54986e-05
-2.33101e-07
1.55349e-05
-2.89826e-07
1.55793e-05
-3.59537e-07
1.56334e-05
-4.45461e-07
1.56997e-05
-5.51646e-07
1.57808e-05
-6.83265e-07
1.58803e-05
-8.46925e-07
1.60028e-05
-1.05096e-06
1.61541e-05
-1.30572e-06
1.63419e-05
-1.62504e-06
1.65769e-05
-2.02331e-06
1.68699e-05
-2.53107e-06
-3.129e-06
1.7253e-05
1.53338e-05
-5.53631e-10
1.53353e-05
-1.60162e-09
1.53373e-05
-3.11611e-09
1.53396e-05
-5.3964e-09
1.53424e-05
-8.35789e-09
1.53456e-05
-1.19696e-08
1.53493e-05
-1.64635e-08
1.53536e-05
-2.2193e-08
1.53586e-05
-2.95021e-08
1.53645e-05
-3.87581e-08
1.53714e-05
-5.04076e-08
1.53798e-05
-6.49865e-08
1.539e-05
-8.31255e-08
1.54022e-05
-1.05575e-07
1.54171e-05
-1.33246e-07
1.54353e-05
-1.67249e-07
1.54574e-05
-2.08946e-07
1.54843e-05
-2.60032e-07
1.55171e-05
-3.22647e-07
1.55571e-05
-3.9953e-07
1.56058e-05
-4.9419e-07
1.56652e-05
-6.11065e-07
1.57378e-05
-7.55819e-07
1.58266e-05
-9.35685e-07
1.59355e-05
-1.15988e-06
1.60697e-05
-1.43999e-06
1.62361e-05
-1.79136e-06
1.64442e-05
-2.2315e-06
1.6704e-05
-2.79078e-06
-3.47169e-06
1.70467e-05
1.53338e-05
-9.81274e-10
1.5335e-05
-2.80033e-09
1.53367e-05
-4.89043e-09
1.53389e-05
-7.56493e-09
1.53414e-05
-1.08882e-08
1.53444e-05
-1.49106e-08
1.53478e-05
-1.98662e-08
1.53517e-05
-2.61185e-08
1.53563e-05
-3.406e-08
1.53616e-05
-4.41089e-08
1.53679e-05
-5.67516e-08
1.53755e-05
-7.25666e-08
1.53846e-05
-9.22383e-08
1.53956e-05
-1.16582e-07
1.5409e-05
-1.46581e-07
1.54252e-05
-1.83433e-07
1.54448e-05
-2.28602e-07
1.54687e-05
-2.83909e-07
1.54977e-05
-3.5165e-07
1.55329e-05
-4.3475e-07
1.55757e-05
-5.3695e-07
1.56276e-05
-6.63005e-07
1.56908e-05
-8.18978e-07
1.57677e-05
-1.01262e-06
1.58617e-05
-1.25388e-06
1.59771e-05
-1.55536e-06
1.61195e-05
-1.93376e-06
1.62974e-05
-2.40939e-06
1.65191e-05
-3.01251e-06
-3.76705e-06
1.68145e-05
1.53337e-05
-1.34194e-09
1.53347e-05
-3.82725e-09
1.53363e-05
-6.45007e-09
1.53382e-05
-9.51811e-09
1.53405e-05
-1.31862e-08
1.53432e-05
-1.75781e-08
1.53463e-05
-2.29447e-08
1.53498e-05
-2.96616e-08
1.53539e-05
-3.81576e-08
1.53587e-05
-4.88949e-08
1.53643e-05
-6.23969e-08
1.53711e-05
-7.92782e-08
1.53791e-05
-1.00268e-07
1.53887e-05
-1.26234e-07
1.54004e-05
-1.58224e-07
1.54144e-05
-1.97502e-07
1.54315e-05
-2.45619e-07
1.5452e-05
-3.04494e-07
1.54769e-05
-3.76543e-07
1.5507e-05
-4.64838e-07
1.55434e-05
-5.73299e-07
1.55873e-05
-7.06913e-07
1.56403e-05
-8.72049e-07
1.57046e-05
-1.07684e-06
1.57825e-05
-1.33179e-06
1.58774e-05
-1.65029e-06
1.59938e-05
-2.0501e-06
1.61383e-05
-2.55395e-06
1.63177e-05
-3.19189e-06
-4.00812e-06
1.65588e-05
1.53336e-05
-1.64899e-09
1.53345e-05
-4.71091e-09
1.53359e-05
-7.81519e-09
1.53376e-05
-1.12572e-08
1.53397e-05
-1.52453e-08
1.53421e-05
-1.99627e-08
1.53448e-05
-2.56854e-08
1.53479e-05
-3.28025e-08
1.53516e-05
-4.17691e-08
1.53557e-05
-5.30824e-08
1.53606e-05
-6.72983e-08
1.53664e-05
-8.50627e-08
1.53733e-05
-1.0714e-07
1.53815e-05
-1.34442e-07
1.53913e-05
-1.68063e-07
1.54032e-05
-2.09323e-07
1.54174e-05
-2.59834e-07
1.54345e-05
-3.21588e-07
1.5455e-05
-3.97088e-07
1.54797e-05
-4.89506e-07
1.55093e-05
-6.02883e-07
1.55447e-05
-7.4236e-07
1.55872e-05
-9.14496e-07
1.5638e-05
-1.12767e-06
1.56989e-05
-1.39272e-06
1.57722e-05
-1.72358e-06
1.58608e-05
-2.13869e-06
1.59695e-05
-2.66266e-06
1.61028e-05
-3.32513e-06
-4.18839e-06
1.6283e-05
1.53336e-05
-1.91131e-09
1.53344e-05
-5.47134e-09
1.53355e-05
-9.00296e-09
1.53371e-05
-1.27871e-08
1.53389e-05
-1.70632e-08
1.5341e-05
-2.206e-08
1.53434e-05
-2.80795e-08
1.53461e-05
-3.55246e-08
1.53492e-05
-4.48705e-08
1.53528e-05
-5.66412e-08
1.53569e-05
-7.14191e-08
1.53617e-05
-8.98749e-08
1.53673e-05
-1.128e-07
1.5374e-05
-1.41137e-07
1.5382e-05
-1.76015e-07
1.53915e-05
-2.18792e-07
1.54027e-05
-2.71121e-07
1.54162e-05
-3.35041e-07
1.54322e-05
-4.13104e-07
1.54512e-05
-5.08539e-07
1.54738e-05
-6.25447e-07
1.55005e-05
-7.69037e-07
1.55319e-05
-9.45944e-07
1.55689e-05
-1.16464e-06
1.56123e-05
-1.43608e-06
1.56631e-05
-1.77439e-06
1.57227e-05
-2.19834e-06
1.57937e-05
-2.73367e-06
1.58779e-05
-3.40927e-06
-4.30227e-06
1.59918e-05
1.53336e-05
-2.13503e-09
1.53342e-05
-6.12328e-09
1.53352e-05
-1.00282e-08
1.53366e-05
-1.41149e-08
1.53381e-05
-1.86404e-08
1.53399e-05
-2.38666e-08
1.5342e-05
-3.01199e-08
1.53443e-05
-3.78164e-08
1.53468e-05
-4.74454e-08
1.53498e-05
-5.95498e-08
1.53531e-05
-7.47317e-08
1.53569e-05
-9.36799e-08
1.53613e-05
-1.17203e-07
1.53664e-05
-1.46265e-07
1.53724e-05
-1.82014e-07
1.53794e-05
-2.25831e-07
1.53877e-05
-2.79389e-07
1.53974e-05
-3.44746e-07
1.54088e-05
-4.2447e-07
1.5422e-05
-5.21799e-07
1.54374e-05
-6.40833e-07
1.54551e-05
-7.86766e-07
1.54754e-05
-9.66194e-07
1.54983e-05
-1.18751e-06
1.55238e-05
-1.46156e-06
1.55517e-05
-1.80235e-06
1.55818e-05
-2.22845e-06
1.56141e-05
-2.76595e-06
1.56473e-05
-3.44246e-06
-4.3457e-06
1.56907e-05
1.53335e-05
-2.32474e-09
1.53341e-05
-6.6786e-09
1.5335e-05
-1.09041e-08
1.53361e-05
-1.52493e-08
1.53374e-05
-1.99799e-08
1.53389e-05
-2.53825e-08
1.53406e-05
-3.1804e-08
1.53425e-05
-3.96715e-08
1.53445e-05
-4.94832e-08
1.53468e-05
-6.17936e-08
1.53492e-05
-7.72175e-08
1.5352e-05
-9.64543e-08
1.53551e-05
-1.20322e-07
1.53587e-05
-1.49792e-07
1.53627e-05
-1.86021e-07
1.53672e-05
-2.30395e-07
1.53724e-05
-2.84585e-07
1.53783e-05
-3.50644e-07
1.5385e-05
-4.31121e-07
1.53924e-05
-5.29221e-07
1.54005e-05
-6.48982e-07
1.54093e-05
-7.95499e-07
1.54183e-05
-9.75215e-07
1.54271e-05
-1.19629e-06
1.54347e-05
-1.46922e-06
1.54399e-05
-1.80753e-06
1.54406e-05
-2.22909e-06
1.5434e-05
-2.75944e-06
1.54158e-05
-3.42419e-06
-4.31664e-06
1.53867e-05
1.53335e-05
-2.48434e-09
1.5334e-05
-7.14779e-09
1.53347e-05
-1.16433e-08
1.53356e-05
-1.62003e-08
1.53368e-05
-2.10875e-08
1.5338e-05
-2.66103e-08
1.53393e-05
-3.31322e-08
1.53407e-05
-4.10879e-08
1.53422e-05
-5.0979e-08
1.53438e-05
-6.33653e-08
1.53454e-05
-7.8867e-08
1.53472e-05
-9.81865e-08
1.5349e-05
-1.22142e-07
1.53509e-05
-1.51702e-07
1.53529e-05
-1.88018e-07
1.5355e-05
-2.32463e-07
1.53571e-05
-2.86692e-07
1.53591e-05
-3.52722e-07
1.53611e-05
-4.33054e-07
1.53627e-05
-5.30816e-07
1.53636e-05
-6.4993e-07
1.53634e-05
-7.95315e-07
1.53614e-05
-9.73152e-07
1.53563e-05
-1.19122e-06
1.53465e-05
-1.45942e-06
1.53294e-05
-1.79048e-06
1.53014e-05
-2.20103e-06
1.52571e-05
-2.7151e-06
1.51884e-05
-3.35557e-06
-4.21565e-06
1.50874e-05
1.53335e-05
-2.61753e-09
1.53339e-05
-7.54122e-09
1.53345e-05
-1.22593e-08
1.53353e-05
-1.69797e-08
1.53361e-05
-2.19714e-08
1.53371e-05
-2.75556e-08
1.53381e-05
-3.41088e-08
1.5339e-05
-4.20684e-08
1.534e-05
-5.19345e-08
1.53409e-05
-6.42654e-08
1.53417e-05
-7.96802e-08
1.53424e-05
-9.88765e-08
1.53429e-05
-1.22664e-07
1.53432e-05
-1.51997e-07
1.53432e-05
-1.88009e-07
1.53428e-05
-2.32047e-07
1.53418e-05
-2.85726e-07
1.53401e-05
-3.5101e-07
1.53374e-05
-4.3032e-07
1.53332e-05
-5.26667e-07
1.53271e-05
-6.43807e-07
1.53182e-05
-7.86414e-07
1.53053e-05
-9.60311e-07
1.52869e-05
-1.17275e-06
1.52603e-05
-1.43285e-06
1.5222e-05
-1.75221e-06
1.51667e-05
-2.14573e-06
1.50867e-05
-2.63502e-06
1.49705e-05
-3.23941e-06
-4.04621e-06
1.48011e-05
1.53334e-05
-2.72832e-09
1.53338e-05
-7.87008e-09
1.53343e-05
-1.27667e-08
1.53349e-05
-1.7601e-08
1.53356e-05
-2.26423e-08
1.53362e-05
-2.82272e-08
1.53369e-05
-3.47417e-08
1.53374e-05
-4.26206e-08
1.53378e-05
-5.23565e-08
1.53381e-05
-6.45014e-08
1.53381e-05
-7.96658e-08
1.53377e-05
-9.85352e-08
1.5337e-05
-1.21901e-07
1.53357e-05
-1.50696e-07
1.53337e-05
-1.86021e-07
1.53308e-05
-2.29182e-07
1.53268e-05
-2.8174e-07
1.53214e-05
-3.45581e-07
1.53141e-05
-4.23022e-07
1.53043e-05
-5.16924e-07
1.52914e-05
-6.3083e-07
1.52741e-05
-7.69111e-07
1.52509e-05
-9.37148e-07
1.52197e-05
-1.14155e-06
1.51773e-05
-1.39048e-06
1.51193e-05
-1.69416e-06
1.50389e-05
-2.06531e-06
1.49261e-05
-2.5223e-06
1.47669e-05
-3.08018e-06
-3.8149e-06
1.45356e-05
1.53334e-05
-2.82135e-09
1.53337e-05
-8.14743e-09
1.53341e-05
-1.31824e-08
1.53346e-05
-1.808e-08
1.53351e-05
-2.3113e-08
1.53355e-05
-2.86366e-08
1.53358e-05
-3.50426e-08
1.53359e-05
-4.27563e-08
1.53358e-05
-5.22581e-08
1.53354e-05
-6.40877e-08
1.53346e-05
-7.88415e-08
1.53332e-05
-9.71849e-08
1.53312e-05
-1.19883e-07
1.53283e-05
-1.47835e-07
1.53244e-05
-1.82101e-07
1.53192e-05
-2.23932e-07
1.53122e-05
-2.74818e-07
1.53032e-05
-3.3655e-07
1.52915e-05
-4.11316e-07
1.52764e-05
-5.01799e-07
1.52568e-05
-6.11293e-07
1.52315e-05
-7.43817e-07
1.51986e-05
-9.04249e-07
1.51556e-05
-1.09847e-06
1.50986e-05
-1.33356e-06
1.50226e-05
-1.61813e-06
1.49198e-05
-1.96246e-06
1.47785e-05
-2.38099e-06
1.45822e-05
-2.88394e-06
-3.53123e-06
1.42985e-05
1.53334e-05
-2.90242e-09
1.53337e-05
-8.38936e-09
1.5334e-05
-1.35265e-08
1.53344e-05
-1.84344e-08
1.53346e-05
-2.33984e-08
1.53348e-05
-2.87983e-08
1.53348e-05
-3.50266e-08
1.53345e-05
-4.24917e-08
1.53339e-05
-5.16571e-08
1.53329e-05
-6.3046e-08
1.53313e-05
-7.72336e-08
1.53289e-05
-9.48581e-08
1.53257e-05
-1.16651e-07
1.53213e-05
-1.43468e-07
1.53155e-05
-1.76317e-07
1.5308e-05
-2.16385e-07
1.52983e-05
-2.65074e-07
1.52858e-05
-3.24067e-07
1.52699e-05
-3.954e-07
1.52496e-05
-4.81558e-07
1.52239e-05
-5.85557e-07
1.51911e-05
-7.11031e-07
1.51492e-05
-8.6231e-07
1.50952e-05
-1.04449e-06
1.50251e-05
-1.2635e-06
1.49332e-05
-1.52622e-06
1.48111e-05
-1.84031e-06
1.46459e-05
-2.21585e-06
1.442e-05
-2.65798e-06
-3.20712e-06
1.40959e-05
1.53334e-05
-2.97917e-09
1.53336e-05
-8.61663e-09
1.53339e-05
-1.38233e-08
1.53342e-05
-1.86842e-08
1.53343e-05
-2.35151e-08
1.53342e-05
-2.87297e-08
1.53339e-05
-3.47124e-08
1.53333e-05
-4.1847e-08
1.53322e-05
-5.05766e-08
1.53305e-05
-6.1404e-08
1.53282e-05
-7.48767e-08
1.53249e-05
-9.15979e-08
1.53205e-05
-1.12258e-07
1.53147e-05
-1.37662e-07
1.53072e-05
-1.68757e-07
1.52974e-05
-2.06651e-07
1.5285e-05
-2.52651e-07
1.52693e-05
-3.08314e-07
1.52494e-05
-3.75514e-07
1.52243e-05
-4.56517e-07
1.51928e-05
-5.54043e-07
1.51531e-05
-6.7132e-07
1.51029e-05
-8.12111e-07
1.50391e-05
-9.80707e-07
1.49575e-05
-1.18186e-06
1.4852e-05
-1.42071e-06
1.47139e-05
-1.70226e-06
1.45302e-05
-2.03213e-06
1.42826e-05
-2.41039e-06
-2.85622e-06
1.39317e-05
1.53334e-05
-3.06215e-09
1.53337e-05
-8.85708e-09
1.53339e-05
-1.41018e-08
1.53341e-05
-1.88513e-08
1.53341e-05
-2.3483e-08
1.53338e-05
-2.84502e-08
1.53332e-05
-3.41202e-08
1.53322e-05
-4.08459e-08
1.53307e-05
-4.9045e-08
1.53284e-05
-5.91954e-08
1.53254e-05
-7.18115e-08
1.53212e-05
-8.74552e-08
1.53157e-05
-1.06769e-07
1.53086e-05
-1.305e-07
1.52994e-05
-1.59524e-07
1.52876e-05
-1.94864e-07
1.52726e-05
-2.37718e-07
1.52538e-05
-2.89507e-07
1.52302e-05
-3.51932e-07
1.52008e-05
-4.27029e-07
1.51639e-05
-5.17214e-07
1.51179e-05
-6.253e-07
1.50603e-05
-7.54484e-07
1.49878e-05
-9.08266e-07
1.48962e-05
-1.09026e-06
1.47795e-05
-1.30395e-06
1.4629e-05
-1.55181e-06
1.44321e-05
-1.83519e-06
1.41712e-05
-2.14952e-06
-2.49279e-06
1.38078e-05
1.53334e-05
-3.16676e-09
1.53337e-05
-9.1492e-09
1.5334e-05
-1.43975e-08
1.53341e-05
-1.8956e-08
1.5334e-05
-2.33169e-08
1.53335e-05
-2.79826e-08
1.53327e-05
-3.3281e-08
1.53313e-05
-3.95184e-08
1.53294e-05
-4.70918e-08
1.53266e-05
-5.64571e-08
1.53229e-05
-6.80867e-08
1.53179e-05
-8.2493e-08
1.53114e-05
-1.00263e-07
1.5303e-05
-1.2208e-07
1.52922e-05
-1.48739e-07
1.52785e-05
-1.81172e-07
1.52613e-05
-2.20461e-07
1.52397e-05
-2.67883e-07
1.52127e-05
-3.24957e-07
1.51791e-05
-3.93483e-07
1.51375e-05
-4.75569e-07
1.50858e-05
-5.73623e-07
1.50216e-05
-6.90294e-07
1.49417e-05
-8.28338e-07
1.48418e-05
-9.90326e-07
1.4716e-05
-1.17823e-06
1.45566e-05
-1.39233e-06
1.43515e-05
-1.63018e-06
1.40854e-05
-1.88337e-06
-2.13066e-06
1.37233e-05
1.53335e-05
-3.31678e-09
1.53339e-05
-9.54795e-09
1.53342e-05
-1.47499e-08
1.53343e-05
-1.90182e-08
1.5334e-05
-2.3043e-08
1.53334e-05
-2.73559e-08
1.53323e-05
-3.22145e-08
1.53307e-05
-3.78887e-08
1.53284e-05
-4.47573e-08
1.53251e-05
-5.32408e-08
1.53208e-05
-6.37616e-08
1.53151e-05
-7.67801e-08
1.53077e-05
-9.28252e-08
1.52981e-05
-1.12505e-07
1.52859e-05
-1.36535e-07
1.52705e-05
-1.65743e-07
1.52511e-05
-2.01089e-07
1.52269e-05
-2.43702e-07
1.51969e-05
-2.94914e-07
1.51597e-05
-3.56289e-07
1.51137e-05
-4.29631e-07
1.50571e-05
-5.16956e-07
1.49872e-05
-6.20406e-07
1.49009e-05
-7.42067e-07
1.47942e-05
-8.836e-07
1.46616e-05
-1.04571e-06
1.44962e-05
-1.22691e-06
1.42878e-05
-1.42172e-06
1.40234e-05
-1.61903e-06
-1.78206e-06
1.36748e-05
1.53336e-05
-3.55194e-09
1.53342e-05
-1.0132e-08
1.53346e-05
-1.51996e-08
1.53346e-05
-1.90561e-08
1.53343e-05
-2.26862e-08
1.53335e-05
-2.65966e-08
1.53323e-05
-3.09491e-08
1.53304e-05
-3.59886e-08
1.53277e-05
-4.2077e-08
1.5324e-05
-4.95908e-08
1.53192e-05
-5.88931e-08
1.53128e-05
-7.03919e-08
1.53045e-05
-8.45499e-08
1.52939e-05
-1.01896e-07
1.52804e-05
-1.23058e-07
1.52634e-05
-1.48758e-07
1.52422e-05
-1.79829e-07
1.52157e-05
-2.17245e-07
1.51829e-05
-2.62152e-07
1.51425e-05
-3.15878e-07
1.50928e-05
-3.79935e-07
1.50318e-05
-4.55973e-07
1.49571e-05
-5.45674e-07
1.48656e-05
-6.50545e-07
1.47535e-05
-7.7151e-07
1.46161e-05
-9.0829e-07
1.44474e-05
-1.05818e-06
1.42392e-05
-1.21361e-06
1.39823e-05
-1.36213e-06
-1.45654e-06
1.36568e-05
1.53337e-05
-3.94571e-09
1.53346e-05
-1.10142e-08
1.53352e-05
-1.57713e-08
1.53352e-05
-1.90829e-08
1.53348e-05
-2.22827e-08
1.53339e-05
-2.57402e-08
1.53325e-05
-2.95188e-08
1.53304e-05
-3.38597e-08
1.53274e-05
-3.91013e-08
1.53234e-05
-4.55664e-08
1.5318e-05
-5.35497e-08
1.53111e-05
-6.34114e-08
1.5302e-05
-7.55402e-08
1.52905e-05
-9.03797e-08
1.52759e-05
-1.08468e-07
1.52576e-05
-1.30413e-07
1.52347e-05
-1.56918e-07
1.52062e-05
-1.88804e-07
1.51711e-05
-2.27027e-07
1.51279e-05
-2.72688e-07
1.5075e-05
-3.27017e-07
1.50104e-05
-3.91329e-07
1.49316e-05
-4.66906e-07
1.48358e-05
-5.54775e-07
1.47196e-05
-6.55313e-07
1.45789e-05
-7.67568e-07
1.44089e-05
-8.88195e-07
1.42038e-05
-1.00854e-06
1.39581e-05
-1.11643e-06
-1.16025e-06
1.36619e-05
1.5334e-05
-4.64029e-09
1.53354e-05
-1.23642e-08
1.53361e-05
-1.64564e-08
1.53361e-05
-1.91039e-08
1.53357e-05
-2.18542e-08
1.53347e-05
-2.47955e-08
1.53331e-05
-2.79358e-08
1.53308e-05
-3.15292e-08
1.53276e-05
-3.58713e-08
1.53232e-05
-4.12235e-08
1.53175e-05
-4.7803e-08
1.531e-05
-5.59341e-08
1.53004e-05
-6.59047e-08
1.52881e-05
-7.80922e-08
1.52725e-05
-9.29338e-08
1.5253e-05
-1.10918e-07
1.52287e-05
-1.32614e-07
1.51986e-05
-1.58692e-07
1.51615e-05
-1.89919e-07
1.5116e-05
-2.27175e-07
1.50604e-05
-2.71428e-07
1.49928e-05
-3.23688e-07
1.49108e-05
-3.84894e-07
1.48117e-05
-4.55706e-07
1.46925e-05
-5.36138e-07
1.45498e-05
-6.24875e-07
1.43801e-05
-7.18518e-07
1.41798e-05
-8.08249e-07
1.39475e-05
-8.84081e-07
-8.952e-07
1.36825e-05
1.53346e-05
-5.89512e-09
1.53366e-05
-1.4398e-08
1.53374e-05
-1.72526e-08
1.53375e-05
-1.92025e-08
1.53371e-05
-2.14618e-08
1.53361e-05
-2.3788e-08
1.53344e-05
-2.6228e-08
1.53319e-05
-2.90343e-08
1.53285e-05
-3.2433e-08
1.53239e-05
-3.66187e-08
1.53178e-05
-4.17144e-08
1.53099e-05
-4.80628e-08
1.52998e-05
-5.57638e-08
1.52869e-05
-6.51875e-08
1.52706e-05
-7.66422e-08
1.52501e-05
-9.04975e-08
1.52247e-05
-1.07197e-07
1.51933e-05
-1.27253e-07
1.51546e-05
-1.5125e-07
1.51073e-05
-1.79853e-07
1.50496e-05
-2.13785e-07
1.49797e-05
-2.53787e-07
1.48954e-05
-3.00518e-07
1.4794e-05
-3.54376e-07
1.46731e-05
-4.15208e-07
1.45299e-05
-4.81632e-07
1.43621e-05
-5.50726e-07
1.41677e-05
-6.13908e-07
1.39501e-05
-6.66426e-07
-6.60341e-07
1.37152e-05
1.53357e-05
-8.2231e-09
1.53383e-05
-1.70316e-08
1.53391e-05
-1.80768e-08
1.53394e-05
-1.94993e-08
1.53391e-05
-2.11313e-08
1.5338e-05
-2.27357e-08
1.53362e-05
-2.44435e-08
1.53336e-05
-2.64325e-08
1.533e-05
-2.88446e-08
1.53253e-05
-3.18392e-08
1.53189e-05
-3.53573e-08
1.53107e-05
-3.98927e-08
1.53002e-05
-4.52211e-08
1.52868e-05
-5.18053e-08
1.52699e-05
-5.97689e-08
1.52488e-05
-6.937e-08
1.52225e-05
-8.09289e-08
1.51901e-05
-9.48069e-08
1.51503e-05
-1.11414e-07
1.51016e-05
-1.31212e-07
1.50425e-05
-1.54704e-07
1.49711e-05
-1.82397e-07
1.48854e-05
-2.14739e-07
1.4783e-05
-2.51978e-07
1.46617e-05
-2.93961e-07
1.45196e-05
-3.39563e-07
1.43556e-05
-3.86647e-07
1.41686e-05
-4.26926e-07
1.39642e-05
-4.62046e-07
-4.44366e-07
1.37482e-05
1.53393e-05
-1.41579e-08
1.5342e-05
-1.9731e-08
1.53427e-05
-1.88466e-08
1.53427e-05
-1.94482e-08
1.53419e-05
-2.03992e-08
1.53405e-05
-2.124e-08
1.53381e-05
-2.21052e-08
1.53348e-05
-2.31243e-08
1.53303e-05
-2.43733e-08
1.53244e-05
-2.59486e-08
1.53168e-05
-2.77534e-08
1.53071e-05
-3.01844e-08
1.52949e-05
-3.29597e-08
1.52795e-05
-3.64462e-08
1.52604e-05
-4.06735e-08
1.52368e-05
-4.5788e-08
1.52079e-05
-5.19734e-08
1.51725e-05
-5.94343e-08
1.51295e-05
-6.84038e-08
1.50774e-05
-7.91474e-08
1.50147e-05
-9.19535e-08
1.49394e-05
-1.0711e-07
1.48495e-05
-1.24863e-07
1.47429e-05
-1.45328e-07
1.46173e-05
-1.68364e-07
1.44709e-05
-1.93207e-07
1.43028e-05
-2.18551e-07
1.4115e-05
-2.39101e-07
1.39083e-05
-2.55344e-07
-1.94923e-07
1.36588e-05
1.53192e-05
1.52994e-05
1.52806e-05
1.52611e-05
1.52407e-05
1.52195e-05
1.51974e-05
1.51743e-05
1.51499e-05
1.5124e-05
1.50962e-05
1.5066e-05
1.50331e-05
1.49966e-05
1.49559e-05
1.49102e-05
1.48582e-05
1.47987e-05
1.47303e-05
1.46512e-05
1.45592e-05
1.44521e-05
1.43273e-05
1.41819e-05
1.40136e-05
1.38204e-05
1.36018e-05
1.33627e-05
1.31074e-05
1.29124e-05
1.7386e-05
-8.09499e-06
8.3328e-06
1.71576e-05
-8.24236e-06
8.47078e-06
1.68913e-05
-8.38493e-06
8.65119e-06
1.6589e-05
-8.51665e-06
8.81895e-06
1.62579e-05
-8.64757e-06
8.97869e-06
1.59049e-05
-8.78261e-06
9.13557e-06
1.55343e-05
-8.92339e-06
9.29401e-06
1.51485e-05
-9.07083e-06
9.45663e-06
1.47488e-05
-9.22567e-06
9.62538e-06
1.43354e-05
-9.38828e-06
9.8017e-06
1.39076e-05
-9.55876e-06
9.98648e-06
1.34646e-05
-9.73725e-06
1.01803e-05
1.30052e-05
-9.92413e-06
1.03836e-05
1.25283e-05
-1.01201e-05
1.0597e-05
1.20331e-05
-1.03264e-05
1.08217e-05
1.15182e-05
-1.05442e-05
1.1059e-05
1.09826e-05
-1.07753e-05
1.13109e-05
1.04246e-05
-1.10218e-05
1.15799e-05
9.84217e-06
-1.12863e-05
1.18688e-05
9.23281e-06
-1.1572e-05
1.21814e-05
8.59328e-06
-1.18828e-05
1.25224e-05
7.91937e-06
-1.2224e-05
1.28979e-05
7.2056e-06
-1.26018e-05
1.33156e-05
6.44473e-06
-1.30249e-05
1.37858e-05
5.62652e-06
-1.35032e-05
1.43214e-05
4.73757e-06
-1.40525e-05
1.49415e-05
3.76843e-06
-1.4684e-05
1.56532e-05
2.63341e-06
-1.54603e-05
1.65953e-05
1.48504e-06
-1.62134e-05
1.73618e-05
-1.76811e-05
1.91662e-05
1.75783e-05
-7.82453e-06
1.72687e-05
-7.93281e-06
1.6931e-05
-8.04723e-06
1.65769e-05
-8.16252e-06
1.62114e-05
-8.28203e-06
1.58366e-05
-8.40787e-06
1.54532e-05
-8.53997e-06
1.50604e-05
-8.67805e-06
1.46569e-05
-8.82214e-06
1.4241e-05
-8.9724e-06
1.38113e-05
-9.12904e-06
1.33665e-05
-9.29249e-06
1.29058e-05
-9.46339e-06
1.24282e-05
-9.6426e-06
1.1933e-05
-9.83112e-06
1.1419e-05
-1.00302e-05
1.08849e-05
-1.02412e-05
1.03289e-05
-1.04659e-05
9.74914e-06
-1.07065e-05
9.14285e-06
-1.09657e-05
8.50676e-06
-1.12468e-05
7.83663e-06
-1.15539e-05
7.12697e-06
-1.18922e-05
6.37053e-06
-1.22685e-05
5.55773e-06
-1.26904e-05
4.67596e-06
-1.31707e-05
3.70845e-06
-1.37165e-05
2.61731e-06
-1.43692e-05
1.44196e-06
-1.50381e-05
-1.62392e-05
1.74745e-05
-7.50687e-06
1.71417e-05
-7.59999e-06
1.67961e-05
-7.7016e-06
1.64427e-05
-7.80912e-06
1.60822e-05
-7.92155e-06
1.5713e-05
-8.03872e-06
1.53336e-05
-8.16055e-06
1.49427e-05
-8.2871e-06
1.45391e-05
-8.41862e-06
1.41223e-05
-8.55552e-06
1.36914e-05
-8.6982e-06
1.32461e-05
-8.84717e-06
1.27857e-05
-9.003e-06
1.23095e-05
-9.16637e-06
1.18164e-05
-9.33807e-06
1.13053e-05
-9.51908e-06
1.07747e-05
-9.71058e-06
1.02228e-05
-9.914e-06
9.64737e-06
-1.01311e-05
9.0458e-06
-1.03641e-05
8.41467e-06
-1.06156e-05
7.7497e-06
-1.08889e-05
7.04539e-06
-1.11879e-05
6.29456e-06
-1.15177e-05
5.48794e-06
-1.18838e-05
4.61308e-06
-1.22959e-05
3.65379e-06
-1.27572e-05
2.58412e-06
-1.32995e-05
1.40359e-06
-1.38575e-05
-1.48356e-05
1.73756e-05
-7.17876e-06
1.70385e-05
-7.26289e-06
1.66914e-05
-7.35446e-06
1.63354e-05
-7.45316e-06
1.59706e-05
-7.55669e-06
1.55957e-05
-7.66388e-06
1.52101e-05
-7.77493e-06
1.48133e-05
-7.89029e-06
1.44049e-05
-8.01028e-06
1.39846e-05
-8.13516e-06
1.35516e-05
-8.26525e-06
1.31053e-05
-8.40089e-06
1.26449e-05
-8.54256e-06
1.21693e-05
-8.69078e-06
1.16774e-05
-8.84621e-06
1.1168e-05
-9.00967e-06
1.06396e-05
-9.18211e-06
1.00903e-05
-9.36469e-06
9.51789e-06
-9.55878e-06
8.91978e-06
-9.76602e-06
8.29252e-06
-9.98838e-06
7.63188e-06
-1.02283e-05
6.93246e-06
-1.04885e-05
6.18735e-06
-1.07726e-05
5.38772e-06
-1.10842e-05
4.52184e-06
-1.143e-05
3.57485e-06
-1.18102e-05
2.5257e-06
-1.22504e-05
1.35935e-06
-1.26912e-05
-1.34762e-05
1.72461e-05
-6.8425e-06
1.6902e-05
-6.9188e-06
1.65489e-05
-7.00139e-06
1.61873e-05
-7.09154e-06
1.58171e-05
-7.18649e-06
1.54377e-05
-7.28451e-06
1.50486e-05
-7.38581e-06
1.46493e-05
-7.49094e-06
1.42392e-05
-7.60018e-06
1.38177e-05
-7.71366e-06
1.3384e-05
-7.8316e-06
1.29375e-05
-7.95433e-06
1.24772e-05
-8.08224e-06
1.20022e-05
-8.21577e-06
1.15114e-05
-8.35545e-06
1.10036e-05
-8.50189e-06
1.04773e-05
-8.6558e-06
9.93065e-06
-8.81803e-06
9.36143e-06
-8.98956e-06
8.76696e-06
-9.17154e-06
8.1439e-06
-9.36532e-06
7.48809e-06
-9.57246e-06
6.79437e-06
-9.79473e-06
6.05616e-06
-1.00343e-05
5.26517e-06
-1.02932e-05
4.41058e-06
-1.05754e-05
3.47899e-06
-1.08787e-05
2.45155e-06
-1.12229e-05
1.30977e-06
-1.15494e-05
-1.21665e-05
1.7089e-05
-6.49971e-06
1.67392e-05
-6.56893e-06
1.63813e-05
-6.64349e-06
1.60154e-05
-6.72565e-06
1.56413e-05
-6.8124e-06
1.52585e-05
-6.90168e-06
1.48663e-05
-6.99364e-06
1.44643e-05
-7.08892e-06
1.40519e-05
-7.18777e-06
1.36285e-05
-7.29027e-06
1.31935e-05
-7.39658e-06
1.27461e-05
-7.50696e-06
1.22856e-05
-7.62171e-06
1.18109e-05
-7.74114e-06
1.13211e-05
-7.86563e-06
1.08148e-05
-7.99558e-06
1.02905e-05
-8.13148e-06
9.74631e-06
-8.27388e-06
9.18014e-06
-8.42339e-06
8.5893e-06
-8.58071e-06
7.97058e-06
-8.7466e-06
7.32001e-06
-8.92188e-06
6.63268e-06
-9.1074e-06
5.90246e-06
-9.30413e-06
5.12174e-06
-9.51245e-06
4.28066e-06
-9.73432e-06
3.36731e-06
-9.9653e-06
2.36489e-06
-1.02205e-05
1.2556e-06
-1.04401e-05
-1.09109e-05
1.69044e-05
-6.15111e-06
1.65492e-05
-6.21381e-06
1.61867e-05
-6.28097e-06
1.58166e-05
-6.35555e-06
1.54386e-05
-6.43443e-06
1.50523e-05
-6.51534e-06
1.46571e-05
-6.59842e-06
1.42525e-05
-6.68434e-06
1.38381e-05
-6.77333e-06
1.34132e-05
-6.86539e-06
1.29772e-05
-6.96061e-06
1.25294e-05
-7.05917e-06
1.2069e-05
-7.16126e-06
1.15949e-05
-7.26709e-06
1.11062e-05
-7.37686e-06
1.06014e-05
-7.49082e-06
1.00792e-05
-7.60924e-06
9.53765e-06
-7.73237e-06
8.97477e-06
-7.8605e-06
8.38796e-06
-7.9939e-06
7.77416e-06
-8.13279e-06
7.12962e-06
-8.27735e-06
6.44979e-06
-8.42757e-06
5.72902e-06
-8.58337e-06
4.96044e-06
-8.74387e-06
4.13523e-06
-8.90911e-06
3.243e-06
-9.07307e-06
2.26901e-06
-9.2465e-06
1.198e-06
-9.3691e-06
-9.71287e-06
1.66928e-05
-5.79724e-06
1.63329e-05
-5.85392e-06
1.59662e-05
-5.91425e-06
1.55923e-05
-5.98166e-06
1.52109e-05
-6.05302e-06
1.48215e-05
-6.12598e-06
1.44237e-05
-6.20063e-06
1.4017e-05
-6.27764e-06
1.36009e-05
-6.35722e-06
1.31748e-05
-6.43929e-06
1.27381e-05
-6.52388e-06
1.229e-05
-6.61107e-06
1.18297e-05
-6.70099e-06
1.13563e-05
-6.7937e-06
1.08688e-05
-6.88929e-06
1.03657e-05
-6.98781e-06
9.84584e-06
-7.08933e-06
9.30732e-06
-7.19385e-06
8.74815e-06
-7.30134e-06
8.16594e-06
-7.41169e-06
7.55779e-06
-7.52465e-06
6.92025e-06
-7.6398e-06
6.24914e-06
-7.75646e-06
5.53938e-06
-7.8736e-06
4.78484e-06
-7.98933e-06
3.97777e-06
-8.10205e-06
3.10935e-06
-8.20465e-06
2.16676e-06
-8.30391e-06
1.13792e-06
-8.34026e-06
-8.57495e-06
1.64559e-05
-5.43867e-06
1.60917e-05
-5.48978e-06
1.57213e-05
-5.54379e-06
1.5344e-05
-5.60441e-06
1.49596e-05
-5.6686e-06
1.45676e-05
-5.73398e-06
1.41676e-05
-5.80061e-06
1.37591e-05
-5.86915e-06
1.33416e-05
-5.93974e-06
1.29146e-05
-6.01227e-06
1.24774e-05
-6.08668e-06
1.20293e-05
-6.16299e-06
1.15696e-05
-6.24122e-06
1.10972e-05
-6.32133e-06
1.06112e-05
-6.40327e-06
1.01103e-05
-6.48695e-06
9.59321e-06
-6.57221e-06
9.0582e-06
-6.65885e-06
8.5034e-06
-6.74654e-06
7.92656e-06
-6.83484e-06
7.32501e-06
-6.9231e-06
6.6956e-06
-7.0104e-06
6.03458e-06
-7.09544e-06
5.33744e-06
-7.17646e-06
4.59883e-06
-7.25072e-06
3.81208e-06
-7.3153e-06
2.96984e-06
-7.36242e-06
2.06116e-06
-7.39523e-06
1.07757e-06
-7.35667e-06
-7.49738e-06
1.6196e-05
-5.07595e-06
1.58282e-05
-5.12192e-06
1.54545e-05
-5.17009e-06
1.50744e-05
-5.22429e-06
1.46874e-05
-5.28164e-06
1.42932e-05
-5.33982e-06
1.38915e-05
-5.39885e-06
1.34816e-05
-5.45932e-06
1.30633e-05
-5.52135e-06
1.26357e-05
-5.58477e-06
1.21985e-05
-5.64945e-06
1.17509e-05
-5.71535e-06
1.1292e-05
-5.78239e-06
1.08211e-05
-5.85044e-06
1.03372e-05
-5.9193e-06
9.83898e-06
-5.98875e-06
9.32525e-06
-6.05847e-06
8.79443e-06
-6.12804e-06
8.24477e-06
-6.19688e-06
7.6742e-06