/*--------------------------------*- C++ -*----------------------------------*\
  =========                 |
  \\      /  F ield         | OpenFOAM: The Open Source CFD Toolbox
   \\    /   O peration     | Website:  https://openfoam.org
    \\  /    A nd           | Version:  11
     \\/     M anipulation  |
\*---------------------------------------------------------------------------*/
FoamFile
{
    format      ascii;
    class       volScalarField;
    location    "3";
    object      p;
}
// * * * * * * * * * * * * * * * * * * * * * * * * * * * * * * * * * * * * * //

dimensions      [0 2 -2 0 0 0 0];

internalField   nonuniform List<scalar> 
12600
(
0.740373
0.740236
0.740164
0.74013
0.740092
0.740039
0.739975
0.7399
0.739812
0.739706
0.739579
0.739427
0.739242
0.739019
0.738747
0.738417
0.738015
0.737522
0.736918
0.736176
0.73526
0.734136
0.732751
0.731044
0.728931
0.726308
0.723044
0.718965
0.713877
0.707437
0.7403
0.740229
0.740167
0.740131
0.740092
0.74004
0.739977
0.739903
0.739815
0.739711
0.739586
0.739435
0.739253
0.739033
0.738764
0.738438
0.73804
0.737554
0.73696
0.736228
0.735324
0.734214
0.732847
0.731161
0.729076
0.726486
0.72326
0.719229
0.714177
0.707838
0.740269
0.740233
0.740179
0.740137
0.740096
0.740046
0.739985
0.739913
0.739827
0.739725
0.739602
0.739454
0.739276
0.73906
0.738797
0.738478
0.738089
0.737614
0.737032
0.736317
0.735436
0.734353
0.733019
0.731374
0.729339
0.72681
0.723655
0.719714
0.714744
0.708544
0.74025
0.740226
0.740181
0.740139
0.740099
0.740051
0.739992
0.739923
0.73984
0.739741
0.739622
0.739479
0.739306
0.739097
0.738844
0.738535
0.738159
0.7377
0.737138
0.736448
0.7356
0.734557
0.733273
0.731688
0.729724
0.727284
0.724236
0.720428
0.715601
0.709583
0.740238
0.740221
0.740186
0.740147
0.740108
0.740063
0.740007
0.739939
0.739859
0.739764
0.73965
0.739513
0.739348
0.739148
0.738906
0.738611
0.738252
0.737814
0.737279
0.736622
0.735814
0.734822
0.733601
0.732092
0.730223
0.7279
0.724996
0.721362
0.716737
0.710966
0.740232
0.740219
0.740191
0.740155
0.740117
0.740074
0.740021
0.739957
0.739881
0.739791
0.739683
0.739554
0.739397
0.739209
0.73898
0.738702
0.738365
0.737953
0.737449
0.736832
0.736075
0.735144
0.733999
0.732585
0.730833
0.728654
0.725928
0.72251
0.718142
0.712682
0.74023
0.74022
0.740197
0.740165
0.740129
0.740088
0.740039
0.739979
0.739908
0.739824
0.739723
0.739602
0.739456
0.739281
0.739068
0.73881
0.738497
0.738115
0.737649
0.737079
0.736379
0.735521
0.734464
0.733161
0.731545
0.729537
0.727019
0.723861
0.719803
0.714718
0.740232
0.740224
0.740204
0.740176
0.740142
0.740104
0.740058
0.740003
0.739938
0.73986
0.739767
0.739656
0.739522
0.739361
0.739167
0.738932
0.738647
0.738299
0.737875
0.737358
0.736724
0.735946
0.73499
0.733812
0.732352
0.730536
0.72826
0.725398
0.721706
0.717062
0.740237
0.74023
0.740213
0.740188
0.740158
0.740122
0.740081
0.74003
0.739971
0.7399
0.739816
0.739716
0.739596
0.739451
0.739278
0.739067
0.738812
0.738503
0.738126
0.737666
0.737104
0.736416
0.735571
0.73453
0.733243
0.731642
0.729634
0.727107
0.72383
0.719693
0.740244
0.740238
0.740224
0.740202
0.740174
0.740143
0.740105
0.74006
0.740007
0.739944
0.73987
0.739781
0.739675
0.739549
0.739397
0.739214
0.738992
0.738724
0.738397
0.738
0.737516
0.736924
0.736199
0.735308
0.734206
0.732839
0.731123
0.728963
0.72615
0.722583
0.740254
0.740249
0.740236
0.740217
0.740193
0.740164
0.740131
0.740092
0.740045
0.739991
0.739927
0.739851
0.739761
0.739653
0.739525
0.73937
0.739184
0.738959
0.738687
0.738356
0.737955
0.737465
0.736867
0.736134
0.73523
0.734111
0.73271
0.730945
0.728638
0.725699
0.740265
0.74026
0.74025
0.740233
0.740212
0.740188
0.740159
0.740125
0.740086
0.74004
0.739987
0.739924
0.73985
0.739763
0.739659
0.739534
0.739386
0.739206
0.738991
0.73873
0.738414
0.738032
0.737566
0.736998
0.736302
0.735443
0.73437
0.733023
0.731256
0.728996
0.740277
0.740274
0.740265
0.74025
0.740233
0.740212
0.740188
0.74016
0.740128
0.740092
0.740049
0.74
0.739943
0.739877
0.739798
0.739705
0.739595
0.739463
0.739306
0.739117
0.73889
0.738617
0.738288
0.73789
0.737406
0.736815
0.736082
0.735167
0.733965
0.732422
0.740291
0.740288
0.740281
0.740269
0.740254
0.740237
0.740218
0.740196
0.740172
0.740145
0.740114
0.740079
0.740039
0.739994
0.739941
0.73988
0.739809
0.739726
0.739628
0.739513
0.739376
0.739215
0.739024
0.738798
0.73853
0.738209
0.73782
0.737344
0.73672
0.735916
0.740306
0.740304
0.740297
0.740288
0.740276
0.740263
0.740249
0.740233
0.740216
0.740198
0.740179
0.740158
0.740136
0.740112
0.740086
0.740058
0.740026
0.739992
0.739954
0.739913
0.739867
0.739818
0.739766
0.739712
0.739657
0.739606
0.739559
0.739519
0.739472
0.739411
0.740322
0.74032
0.740315
0.740307
0.740299
0.740289
0.74028
0.74027
0.740261
0.740252
0.740245
0.740238
0.740234
0.740231
0.740232
0.740236
0.740244
0.740259
0.740281
0.740312
0.740357
0.740419
0.740504
0.740619
0.740775
0.740986
0.741273
0.741657
0.742172
0.742837
0.740339
0.740337
0.740333
0.740327
0.740321
0.740315
0.740311
0.740307
0.740305
0.740306
0.74031
0.740318
0.740331
0.74035
0.740376
0.740412
0.74046
0.740523
0.740604
0.740708
0.740841
0.741011
0.74123
0.741509
0.741869
0.742333
0.742938
0.743726
0.744772
0.746123
0.740356
0.740354
0.740352
0.740348
0.740344
0.740341
0.740341
0.740344
0.740349
0.740359
0.740374
0.740396
0.740426
0.740466
0.740518
0.740586
0.740672
0.740782
0.74092
0.741094
0.741313
0.741589
0.741935
0.742372
0.742925
0.743629
0.744532
0.745695
0.747227
0.749204
0.740373
0.740372
0.74037
0.740367
0.740366
0.740367
0.740371
0.740379
0.740392
0.740411
0.740437
0.740472
0.740519
0.740579
0.740656
0.740754
0.740877
0.741032
0.741226
0.741468
0.741769
0.742145
0.742613
0.743199
0.743933
0.744859
0.746035
0.747536
0.749498
0.752021
0.740391
0.74039
0.740389
0.740387
0.740388
0.740392
0.7404
0.740413
0.740433
0.74046
0.740497
0.740545
0.740607
0.740687
0.740788
0.740915
0.741074
0.741272
0.741519
0.741824
0.742204
0.742674
0.743257
0.743981
0.744882
0.74601
0.74743
0.749228
0.751556
0.754531
0.740409
0.740409
0.740407
0.740406
0.740408
0.740415
0.740428
0.740446
0.740472
0.740507
0.740554
0.740614
0.740692
0.74079
0.740913
0.741068
0.74126
0.741499
0.741795
0.742161
0.742613
0.74317
0.743859
0.74471
0.745763
0.747071
0.748706
0.750755
0.75338
0.756706
0.740428
0.740427
0.740425
0.740424
0.740428
0.740438
0.740454
0.740477
0.740508
0.740551
0.740607
0.740679
0.74077
0.740886
0.74103
0.74121
0.741434
0.74171
0.742052
0.742473
0.742992
0.74363
0.744415
0.74538
0.746569
0.748035
0.749852
0.752109
0.754961
0.758535
0.740447
0.740445
0.740442
0.740441
0.740446
0.740459
0.740478
0.740505
0.740542
0.740592
0.740656
0.740738
0.740843
0.740974
0.741137
0.741341
0.741593
0.741904
0.742287
0.742759
0.743338
0.744049
0.74492
0.745987
0.747294
0.748896
0.750864
0.753285
0.7563
0.760025
0.740466
0.740464
0.740459
0.740457
0.740463
0.740478
0.7405
0.74053
0.740573
0.740628
0.7407
0.740792
0.740908
0.741053
0.741234
0.741459
0.741736
0.742078
0.742499
0.743016
0.743649
0.744424
0.74537
0.746526
0.747934
0.74965
0.751741
0.754286
0.757407
0.761201
0.740487
0.740482
0.740474
0.740471
0.740478
0.740495
0.740519
0.740553
0.740599
0.74066
0.740739
0.740839
0.740965
0.741123
0.741319
0.741562
0.741862
0.742231
0.742684
0.74324
0.74392
0.74475
0.745762
0.746993
0.748486
0.750295
0.752482
0.755119
0.7583
0.762099
0.740509
0.740501
0.740487
0.740482
0.740491
0.74051
0.740536
0.740573
0.740623
0.740688
0.740773
0.74088
0.741015
0.741183
0.741392
0.741651
0.74197
0.742362
0.742843
0.743432
0.744151
0.745028
0.746094
0.747386
0.748949
0.750832
0.753093
0.755793
0.759003
0.762767
0.740534
0.74052
0.740497
0.740491
0.740501
0.740521
0.740549
0.740588
0.740641
0.74071
0.7408
0.740913
0.741054
0.741231
0.741451
0.741722
0.742057
0.742468
0.742971
0.743587
0.744338
0.745252
0.746362
0.747703
0.74932
0.75126
0.753575
0.756318
0.75954
0.763253
0.740564
0.740538
0.740507
0.7405
0.740512
0.740532
0.74056
0.740601
0.740656
0.740729
0.740821
0.740939
0.741086
0.74127
0.741497
0.741779
0.742125
0.74255
0.743071
0.743707
0.744482
0.745425
0.746567
0.747945
0.749602
0.751583
0.753935
0.756704
0.759935
0.763619
0.740602
0.740541
0.740504
0.740503
0.740517
0.740537
0.740566
0.740608
0.740665
0.74074
0.740835
0.740956
0.741107
0.741295
0.741528
0.741816
0.742171
0.742606
0.743138
0.743788
0.74458
0.745541
0.746705
0.748108
0.749792
0.751799
0.754174
0.756955
0.760185
0.763873
0.740679
0.740552
0.740504
0.740507
0.740522
0.740542
0.740571
0.740613
0.740671
0.740747
0.740844
0.740966
0.741119
0.74131
0.741546
0.741837
0.742196
0.742636
0.743175
0.743833
0.744634
0.745607
0.746783
0.7482
0.749898
0.751918
0.754303
0.757088
0.760291
0.763894
0.701742
0.699404
0.697552
0.696001
0.694369
0.69258
0.690704
0.688789
0.686845
0.684864
0.682844
0.68078
0.678658
0.676463
0.674168
0.671742
0.669146
0.666327
0.66322
0.659738
0.655765
0.651148
0.645679
0.63907
0.630928
0.620638
0.607729
0.588624
0.572852
0.521268
0.702938
0.700972
0.699265
0.697748
0.696175
0.694507
0.692813
0.691126
0.689435
0.687725
0.685988
0.684218
0.682402
0.680524
0.678562
0.676491
0.674276
0.671875
0.66923
0.666268
0.662891
0.658967
0.654318
0.648701
0.641774
0.633036
0.621952
0.606342
0.590978
0.54935
0.70343
0.701881
0.700513
0.699167
0.697774
0.696346
0.694918
0.693495
0.692064
0.690617
0.68915
0.68766
0.686138
0.684571
0.682942
0.68123
0.679408
0.677439
0.675276
0.672858
0.670102
0.666901
0.663103
0.65851
0.652826
0.645661
0.636476
0.623867
0.610079
0.577049
0.704545
0.70338
0.702336
0.701175
0.69995
0.698731
0.697531
0.696339
0.695146
0.693951
0.692753
0.691546
0.690324
0.689075
0.687787
0.686444
0.685022
0.683494
0.681822
0.679957
0.677833
0.675362
0.67242
0.668846
0.664393
0.65876
0.651427
0.641515
0.629788
0.604225
0.706077
0.70519
0.704398
0.703419
0.702377
0.701375
0.700412
0.699463
0.698521
0.697587
0.696662
0.695742
0.694823
0.693897
0.692955
0.691986
0.690973
0.689896
0.688726
0.687425
0.685942
0.684208
0.682125
0.679565
0.676326
0.672181
0.666645
0.659224
0.649736
0.630687
0.707993
0.707359
0.706813
0.706035
0.705192
0.70441
0.70368
0.702969
0.702272
0.701595
0.700941
0.700308
0.699694
0.699093
0.698502
0.697912
0.697314
0.696693
0.696029
0.695295
0.694453
0.693451
0.692216
0.690648
0.688586
0.685859
0.682035
0.676891
0.669638
0.656212
0.710286
0.709889
0.709576
0.708998
0.708351
0.707784
0.707283
0.706809
0.706357
0.705939
0.705558
0.705215
0.704907
0.704635
0.704396
0.704189
0.704007
0.703843
0.703684
0.703514
0.703306
0.703024
0.702614
0.702002
0.701063
0.699669
0.69745
0.694353
0.689244
0.680567
0.712945
0.712774
0.712683
0.712302
0.711855
0.711501
0.711227
0.710989
0.710782
0.710621
0.710512
0.710456
0.710454
0.710509
0.710623
0.710795
0.711027
0.711315
0.711655
0.712037
0.712446
0.71286
0.71324
0.713533
0.713647
0.713483
0.712737
0.711445
0.708331
0.703546
0.715958
0.715999
0.716118
0.715932
0.715682
0.71554
0.715488
0.715482
0.715517
0.71561
0.715769
0.715998
0.716299
0.716677
0.717137
0.717684
0.718321
0.719051
0.719874
0.720789
0.72179
0.722863
0.723986
0.725122
0.7262
0.727149
0.727722
0.727988
0.726675
0.724988
0.7193
0.71954
0.719855
0.719859
0.719805
0.719868
0.720034
0.720255
0.720527
0.720869
0.721291
0.721798
0.722395
0.723088
0.723885
0.724794
0.725822
0.726975
0.728259
0.729679
0.731235
0.732923
0.734729
0.736629
0.738574
0.740505
0.742226
0.743801
0.744063
0.744738
0.722936
0.723358
0.723854
0.724042
0.724179
0.724443
0.724819
0.725259
0.72576
0.726343
0.727019
0.727794
0.728675
0.729669
0.730789
0.732042
0.73344
0.734991
0.736707
0.738594
0.74066
0.742905
0.745325
0.747903
0.750603
0.753376
0.756067
0.758707
0.760296
0.762687
0.726815
0.727403
0.728062
0.728426
0.728749
0.729205
0.72978
0.730429
0.731149
0.731961
0.732878
0.733906
0.735055
0.736334
0.737755
0.739329
0.741069
0.742987
0.745095
0.747405
0.749926
0.752664
0.755618
0.758778
0.762114
0.765584
0.769058
0.772536
0.775199
0.778736
0.730875
0.73161
0.732413
0.732943
0.733442
0.734079
0.734842
0.735686
0.73661
0.737635
0.738776
0.74004
0.741436
0.742975
0.744671
0.746537
0.748585
0.75083
0.753287
0.755967
0.758883
0.762041
0.765443
0.76908
0.772928
0.776942
0.781013
0.785103
0.788569
0.792746
0.735038
0.735901
0.736827
0.737509
0.738174
0.738979
0.739912
0.740934
0.742045
0.743265
0.744608
0.746084
0.747702
0.749474
0.751414
0.753536
0.755853
0.758382
0.761135
0.764128
0.76737
0.770871
0.77463
0.778639
0.782871
0.787277
0.791756
0.796232
0.800185
0.804543
0.739218
0.740186
0.741214
0.742034
0.74285
0.743805
0.74489
0.74607
0.747347
0.748738
0.750259
0.75192
0.75373
0.755703
0.757851
0.76019
0.762733
0.765495
0.76849
0.771733
0.775232
0.778995
0.78302
0.787295
0.791788
0.796443
0.801157
0.805807
0.809955
0.814155
0.743317
0.744371
0.745478
0.746417
0.747367
0.748453
0.749669
0.750985
0.752402
0.753939
0.75561
0.757425
0.759395
0.761532
0.763849
0.766362
0.769083
0.772027
0.775207
0.778635
0.78232
0.786266
0.790466
0.794905
0.799545
0.804319
0.80912
0.813785
0.817958
0.821867
0.747239
0.748356
0.749522
0.75056
0.751625
0.752821
0.754143
0.755568
0.7571
0.758754
0.760544
0.762481
0.764574
0.766837
0.769282
0.771924
0.774774
0.777846
0.781152
0.784703
0.788502
0.792552
0.796842
0.801348
0.806028
0.810804
0.815562
0.820108
0.824157
0.827581
0.75089
0.752051
0.753256
0.754372
0.755529
0.75681
0.758214
0.759723
0.76134
0.76308
0.764957
0.766981
0.769161
0.77151
0.774041
0.776764
0.779694
0.782841
0.786215
0.789824
0.793669
0.797748
0.802044
0.806528
0.811147
0.815814
0.820402
0.824691
0.828414
0.831123
0.754191
0.755377
0.756601
0.757774
0.758999
0.760342
0.761801
0.763365
0.765038
0.766834
0.768764
0.77084
0.773069
0.775464
0.778036
0.780797
0.783757
0.786926
0.790311
0.793917
0.797742
0.801777
0.806002
0.810376
0.814839
0.819286
0.823577
0.827452
0.830651
0.832573
0.757079
0.758273
0.7595
0.760708
0.761977
0.763355
0.764844
0.766436
0.768136
0.769956
0.771907
0.773998
0.776239
0.778641
0.781213
0.783966
0.786908
0.790048
0.79339
0.796934
0.800675
0.804599
0.808677
0.812859
0.817073
0.821195
0.825069
0.828402
0.830959
0.831909
0.759517
0.760704
0.76192
0.763141
0.764429
0.76582
0.767313
0.768905
0.770602
0.772416
0.774355
0.776429
0.778646
0.781015
0.783547
0.786249
0.789128
0.79219
0.795436
0.798863
0.802461
0.806207
0.810067
0.81398
0.817859
0.821564
0.824924
0.827588
0.829435
0.828843
0.761495
0.762662
0.763854
0.765069
0.766353
0.767731
0.769205
0.770772
0.77244
0.774217
0.776114
0.778138
0.780296
0.782598
0.78505
0.78766
0.790433
0.793371
0.796471
0.799729
0.803126
0.806636
0.810214
0.813786
0.817254
0.820453
0.82321
0.82507
0.826179
0.823657
0.763029
0.764165
0.765322
0.766512
0.767772
0.769116
0.770547
0.772066
0.773679
0.775395
0.77722
0.779163
0.781231
0.783431
0.785768
0.78825
0.790879
0.793644
0.796554
0.799593
0.802739
0.805955
0.809187
0.812351
0.815332
0.817938
0.820004
0.820937
0.821262
0.816781
0.764162
0.765256
0.766369
0.76752
0.768735
0.770026
0.771395
0.772844
0.774379
0.776007
0.777736
0.779571
0.781519
0.783585
0.785773
0.788086
0.790522
0.79309
0.795768
0.798542
0.801384
0.80425
0.807076
0.809762
0.812181
0.814106
0.815387
0.815236
0.814615
0.80773
0.764955
0.766001
0.767061
0.768157
0.769313
0.770536
0.771827
0.773189
0.774627
0.776148
0.777758
0.779461
0.781263
0.783167
0.785177
0.787293
0.789513
0.791831
0.794231
0.796693
0.79918
0.801641
0.803997
0.806135
0.80791
0.809051
0.809425
0.807988
0.806228
0.796439
0.765489
0.766481
0.767478
0.768505
0.769585
0.770723
0.77192
0.773178
0.774501
0.775896
0.777366
0.778916
0.780549
0.782267
0.78407
0.785956
0.787921
0.789954
0.792038
0.794144
0.796229
0.798229
0.800055
0.801572
0.802617
0.802861
0.802196
0.799262
0.796191
0.783093
0.765845
0.76678
0.767704
0.768656
0.769657
0.770708
0.771804
0.772949
0.774149
0.775406
0.776723
0.778102
0.779548
0.78106
0.782635
0.784266
0.785947
0.787662
0.789389
0.791093
0.792721
0.7942
0.795424
0.796234
0.796449
0.795669
0.793827
0.789194
0.784658
0.767753
0.766174
0.767004
0.767787
0.768623
0.769534
0.770487
0.77147
0.772491
0.773551
0.774651
0.775797
0.776994
0.778239
0.779523
0.78084
0.782187
0.783556
0.784923
0.78626
0.787524
0.788653
0.789559
0.790121
0.790152
0.789449
0.787531
0.78439
0.777829
0.771759
0.750399
0.766762
0.767385
0.767949
0.768691
0.769518
0.770368
0.771253
0.772185
0.773142
0.774095
0.775051
0.776052
0.777112
0.778186
0.779237
0.780273
0.781295
0.782275
0.783175
0.783941
0.784502
0.784753
0.784555
0.78369
0.78193
0.7787
0.774108
0.765215
0.757675
0.730946
0.767361
0.767419
0.767642
0.768295
0.769058
0.769799
0.770538
0.771296
0.772069
0.772863
0.773679
0.774496
0.775285
0.776061
0.776827
0.77756
0.778234
0.778817
0.779266
0.77952
0.779496
0.779071
0.778084
0.776283
0.773414
0.768758
0.76279
0.750842
0.74268
0.708978
0.685587
0.659467
0.629248
0.596323
0.561092
0.522999
0.481921
0.438769
0.394981
0.352121
0.312402
0.276168
0.245746
0.226991
0.221204
0.223365
0.225993
0.228733
0.231176
0.231903
0.231072
0.228954
0.225764
0.222766
0.220535
0.218882
0.217451
0.215057
0.210044
0.202344
0.727546
0.705139
0.678416
0.649439
0.617834
0.583054
0.544152
0.501769
0.45634
0.408805
0.361535
0.315723
0.273079
0.240617
0.22555
0.224185
0.226803
0.229814
0.231763
0.232249
0.230882
0.228282
0.224897
0.221828
0.219484
0.217424
0.214513
0.210275
0.204357
0.196561
0.7356
0.715701
0.691319
0.663726
0.633001
0.598309
0.559537
0.51755
0.472553
0.42545
0.377599
0.330932
0.286905
0.251641
0.233228
0.228527
0.229186
0.23045
0.232183
0.232209
0.230542
0.22801
0.22378
0.220201
0.217231
0.214318
0.211742
0.209983
0.210678
0.214621
0.751869
0.734171
0.712312
0.687725
0.659602
0.626469
0.588433
0.545886
0.49925
0.449633
0.398927
0.349447
0.30302
0.265204
0.243505
0.235877
0.234581
0.233866
0.233404
0.231997
0.230761
0.22723
0.222521
0.2188
0.215601
0.213856
0.21436
0.217989
0.228672
0.244424
0.759481
0.74472
0.725739
0.703909
0.67853
0.648137
0.612263
0.571053
0.524847
0.474484
0.421806
0.369472
0.320085
0.279023
0.253699
0.243493
0.240949
0.239463
0.2378
0.234732
0.230774
0.225468
0.221053
0.216727
0.213383
0.213584
0.218502
0.229131
0.247017
0.269399
0.765998
0.753499
0.736887
0.717257
0.693877
0.66545
0.63126
0.591245
0.54563
0.495066
0.44116
0.386686
0.334837
0.290955
0.262511
0.25003
0.246476
0.244979
0.243472
0.24023
0.235179
0.228387
0.221718
0.216129
0.213218
0.216076
0.225073
0.242097
0.259756
0.279247
0.770282
0.759769
0.74553
0.728228
0.707059
0.680751
0.64841
0.609687
0.564645
0.513843
0.458791
0.402339
0.348144
0.301685
0.270501
0.255997
0.251549
0.250055
0.248778
0.246102
0.241759
0.235713
0.22958
0.225122
0.224163
0.228923
0.240012
0.255953
0.269346
0.279847
0.773249
0.764527
0.752376
0.737178
0.718116
0.69395
0.663645
0.626555
0.582463
0.531746
0.475794
0.417502
0.36094
0.311896
0.278066
0.261622
0.256361
0.25493
0.253984
0.25186
0.248157
0.243244
0.238833
0.236989
0.239418
0.246985
0.260213
0.273649
0.280128
0.272408
0.775199
0.768035
0.757732
0.744443
0.727347
0.705216
0.676918
0.641577
0.5987
0.548412
0.491909
0.432043
0.373218
0.321618
0.285211
0.266897
0.260902
0.259596
0.25908
0.257571
0.254643
0.250883
0.248055
0.248283
0.253052
0.262711
0.275786
0.285068
0.284423
0.264802
0.776421
0.770607
0.761936
0.750365
0.735094
0.714901
0.688557
0.654991
0.613451
0.563801
0.507008
0.445818
0.384885
0.330816
0.291938
0.27186
0.265233
0.264127
0.264098
0.263214
0.261082
0.258356
0.256997
0.258951
0.265573
0.276469
0.288954
0.294443
0.290798
0.264214
0.777113
0.772464
0.765221
0.755201
0.741609
0.72325
0.698814
0.667047
0.626945
0.578097
0.521216
0.458907
0.396004
0.339548
0.298299
0.276565
0.26942
0.268604
0.269124
0.268901
0.267572
0.265845
0.265734
0.269152
0.27728
0.289071
0.30082
0.304007
0.301334
0.26707
0.777421
0.773774
0.767782
0.759152
0.747091
0.730451
0.707854
0.677887
0.639306
0.59141
0.534631
0.471387
0.406639
0.347865
0.304322
0.281035
0.273489
0.273059
0.274197
0.274667
0.274129
0.273285
0.274213
0.278832
0.288268
0.300902
0.312339
0.315712
0.313547
0.272516
0.777447
0.774667
0.769774
0.762369
0.751701
0.736666
0.715827
0.687632
0.650622
0.603802
0.547292
0.483287
0.416814
0.355784
0.310013
0.28527
0.277448
0.277503
0.279312
0.280485
0.2807
0.280594
0.282344
0.287985
0.298797
0.312799
0.326535
0.332656
0.325205
0.270151
0.777268
0.775236
0.7713
0.764988
0.755581
0.742035
0.722865
0.696403
0.660989
0.615339
0.559244
0.494632
0.426548
0.36332
0.315378
0.289277
0.28131
0.28195
0.284463
0.286341
0.287254
0.287685
0.290051
0.296712
0.309215
0.325689
0.342995
0.349025
0.329648
0.257003
0.776937
0.775552
0.772451
0.767125
0.758866
0.746684
0.729086
0.704307
0.670497
0.626091
0.570536
0.505457
0.435866
0.370491
0.320427
0.293063
0.285083
0.286406
0.289652
0.292227
0.293751
0.294526
0.29741
0.30516
0.319898
0.340543
0.358766
0.356732
0.318497
0.230092
0.776494
0.77567
0.7733
0.768809
0.761644
0.750716
0.734592
0.711437
0.679227
0.636122
0.581215
0.515796
0.444794
0.377319
0.325172
0.296639
0.288777
0.290871
0.294876
0.298128
0.300138
0.301174
0.304656
0.31351
0.331471
0.355477
0.369439
0.351512
0.289818
0.188304
0.775968
0.775629
0.773913
0.77021
0.763984
0.754212
0.739472
0.717874
0.687247
0.645487
0.591322
0.525679
0.453356
0.383819
0.329621
0.300021
0.292402
0.295334
0.300133
0.304027
0.306388
0.307518
0.311361
0.321558
0.343581
0.366963
0.370962
0.332331
0.247366
0.143553
0.775382
0.775461
0.77432
0.771324
0.765955
0.757246
0.743802
0.723693
0.694622
0.654237
0.600896
0.535133
0.46157
0.390005
0.333784
0.303215
0.296034
0.299806
0.305426
0.3099
0.312542
0.313188
0.316672
0.330171
0.354204
0.372171
0.361867
0.302503
0.206238
0.121139
0.774757
0.775193
0.774557
0.772197
0.767617
0.759883
0.747647
0.728958
0.701412
0.66242
0.609972
0.544185
0.469456
0.395893
0.337668
0.306231
0.299552
0.304301
0.310743
0.31574
0.318509
0.318157
0.321989
0.338378
0.361212
0.371046
0.343443
0.267686
0.179086
0.120946
0.7741
0.774845
0.77465
0.772862
0.769013
0.762186
0.751069
0.733727
0.707667
0.670078
0.618584
0.552858
0.477033
0.401493
0.341279
0.309073
0.303023
0.308814
0.316066
0.321571
0.323763
0.322832
0.327757
0.344303
0.363855
0.363409
0.318528
0.235209
0.163813
0.131936
0.773421
0.774428
0.774624
0.773352
0.770139
0.764194
0.754118
0.738052
0.713435
0.677252
0.626761
0.561175
0.484316
0.406818
0.344625
0.311734
0.306469
0.313357
0.321401
0.327282
0.328018
0.327599
0.332242
0.347754
0.363242
0.349956
0.290033
0.210007
0.157562
0.140163
0.772736
0.773957
0.774494
0.773695
0.771102
0.765934
0.756838
0.741981
0.718759
0.683978
0.634534
0.569159
0.491322
0.411876
0.347722
0.314238
0.309881
0.317903
0.326764
0.332429
0.33232
0.331446
0.334991
0.349241
0.359891
0.331768
0.262655
0.192679
0.155298
0.144813
0.772051
0.773443
0.774275
0.773905
0.771879
0.767433
0.759262
0.745554
0.72368
0.690289
0.641928
0.576828
0.498062
0.416679
0.350562
0.316557
0.313267
0.322487
0.332044
0.336858
0.336786
0.333744
0.336594
0.349998
0.352728
0.310265
0.239327
0.18193
0.154107
0.144105
0.771371
0.772897
0.77398
0.773997
0.772495
0.768723
0.761422
0.748806
0.728233
0.69622
0.648975
0.58421
0.50456
0.421235
0.353194
0.318745
0.316591
0.327112
0.336917
0.341305
0.340088
0.334842
0.33827
0.349761
0.340859
0.288126
0.22049
0.175169
0.15249
0.142035
0.770701
0.772328
0.773621
0.773988
0.772968
0.769828
0.76335
0.751768
0.732444
0.701786
0.655673
0.591295
0.510802
0.425539
0.355553
0.320726
0.319874
0.331682
0.341391
0.345622
0.341828
0.335695
0.340776
0.347098
0.326617
0.267432
0.206075
0.169979
0.14998
0.140138
0.770044
0.771739
0.773206
0.77389
0.773311
0.770762
0.765068
0.754474
0.73637
0.707065
0.662116
0.598175
0.516873
0.429658
0.357816
0.322834
0.323185
0.336006
0.345678
0.348566
0.342356
0.337195
0.343195
0.341713
0.310935
0.249247
0.19542
0.165797
0.147529
0.138423
0.769418
0.771141
0.772741
0.77371
0.773541
0.771531
0.766584
0.756898
0.739918
0.71191
0.668127
0.604665
0.52258
0.433382
0.359408
0.323991
0.326321
0.340108
0.349317
0.349448
0.342243
0.33983
0.344302
0.334298
0.295515
0.234141
0.187291
0.161933
0.145639
0.13705
0.768863
0.770546
0.77225
0.773465
0.773652
0.772185
0.767985
0.759281
0.743507
0.716816
0.674231
0.611339
0.528647
0.437755
0.362277
0.326251
0.329697
0.343907
0.351477
0.349096
0.341751
0.341537
0.34384
0.325869
0.281943
0.220938
0.180698
0.157956
0.143816
0.136113
0.76841
0.769951
0.771732
0.773209
0.773725
0.772602
0.768884
0.760881
0.746035
0.720423
0.678751
0.616052
0.532367
0.43932
0.361996
0.326694
0.33199
0.346647
0.352208
0.348576
0.341707
0.343152
0.343129
0.320055
0.267898
0.208433
0.173771
0.154525
0.141964
0.135142
0.768084
0.769274
0.770973
0.772629
0.773633
0.773218
0.770437
0.763657
0.75035
0.726608
0.686872
0.625476
0.541198
0.445855
0.365547
0.328892
0.334284
0.348168
0.35219
0.348
0.341617
0.343713
0.340071
0.30512
0.246997
0.197576
0.168102
0.150884
0.138502
0.134564
0.371305
0.36571
0.362304
0.359734
0.351493
0.328848
0.292341
0.276326
0.307506
0.35201
0.386495
0.412603
0.43332
0.450612
0.465209
0.477847
0.489133
0.499478
0.50922
0.518616
0.527842
0.537015
0.546286
0.555618
0.565343
0.574974
0.585685
0.595932
0.609559
0.617256
0.362757
0.358392
0.354349
0.349989
0.340183
0.315078
0.276804
0.249859
0.26822
0.318459
0.365756
0.398879
0.423293
0.442701
0.458311
0.471582
0.483279
0.493852
0.503682
0.513034
0.522127
0.531072
0.540054
0.549018
0.558232
0.567377
0.577009
0.585906
0.596403
0.604135
0.351403
0.349188
0.345066
0.339857
0.330059
0.306343
0.267402
0.23557
0.236401
0.280891
0.335735
0.379211
0.408872
0.431873
0.449602
0.464342
0.476647
0.487393
0.497213
0.506458
0.515384
0.524132
0.532844
0.541567
0.550425
0.559341
0.568546
0.57765
0.587515
0.597601
0.33622
0.337727
0.334455
0.329591
0.321447
0.303127
0.269308
0.236169
0.226505
0.257285
0.311194
0.361086
0.399474
0.424735
0.443907
0.460434
0.473504
0.484559
0.494266
0.503181
0.511737
0.52015
0.528592
0.537163
0.545938
0.554921
0.564196
0.573666
0.583394
0.593226
0.31675
0.323276
0.321315
0.317875
0.311975
0.300599
0.279975
0.25347
0.241208
0.257317
0.300944
0.348509
0.38912
0.420388
0.443209
0.458924
0.471489
0.482748
0.492337
0.500912
0.509028
0.516823
0.524558
0.532474
0.540697
0.549263
0.558169
0.567403
0.576845
0.58635
0.292766
0.305303
0.305024
0.303697
0.300696
0.295911
0.287715
0.277099
0.269569
0.278759
0.307666
0.345971
0.383303
0.416091
0.441359
0.459975
0.473522
0.483074
0.490871
0.498459
0.505958
0.513137
0.520267
0.52744
0.534798
0.542557
0.550767
0.559429
0.568509
0.577916
0.263703
0.28338
0.285185
0.286537
0.28648
0.286828
0.287939
0.290057
0.294452
0.305476
0.32594
0.354017
0.385165
0.41529
0.440921
0.460462
0.475082
0.486226
0.494454
0.500235
0.50487
0.509805
0.515364
0.521574
0.528322
0.535306
0.542888
0.551043
0.559616
0.568685
0.229292
0.257325
0.261749
0.266319
0.26924
0.273508
0.280019
0.289475
0.302445
0.320286
0.342241
0.365939
0.390853
0.416868
0.441073
0.461165
0.476624
0.487923
0.496505
0.503219
0.508615
0.512745
0.515529
0.518311
0.522275
0.527261
0.533493
0.540589
0.548304
0.556814
0.189736
0.227138
0.23442
0.242928
0.248886
0.256626
0.266956
0.2806
0.297667
0.31846
0.342747
0.368906
0.394229
0.4172
0.438679
0.458161
0.474643
0.487512
0.497183
0.503941
0.508746
0.512782
0.51615
0.519114
0.522025
0.524997
0.527653
0.530911
0.535613
0.541945
0.145166
0.192279
0.202935
0.216307
0.225293
0.236181
0.249328
0.265525
0.284797
0.307022
0.331699
0.357904
0.384334
0.409596
0.432178
0.451352
0.467884
0.481639
0.492552
0.500881
0.506999
0.51132
0.513983
0.515303
0.516352
0.518239
0.520766
0.523758
0.527261
0.531405
0.0949561
0.152743
0.167024
0.185652
0.197909
0.211752
0.22719
0.245057
0.265526
0.288628
0.31387
0.340325
0.366814
0.392204
0.415588
0.437018
0.455312
0.470535
0.482906
0.49263
0.500036
0.505372
0.508881
0.510936
0.5121
0.512871
0.513486
0.514204
0.515239
0.518239
0.0384276
0.108025
0.12528
0.149279
0.165131
0.181826
0.19936
0.218632
0.240109
0.264084
0.290149
0.317425
0.344768
0.371034
0.395303
0.417171
0.436383
0.452855
0.466618
0.477836
0.486732
0.49356
0.498579
0.502006
0.504101
0.505169
0.505488
0.50551
0.50543
0.506606
-0.0248484
0.0569641
0.0762307
0.105465
0.124592
0.143812
0.16311
0.183755
0.20652
0.231931
0.259619
0.288629
0.317724
0.345666
0.371442
0.39447
0.414567
0.431722
0.446031
0.457778
0.467253
0.474732
0.480458
0.484648
0.487508
0.489256
0.490087
0.490253
0.489842
0.489476
-0.0934869
-0.000382672
0.0190691
0.0523333
0.0734992
0.0942761
0.114522
0.136238
0.16059
0.188195
0.218644
0.250788
0.283118
0.314127
0.342545
0.3676
0.389091
0.407109
0.421867
0.433718
0.443088
0.450353
0.455832
0.459792
0.462448
0.463999
0.464624
0.464502
0.463748
0.462625
-0.163323
-0.0637388
-0.0466173
-0.0114138
0.00934862
0.0295287
0.0488963
0.0706416
0.0962297
0.126416
0.16084
0.197972
0.235699
0.271993
0.305075
0.333813
0.35781
0.37729
0.392682
0.404458
0.413292
0.419764
0.42432
0.427295
0.428934
0.42942
0.428908
0.427564
0.42551
0.422958
-0.231023
-0.130084
-0.11861
-0.0848502
-0.0683911
-0.052438
-0.037385
-0.0184619
0.00664569
0.03901
0.0782814
0.122334
0.168063
0.212675
0.25351
0.288726
0.317494
0.340028
0.356999
0.369169
0.377517
0.382952
0.386152
0.387583
0.38755
0.386239
0.383778
0.380253
0.375789
0.370539
-0.290447
-0.192912
-0.191324
-0.163317
-0.156195
-0.149786
-0.144348
-0.132464
-0.110812
-0.0786093
-0.035479
0.0159369
0.0717947
0.128152
0.180821
0.226597
0.263828
0.292385
0.313107
0.327165
0.335905
0.340712
0.34264
0.342397
0.340403
0.33687
0.331928
0.325545
0.317905
0.308931
-0.331801
-0.244001
-0.256395
-0.237588
-0.244812
-0.25357
-0.263599
-0.265098
-0.252346
-0.22589
-0.183667
-0.126836
-0.0591879
0.0121489
0.0811561
0.142503
0.193092
0.232071
0.260165
0.278777
0.28974
0.295075
0.296401
0.294821
0.290976
0.285205
0.277621
0.268106
0.256922
0.243647
-0.3479
-0.274911
-0.300813
-0.29422
-0.319787
-0.348413
-0.379057
-0.399989
-0.403783
-0.386398
-0.348292
-0.289777
-0.214562
-0.129006
-0.0414029
0.0393347
0.107814
0.161728
0.201178
0.22745
0.242981
0.250491
0.252333
0.250176
0.244984
0.237204
0.227137
0.214542
0.199912
0.182186
-0.329715
-0.277161
-0.313574
-0.322413
-0.36653
-0.41346
-0.464123
-0.503374
-0.521627
-0.517042
-0.488248
-0.435103
-0.359555
-0.266132
-0.16389
-0.0652385
0.021504
0.0921629
0.144907
0.180889