/*--------------------------------*- C++ -*----------------------------------*\
  =========                 |
  \\      /  F ield         | OpenFOAM: The Open Source CFD Toolbox
   \\    /   O peration     | Website:  https://openfoam.org
    \\  /    A nd           | Version:  11
     \\/     M anipulation  |
\*---------------------------------------------------------------------------*/
FoamFile
{
    format      ascii;
    class       volScalarField;
    location    "3";
    object      p;
}
// * * * * * * * * * * * * * * * * * * * * * * * * * * * * * * * * * * * * * //

dimensions      [0 2 -2 0 0 0 0];

internalField   nonuniform List<scalar> 
12600
(
0.143281
0.143191
0.14314
0.143122
0.14311
0.143096
0.143081
0.143066
0.143051
0.143035
0.143016
0.142995
0.142969
0.142938
0.142898
0.142845
0.142778
0.142688
0.142571
0.142423
0.142236
0.141993
0.141678
0.141274
0.140757
0.140098
0.139265
0.138215
0.136923
0.135278
0.143211
0.143171
0.143136
0.14312
0.143108
0.143095
0.14308
0.143066
0.143052
0.143037
0.143019
0.143
0.142975
0.142945
0.142906
0.142858
0.142795
0.142709
0.142593
0.142451
0.142273
0.14204
0.141738
0.141347
0.140845
0.140204
0.139387
0.138355
0.137068
0.135464
0.14318
0.143166
0.143141
0.143122
0.143109
0.143097
0.143084
0.14307
0.143056
0.143042
0.143025
0.143006
0.142983
0.142955
0.142919
0.142874
0.142815
0.142736
0.142634
0.142505
0.142338
0.142121
0.141838
0.141472
0.140998
0.140388
0.139604
0.138608
0.137334
0.13576
0.14316
0.143152
0.143134
0.143117
0.143105
0.143095
0.143083
0.143071
0.143058
0.143045
0.143031
0.143014
0.142994
0.142969
0.142938
0.142898
0.142846
0.142779
0.14269
0.142576
0.142429
0.142236
0.141983
0.141653
0.141222
0.14066
0.139929
0.138989
0.137759
0.136224
0.143145
0.14314
0.143128
0.143116
0.143105
0.143095
0.143085
0.143075
0.143064
0.143052
0.143039
0.143025
0.143008
0.142987
0.142962
0.142929
0.142887
0.142832
0.14276
0.142667
0.142544
0.142383
0.142169
0.141886
0.141511
0.141015
0.140358
0.139498
0.138341
0.136879
0.143134
0.143131
0.143123
0.143113
0.143103
0.143095
0.143086
0.143077
0.143067
0.143058
0.143047
0.143036
0.143023
0.143008
0.142989
0.142965
0.142934
0.142894
0.142841
0.142771
0.142679
0.142555
0.142389
0.142164
0.14186
0.141449
0.140888
0.140135
0.139087
0.137737
0.143126
0.143124
0.143118
0.14311
0.143102
0.143095
0.143087
0.14308
0.143072
0.143065
0.143057
0.143049
0.14304
0.14303
0.143019
0.143004
0.142986
0.142963
0.142931
0.142889
0.142831
0.142751
0.14264
0.142484
0.142264
0.141954
0.141514
0.1409
0.14
0.138807
0.143119
0.143118
0.143113
0.143107
0.143101
0.143095
0.143089
0.143082
0.143077
0.143071
0.143066
0.143062
0.143057
0.143054
0.14305
0.143046
0.143041
0.143035
0.143026
0.143013
0.142993
0.142961
0.142912
0.142833
0.14271
0.142521
0.142226
0.141784
0.141078
0.140098
0.143114
0.143113
0.143109
0.143105
0.1431
0.143095
0.14309
0.143085
0.143081
0.143078
0.143075
0.143074
0.143075
0.143077
0.143081
0.143087
0.143096
0.143108
0.143123
0.143141
0.14316
0.14318
0.143197
0.143203
0.143189
0.143135
0.143009
0.142774
0.142312
0.141612
0.14311
0.143109
0.143106
0.143102
0.143098
0.143095
0.143091
0.143087
0.143085
0.143084
0.143084
0.143086
0.143091
0.143099
0.143111
0.143127
0.14315
0.143179
0.143218
0.143266
0.143326
0.143399
0.143484
0.143581
0.143682
0.143778
0.143843
0.143848
0.143682
0.143337
0.143106
0.143105
0.143103
0.1431
0.143097
0.143094
0.143092
0.143089
0.143088
0.143089
0.143091
0.143096
0.143105
0.143118
0.143137
0.143163
0.143199
0.143245
0.143306
0.143384
0.143483
0.143608
0.143763
0.143951
0.144173
0.144427
0.144699
0.144973
0.145154
0.145241
0.143103
0.143102
0.143101
0.143099
0.143096
0.143094
0.143092
0.14309
0.14309
0.143092
0.143097
0.143105
0.143117
0.143135
0.14316
0.143194
0.143241
0.143302
0.143383
0.143489
0.143625
0.143799
0.14402
0.144296
0.144638
0.145053
0.145542
0.146104
0.146675
0.147263
0.143101
0.1431
0.143099
0.143097
0.143095
0.143093
0.143091
0.143091
0.143092
0.143095
0.143101
0.143111
0.143125
0.143147
0.143177
0.143218
0.143274
0.143348
0.143447
0.143576
0.143744
0.143962
0.144242
0.144601
0.145055
0.145625
0.146328
0.147185
0.148171
0.149311
0.143098
0.143098
0.143097
0.143095
0.143093
0.143091
0.14309
0.14309
0.143092
0.143095
0.143102
0.143113
0.14313
0.143154
0.143188
0.143234
0.143296
0.14338
0.143492
0.143639
0.143833
0.144087
0.144417
0.144846
0.145399
0.146109
0.147012
0.14815
0.149549
0.15126
0.143097
0.143096
0.143095
0.143093
0.143091
0.143089
0.143089
0.143089
0.14309
0.143094
0.143102
0.143113
0.143131
0.143156
0.143191
0.14324
0.143306
0.143396
0.143516
0.143676
0.143887
0.144166
0.144533
0.145016
0.145647
0.146471
0.147542
0.148927
0.150704
0.152955
0.143095
0.143095
0.143093
0.143092
0.14309
0.143087
0.143087
0.143087
0.143088
0.143091
0.143098
0.143109
0.143126
0.143151
0.143187
0.143236
0.143303
0.143394
0.143517
0.143682
0.143901
0.144194
0.144582
0.145096
0.145778
0.14668
0.147873
0.149445
0.151524
0.154225
0.143094
0.143094
0.143092
0.14309
0.143088
0.143085
0.143084
0.143083
0.143084
0.143086
0.143092
0.143102
0.143118
0.143141
0.143175
0.143221
0.143286
0.143374
0.143494
0.143656
0.143873
0.144165
0.144555
0.145077
0.145776
0.146711
0.147965
0.149642
0.151908
0.15491
0.143093
0.143093
0.143091
0.143089
0.143086
0.143082
0.14308
0.143079
0.143078
0.14308
0.143084
0.143092
0.143105
0.143125
0.143155
0.143196
0.143255
0.143336
0.143447
0.143598
0.143802
0.144078
0.144451
0.144953
0.145632
0.146549
0.147791
0.149472
0.15178
0.154878
0.143093
0.143092
0.14309
0.143087
0.143084
0.14308
0.143076
0.143074
0.143072
0.143072
0.143074
0.143079
0.143088
0.143104
0.143127
0.143162
0.143211
0.143281
0.143377
0.143508
0.143689
0.143935
0.14427
0.144725
0.145345
0.14619
0.147345
0.148919
0.151103
0.154061
0.143094
0.143093
0.14309
0.143086
0.143082
0.143077
0.143072
0.143069
0.143065
0.143062
0.143061
0.143063
0.143068
0.143078
0.143094
0.143119
0.143156
0.14321
0.143285
0.143391
0.143537
0.143739
0.144017
0.144399
0.144923
0.145643
0.146634
0.147994
0.149889
0.15246
0.143095
0.143093
0.14309
0.143086
0.14308
0.143074
0.143068
0.143062
0.143057
0.143052
0.143047
0.143045
0.143045
0.143048
0.143055
0.143069
0.143091
0.143126
0.143176
0.143249
0.143353
0.143499
0.143703
0.143988
0.144383
0.144931
0.145691
0.14674
0.148202
0.150177
0.143097
0.143095
0.143091
0.143085
0.143079
0.143072
0.143064
0.143056
0.143048
0.14304
0.143033
0.143026
0.14302
0.143015
0.143013
0.143014
0.14302
0.143033
0.143055
0.14309
0.143144
0.143225
0.143342
0.14351
0.14375
0.144087
0.144563
0.145225
0.146141
0.147361
0.1431
0.143098
0.143093
0.143086
0.143078
0.143069
0.14306
0.14305
0.14304
0.143029
0.143018
0.143006
0.142994
0.142981
0.142969
0.142956
0.142944
0.142933
0.142925
0.142919
0.142919
0.142928
0.142949
0.142989
0.143053
0.143158
0.143314
0.143537
0.143835
0.144211
0.143104
0.143102
0.143095
0.143086
0.143077
0.143067
0.143056
0.143044
0.143032
0.143018
0.143003
0.142986
0.142968
0.142948
0.142925
0.142898
0.142868
0.142833
0.142793
0.142745
0.14269
0.142624
0.142545
0.142449
0.142333
0.142192
0.142013
0.141777
0.141435
0.140945
0.143111
0.143108
0.143099
0.143088
0.143076
0.143065
0.143053
0.143039
0.143024
0.143007
0.142989
0.142968
0.142943
0.142915
0.142882
0.142842
0.142794
0.142736
0.142664
0.142575
0.142465
0.142325
0.142148
0.141919
0.141625
0.141241
0.140731
0.140048
0.139088
0.137774
0.143121
0.143115
0.143103
0.143089
0.143077
0.143064
0.143051
0.143035
0.143018
0.142999
0.142977
0.142951
0.142922
0.142886
0.142843
0.142791
0.142727
0.142647
0.142546
0.142419
0.142257
0.142049
0.141782
0.141427
0.140966
0.140356
0.13954
0.138446
0.136927
0.134878
0.143134
0.143126
0.143108
0.14309
0.143076
0.143063
0.143048
0.14303
0.143011
0.14299
0.142965
0.142936
0.142902
0.14286
0.142809
0.142746
0.142667
0.142568
0.142442
0.14228
0.142073
0.141803
0.14145
0.140994
0.140387
0.13958
0.1385
0.137055
0.135067
0.132403
0.143153
0.143139
0.143113
0.143094
0.14308
0.143065
0.143048
0.143029
0.143008
0.142986
0.142959
0.142926
0.142888
0.142842
0.142783
0.142711
0.142621
0.142506
0.142359
0.14217
0.141926
0.141608
0.141194
0.140649
0.139925
0.138958
0.137665
0.135943
0.133597
0.130469
0.143184
0.143144
0.143108
0.143091
0.143079
0.143063
0.143046
0.143027
0.143005
0.142981
0.142952
0.142917
0.142876
0.142826
0.142763
0.142685
0.142586
0.14246
0.142298
0.142089
0.141817
0.141464
0.141004
0.1404
0.139597
0.138518
0.137074
0.135158
0.132584
0.129153
0.143252
0.143162
0.143112
0.143094
0.143082
0.143065
0.143047
0.143027
0.143005
0.14298
0.14295
0.142915
0.142872
0.14282
0.142755
0.142674
0.14257
0.142438
0.142268
0.142048
0.141763
0.141392
0.140903
0.140262
0.139409
0.138264
0.136741
0.134719
0.132033
0.128444
0.133829
0.133035
0.13259
0.132355
0.132099
0.131742
0.131373
0.13101
0.13064
0.130252
0.129847
0.129421
0.128971
0.128486
0.127958
0.127373
0.126714
0.12596
0.125086
0.124054
0.122816
0.121306
0.119427
0.117046
0.113943
0.109866
0.104214
0.0962161
0.0868168
0.0612765
0.134357
0.133858
0.13347
0.133169
0.132898
0.132593
0.132231
0.131891
0.131575
0.131259
0.130933
0.130597
0.130247
0.129874
0.129471
0.129029
0.128535
0.127975
0.127328
0.126569
0.125659
0.124548
0.123161
0.121396
0.119083
0.116028
0.111706
0.10584
0.0975727
0.0791194
0.134436
0.134117
0.133862
0.133622
0.133374
0.133134
0.132891
0.132663
0.132447
0.132231
0.13201
0.131785
0.131555
0.131316
0.131063
0.130792
0.130494
0.13016
0.129777
0.129328
0.128787
0.128119
0.127272
0.126171
0.12469
0.122689
0.119742
0.115768
0.109247
0.0968467
0.134861
0.134721
0.134623
0.134459
0.134273
0.134103
0.133949
0.133806
0.133674
0.133549
0.133434
0.133328
0.133231
0.133142
0.133058
0.132978
0.132899
0.132817
0.132725
0.132615
0.132473
0.132279
0.131999
0.131586
0.130952
0.129997
0.128388
0.12614
0.121578
0.114201
0.135516
0.135503
0.135518
0.135421
0.135298
0.135209
0.135152
0.135113
0.135089
0.135084
0.1351
0.135137
0.135197
0.135281
0.135391
0.135528
0.135694
0.135892
0.13612
0.136379
0.136666
0.136974
0.137286
0.137576
0.137789
0.137859
0.137532
0.136874
0.134289
0.130963
0.136398
0.136503
0.136634
0.136626
0.136589
0.1366
0.136654
0.13673
0.136829
0.136955
0.137114
0.137308
0.137541
0.137816
0.138139
0.138515
0.13895
0.13945
0.140022
0.140673
0.141408
0.142232
0.143144
0.144133
0.145171
0.146216
0.147082
0.147849
0.147105
0.146889
0.137526
0.137749
0.138002
0.138092
0.138151
0.13827
0.138443
0.138646
0.138879
0.139152
0.139472
0.139841
0.140267
0.140754
0.141311
0.141946
0.142669
0.143491
0.144424
0.145481
0.146675
0.148018
0.149521
0.151186
0.153003
0.154946
0.156886
0.15888
0.159755
0.161794
0.138923
0.139269
0.139648
0.139846
0.140012
0.140251
0.140555
0.140899
0.141282
0.141716
0.14221
0.14277
0.143403
0.144117
0.144922
0.145831
0.146855
0.14801
0.149311
0.150776
0.152424
0.154272
0.156339
0.158636
0.161161
0.163899
0.166759
0.169753
0.171966
0.175518
0.140608
0.141079
0.141587
0.141901
0.142185
0.142553
0.142999
0.143493
0.144037
0.144644
0.145325
0.146086
0.146937
0.147888
0.148951
0.15014
0.15147
0.152958
0.154622
0.156485
0.158566
0.160889
0.163473
0.166332
0.169472
0.172877
0.176477
0.180234
0.18348
0.187885
0.142583
0.143179
0.143817
0.144254
0.144664
0.145169
0.145764
0.146417
0.147129
0.147915
0.148789
0.149758
0.150831
0.152022
0.153342
0.154809
0.156437
0.158246
0.160256
0.162489
0.164967
0.167713
0.170746
0.17408
0.177717
0.181639
0.185781
0.190061
0.194016
0.198693
0.144827
0.145546
0.146306
0.146869
0.147411
0.148058
0.148804
0.149618
0.1505
0.151467
0.152533
0.153708
0.155
0.156422
0.15799
0.15972
0.161627
0.163732
0.166054
0.168614
0.171434
0.174534
0.17793
0.18163
0.185631
0.189904
0.194375
0.198932
0.203224
0.207661
0.147285
0.148115
0.148986
0.149673
0.15035
0.151137
0.15203
0.153
0.154048
0.155189
0.156439
0.157807
0.159303
0.16094
0.162734
0.164699
0.166853
0.169213
0.171799
0.174629
0.177721
0.181091
0.18475
0.188697
0.192919
0.197371
0.201966
0.206555
0.210815
0.214665
0.149852
0.150777
0.151741
0.152545
0.153351
0.15427
0.155301
0.156414
0.157613
0.158912
0.160327
0.161867
0.163543
0.165366
0.167352
0.169515
0.17187
0.174434
0.177222
0.180252
0.183536
0.187083
0.190898
0.194971
0.199274
0.203749
0.208292
0.212722
0.216723
0.22002
0.152373
0.153372
0.154403
0.155309
0.156232
0.157269
0.158417
0.159653
0.16098
0.162413
0.163965
0.165646
0.167466
0.169437
0.171571
0.173882
0.176383
0.17909
0.182013
0.185166
0.188556
0.192187
0.196053
0.200137
0.204398
0.208764
0.213118
0.217257
0.220899
0.22358
0.154643
0.155689
0.15676
0.157746
0.158766
0.159897
0.161135
0.162466
0.163891
0.165424
0.167077
0.168859
0.170781
0.172851
0.175082
0.177486
0.180074
0.182856
0.185843
0.189041
0.192453
0.196077
0.199899
0.203891
0.208003
0.212149
0.2162
0.21993
0.223057
0.224927
0.156424
0.157489
0.15857
0.15961
0.160699
0.161893
0.163189
0.164578
0.166063
0.167657
0.169369
0.171208
0.173182
0.175301
0.177575
0.180014
0.182625
0.185418
0.188397
0.191566
0.194923
0.198458
0.202151
0.205963
0.209835
0.213667
0.217311
0.220522
0.223013
0.224135
0.157479
0.158535
0.159601
0.160661
0.161784
0.163005
0.164323
0.165731
0.167235
0.168845
0.170571
0.172418
0.174396
0.176511
0.178773
0.181188
0.183763
0.186503
0.189411
0.192485
0.195717
0.199093
0.202583
0.206143
0.209702
0.213148
0.216327
0.218976
0.220836
0.221134
0.157611
0.158634
0.159662
0.160709
0.161827
0.163036
0.164335
0.165722
0.167203
0.168785
0.170477
0.172285
0.174216
0.176276
0.178472
0.180809
0.183292
0.185923
0.188701
0.191621
0.194671
0.197832
0.201068
0.204328
0.20753
0.210555
0.213242
0.2153
0.216535
0.215615
0.156706
0.157673
0.158646
0.159647
0.160718
0.161875
0.163116
0.164441
0.165856
0.167367
0.168981
0.170704
0.172541
0.174499
0.176582
0.178793
0.181136
0.183609
0.18621
0.18893
0.191754
0.194657
0.197598
0.200518
0.20333
0.2059
0.208062
0.209478
0.210105
0.207791
0.154768
0.155659
0.156564
0.157486
0.158469
0.159534
0.160681
0.161906
0.163215
0.164614
0.166109
0.167706
0.169408
0.17122
0.173146
0.175188
0.177346
0.179618
0.181998
0.184475
0.187029
0.18963
0.192233
0.194772
0.197152
0.19923
0.200844
0.201585
0.201654
0.198036
0.151921
0.152717
0.153538
0.154351
0.155209
0.156146
0.157162
0.158252
0.159419
0.160667
0.162004
0.163433
0.164958
0.166582
0.168308
0.170136
0.172066
0.174092
0.176207
0.178396
0.180637
0.182895
0.18512
0.18724
0.189155
0.190704
0.191736
0.191738
0.19119
0.186014
0.148377
0.149055
0.149771
0.150446
0.151145
0.15192
0.152774
0.153695
0.154684
0.155746
0.156888
0.158113
0.159424
0.160823
0.16231
0.163886
0.165548
0.167289
0.169098
0.170959
0.172845
0.174718
0.176523
0.178179
0.179579
0.18054
0.180922
0.180066
0.178789
0.171724
0.144414
0.144949
0.145539
0.146049
0.146561
0.147146
0.147809
0.148534
0.149315
0.150161
0.151077
0.152066
0.153129
0.154268
0.155482
0.156769
0.158125
0.159541
0.161005
0.162495
0.163983
0.165424
0.166758
0.167893
0.168712
0.169003
0.168636
0.166766
0.164563
0.155566
0.140331
0.140694
0.141128
0.141451
0.141755
0.142129
0.142577
0.143078
0.143627
0.144229
0.144892
0.145617
0.146404
0.147252
0.148161
0.149126
0.150142
0.151198
0.152277
0.153356
0.154401
0.15536
0.156167
0.156716
0.156881
0.156411
0.155192
0.152178
0.148897
0.137741
0.136398
0.136561
0.136808
0.136926
0.137009
0.137154
0.137368
0.137626
0.137921
0.13826
0.138647
0.139084
0.13957
0.140103
0.14068
0.141295
0.141941
0.142604
0.143264
0.143892
0.14445
0.144879
0.145102
0.145001
0.144433
0.14311
0.140927
0.136631
0.132122
0.118345
0.132846
0.132778
0.132806
0.1327
0.132551
0.132453
0.132414
0.132409
0.132432
0.132488
0.132582
0.132713
0.132878
0.133076
0.1333
0.133544
0.133796
0.134039
0.13425
0.134396
0.13443
0.134286
0.133874
0.133061
0.131686
0.129412
0.126147
0.120395
0.114491
0.0975113
0.129841
0.129514
0.129295
0.128964
0.128585
0.128241
0.127939
0.12766
0.1274
0.127161
0.126947
0.126755
0.126585
0.126431
0.126287
0.126142
0.125982
0.125787
0.125527
0.125163
0.124642
0.123886
0.122793
0.121207
0.11895
0.115625
0.111151
0.103741
0.0962744
0.0754305
0.127518
0.126856
0.126319
0.125747
0.125138
0.124541
0.123946
0.123367
0.122814
0.122276
0.121746
0.121224
0.120709
0.120196
0.119674
0.119132
0.11855
0.117906
0.117164
0.116278
0.115184
0.113795
0.11199
0.109592
0.106396
0.10194
0.0961489
0.0868919
0.0777754
0.0523273
0.12613
0.125069
0.124176
0.123347
0.122583
0.121795
0.120871
0.119956
0.119086
0.118231
0.117369
0.116504
0.115635
0.114754
0.113849
0.112903
0.111896
0.110797
0.109565
0.108145
0.106462
0.104414
0.101864
0.0986036
0.0944024
0.0887153
0.0814829
0.0701066
0.0594123
0.0283679
0.124869
0.123294
0.122092
0.121136
0.12013
0.11897
0.117783
0.116619
0.115457
0.114281
0.113088
0.111879
0.110652
0.109396
0.108101
0.106747
0.10531
0.103757
0.102042
0.1001
0.0978448
0.0951575
0.0918788
0.087771
0.0825785
0.0756444
0.0669915
0.0531379
0.0416087
0.00364088
-0.0208262
-0.0462298
-0.0732819
-0.100553
-0.127095
-0.152721
-0.177022
-0.199727
-0.220021
-0.237648
-0.252216
-0.263183
-0.269839
-0.272163
-0.269977
-0.262675
-0.249958
-0.231628
-0.208078
-0.180199
-0.152357
-0.127483
-0.10964
-0.0998517
-0.0964099
-0.0968734
-0.0978509
-0.09771
-0.0967646
-0.0956637
0.0247534
0.00276
-0.0212344
-0.0449376
-0.0683444
-0.0913613
-0.113633
-0.13493
-0.154912
-0.17331
-0.189376
-0.202655
-0.211765
-0.216185
-0.217298
-0.214571
-0.206408
-0.192826
-0.174942
-0.15343
-0.131022
-0.112623
-0.101121
-0.0968537
-0.0968147
-0.0969625
-0.0946267
-0.0918537
-0.0920164
-0.0923536
0.0365033
0.0159698
-0.00666037
-0.0296377
-0.0524989
-0.0748425
-0.0968423
-0.118232
-0.138693
-0.157422
-0.173667
-0.186818
-0.196196
-0.201416
-0.202885
-0.200141
-0.19235
-0.179876
-0.163782
-0.146
-0.127263
-0.112266
-0.103179
-0.0999833
-0.0991891
-0.0978631
-0.0956879
-0.093765
-0.0945677
-0.0909954
0.0539063
0.0355824
0.0148781
-0.00599114
-0.0267008
-0.0476334
-0.0690115
-0.0901991
-0.110459
-0.129096
-0.145473
-0.15897
-0.168994
-0.175101
-0.177202
-0.17513
-0.168733
-0.158485
-0.145474
-0.131195
-0.117265
-0.106529
-0.0999227
-0.0962455
-0.0934084
-0.091123
-0.0900634
-0.0898651
-0.090496
-0.0884757
0.0641424
0.0475484
0.0284882
0.00929165
-0.0100503
-0.0300503
-0.0506014
-0.0710696
-0.0907967
-0.109213
-0.125713
-0.139638
-0.150354
-0.157349
-0.160392
-0.159426
-0.154501
-0.146076
-0.13517
-0.123242
-0.111934
-0.102895
-0.0966282
-0.0924447
-0.0894893
-0.087558
-0.086338
-0.0855002
-0.0843632
-0.0847984
0.0726107
0.0576023
0.0400863
0.02229
0.00415697
-0.0148356
-0.0345497
-0.0543952
-0.0737463
-0.0920236
-0.108593
-0.122764
-0.133877
-0.141408
-0.145082
-0.144861
-0.140914
-0.133787
-0.124523
-0.114505
-0.105129
-0.0974649
-0.0918361
-0.0878684
-0.0850334
-0.0829621
-0.0813341
-0.0801482
-0.0795019
-0.0803634
0.0789587
0.0653475
0.0492334
0.0327515
0.0158267
-0.0020897
-0.020903
-0.0400542
-0.058927
-0.0769354
-0.093442
-0.10775
-0.119189
-0.127225
-0.131554
-0.132137
-0.129211
-0.123373
-0.115622
-0.10719
-0.0992375
-0.0925697
-0.0874365
-0.0835954
-0.080636
-0.0782499
-0.0762874
-0.0748404
-0.073904
-0.0740812
0.0840559
0.0716116
0.0567423
0.0414312
0.0255719
0.00861114
-0.00938174
-0.0278726
-0.0462624
-0.0639761
-0.0803837
-0.094787
-0.106505
-0.114986
-0.119901
-0.121208
-0.11917
-0.114401
-0.107844
-0.100606
-0.093688
-0.087747
-0.0829774
-0.0792005
-0.0761157
-0.0735197
-0.0713356
-0.0696255
-0.0683071
-0.0677764
0.0881552
0.0767212
0.0629444
0.048678
0.0337844
0.0177074
0.000493726
-0.0173544
-0.035263
-0.0526715
-0.0689549
-0.0834117
-0.0953498
-0.104201
-0.109622
-0.111561
-0.110293
-0.106426
-0.100853
-0.0945758
-0.0884737
-0.0830977
-0.0786064
-0.0748729
-0.0716898
-0.0689272
-0.0665283
-0.0645318
-0.0628183
-0.0617902
0.0915409
0.0809761
0.0681497
0.0548086
0.0407858
0.0255188
0.00903236
-0.00820377
-0.0256432
-0.0427418
-0.0588816
-0.0733602
-0.0854774
-0.0946521
-0.100526
-0.103036
-0.102454
-0.099371
-0.0946257
-0.0891325
-0.0836714
-0.0787214
-0.0744258
-0.0707051
-0.0674204
-0.0644906
-0.0618687
-0.05959
-0.0575017
-0.0560678
0.0944007
0.0845808
0.0725791
0.0600556
0.0468153
0.0322848
0.0164673
-0.000197399
-0.0171899
-0.0339849
-0.0499738
-0.0644555
-0.0767236
-0.0861843
-0.0924636
-0.0954849
-0.0955049
-0.0930925
-0.0890361
-0.0841734
-0.0792111
-0.074579
-0.0704169
-0.066687
-0.063303
-0.0602136
-0.0573815
-0.0548504
-0.0524384
-0.05069
0.0968735
0.0876922
0.0764037
0.0646006
0.0520612
0.0381978
0.022992
0.00685654
-0.00971574
-0.0262196
-0.0420578
-0.0565319
-0.0689294
-0.0786446
-0.085287
-0.0887636
-0.089313
-0.0874774
-0.0839978
-0.0796489
-0.0750813
-0.0706906
-0.0666202
-0.0628653
-0.0593777
-0.0561346
-0.0531076
-0.0503519
-0.0476621
-0.0456545
0.0990609
0.0904276
0.0797552
0.0685857
0.056673
0.0434119
0.0287629
0.0131137
-0.00306804
-0.0192979
-0.0349914
-0.0494531
-0.0619655
-0.0719107
-0.0788815
-0.0827663
-0.0837833
-0.0824457
-0.0794506
-0.0755206
-0.0712625
-0.0670486
-0.0630303
-0.0592323
-0.0556385
-0.0522504
-0.0490487
-0.0461041
-0.0431918
-0.041004
0.101038
0.0928768
0.0827359
0.0721229
0.0607694
0.0480508
0.0339063
0.0187007
0.00287766
-0.013099
-0.0286581
-0.0431082
-0.0557267
-0.0658834
-0.0731539
-0.0774063
-0.0788363
-0.077929
-0.0753398
-0.0717496
-0.0677308
-0.0636412
-0.0596435
-0.0557895
-0.052091
-0.0485712
-0.0452206
-0.0421279
-0.0390522
-0.0367642
0.102861
0.0951082
0.0854266
0.075302
0.0644465
0.0522151
0.038526
0.0237223
0.00822534
-0.00752139
-0.0229601
-0.0374035
-0.0501242
-0.060479
-0.0680252
-0.0726103
-0.074406
-0.0738706
-0.0716207
-0.0683042
-0.0644663
-0.0604576
-0.0564545
-0.0525346
-0.0487353
-0.0450998
-0.0416294
-0.0384323
-0.0352524
-0.0329385
0.104571
0.0971745
0.0878907
0.0781949
0.0677822
0.0559874
0.0427078
0.0282659
0.0130623
-0.0024794
-0.0178145
-0.0322598
-0.0450828
-0.0556267
-0.0634297
-0.0683173
-0.0704378
-0.0702233
-0.0682558
-0.0651563
-0.0614496
-0.0574849
-0.053455
-0.0494623
-0.0455687
-0.0418369
-0.0382793
-0.0350237
-0.0317978
-0.0295264
0.106201
0.0991142
0.0901761
0.0808576
0.0708396
0.0594356
0.046523
0.0324051
0.0174621
0.00209938
-0.0131511
-0.0276099
-0.0405391
-0.051267
-0.0593117
-0.0644763
-0.0668859
-0.0669476
-0.0652133
-0.0622812
-0.0586625
-0.0547103
-0.0506358
-0.0465666
-0.042588
-0.038782
-0.0351727
-0.0319054
-0.0286894
-0.0265215
0.107775
0.100962
0.092322
0.0833363
0.0736702
0.0626157
0.0500311
0.0362016
0.0214875
0.00627673
-0.00890996
-0.0233966
-0.036439
-0.0473495
-0.0556243
-0.0610438
-0.0637112
-0.0640097
-0.0624652
-0.0596568
-0.056088
-0.0521209
-0.0479875
-0.0438404
-0.0397886
-0.0359337
-0.0323107
-0.029079
-0.0259263
-0.0239137
0.109311
0.102742
0.0943619
0.0856696
0.0763165
0.065574
0.0532826
0.039708
0.0251917
0.0101056
-0.00503964
-0.0195706
-0.0327364
-0.0438311
-0.0523278
-0.0579833
-0.0608789
-0.0613814
-0.0599878
-0.0572633
-0.0537102
-0.0497045
-0.0455007
-0.0412766
-0.037166
-0.0332899
-0.029694
-0.0265459
-0.0235078
-0.0216918
0.110822
0.104474
0.0963225
0.0878892
0.0788137
0.0683497
0.0563197
0.0429694
0.0286209
0.0136318
-0.00149568
-0.0160897
-0.0293918
-0.0406754
-0.0493885
-0.0552635
-0.0583639
-0.059038
-0.05776
-0.0550829
-0.0515146
-0.0474495
-0.0431661
-0.0388683
-0.0347157
-0.0308489
-0.0273228
-0.024306
-0.0214308
-0.0198426
0.112313
0.106171
0.0982251
0.0900215
0.0811913
0.0709752
0.0591786
0.0460245
0.0318149
0.0168948
0.00176038
-0.0129172
-0.0263715
-0.0378513
-0.0467782
-0.0528589
-0.0561434
-0.0569606
-0.0557654
-0.0531006
-0.0494881
-0.0453448
-0.0409747
-0.0366085
-0.0324336
-0.0286103
-0.0251999
-0.0223611
-0.01969
-0.0183463
0.113788
0.107843
0.100087
0.0920891
0.0834741
0.0734778
0.0618901
0.0489068
0.0348085
0.0199293
0.00476199
-0.0100215
-0.0236466
-0.0353311
-0.0444704
-0.0507434
-0.0541912
-0.055126
-0.053982
-0.0512983
-0.0476165
-0.0433796
-0.0389178
-0.034491
-0.0303165
-0.0265748
-0.023331
-0.0207198
-0.0182896
-0.0171853
0.115242
0.109493
0.101923
0.0941113
0.0856832
0.0758812
0.0644804
0.051645
0.0376324
0.0227666
0.00753939
-0.00737577
-0.0211966
-0.0331005
-0.0424556
-0.0489104
-0.0525098
-0.0535448
-0.0524191
-0.0496788
-0.0458977
-0.0415474
-0.0369871
-0.0325079
-0.0283592
-0.0247404
-0.0217159
-0.0193821
-0.0172302
-0.0163536
0.116671
0.111121
0.103742
0.0961036
0.0878364
0.0782062
0.0669731
0.0542636
0.0403116
0.0254329
0.0101236
-0.00494102
-0.0189784
-0.0311105
-0.040683
-0.047299
-0.0510104
-0.0521172
-0.0509872
-0.0481757
-0.0442885
-0.0398238
-0.0351683
-0.0306506
-0.0265582
-0.0231082
-0.0203541
-0.0183281
-0.0164628
-0.0158069
0.118071
0.112726
0.105553
0.0980771
0.0899455
0.0804697
0.0693914
0.0567883
0.0428668
0.0279328
0.0124945
-0.00275621
-0.0170444
-0.0294373
-0.0392378
-0.0460609
-0.0499298
-0.0510696
-0.0498674
-0.0469164
-0.0428648
-0.0382465
-0.0334772
-0.0289251
-0.0249207
-0.0216966
-0.0192812
-0.0175941
-0.0159806
-0.0154666
0.119426
0.114311
0.107367
0.100044
0.092019
0.0826786
0.0717529
0.0592644
0.045388
0.0304076
0.0148336
-0.000645256
-0.0151567
-0.0278154
-0.037803
-0.0446203
-0.0486827
-0.049916
-0.0486704
-0.0456124
-0.0414306
-0.0366905
-0.0318453
-0.0273032
-0.02344
-0.0205108
-0.0185191
-0.0172512
-0.0159467
-0.0154595
0.120702
0.115862
0.109194
0.102021
0.0940719
0.0848071
0.073957
0.0614981
0.0475772
0.032493
0.0167263
0.000962285
-0.0138412
-0.0268543
-0.0372083
-0.0443673
-0.0482735
-0.0494074
-0.0479953
-0.0447183
-0.0403104
-0.0353555
-0.0303509
-0.0257787
-0.0220654
-0.0194721
-0.0179423
-0.0170952
-0.0162127
-0.0160078
0.121887
0.117343
0.111034
0.104079
0.0963111
0.0872395
0.0765654
0.0642101
0.0502949
0.0351268
0.0191843
0.00319475
-0.0118875
-0.025159
-0.0355813
-0.0429272
-0.0472818
-0.0484994
-0.0469864
-0.0435498
-0.0389745
-0.0338621
-0.0287487
-0.024188
-0.0207105
-0.0186055
-0.0176524
-0.0170714
-0.0162016
-0.0161508
0.122951
0.118716
0.112588
0.105603
0.0977653
0.088709
0.0780582
0.0656693
0.0516301
0.0362527
0.0200445
0.00373993
-0.0116727
-0.0252941
-0.0358489
-0.0430804
-0.0473051
-0.0483756
-0.0466288
-0.0429353
-0.0381238
-0.0328222
-0.0276055
-0.0230805
-0.0198468
-0.018379
-0.0182848
-0.0183964
-0.0177171
-0.0171148
0.124069
0.120626
0.115267
0.10868
0.10108
0.0922392
0.0818026
0.0695603
0.0555181
0.0399618
0.0234057
0.00660252
-0.00941501
-0.0236016
-0.0347886
-0.0425041
-0.0469226
-0.0478888
-0.0458949
-0.0418366
-0.0366195
-0.030961
-0.0255175
-0.0210391
-0.0182757
-0.0175981
-0.0180554
-0.0181962
-0.0177009
-0.0174893
0.0085685
0.00291179
-0.00714251
-0.0184069
-0.00882312
0.0216467
0.0467626
0.064994
0.0789633
0.0900602
0.0990274
0.106436
0.112718
0.118195
0.123081
0.127502
0.13155
0.135284
0.13874
0.141939
0.144901
0.147637
0.150185
0.152537
0.154811
0.156911
0.15914
0.161098
0.163761
0.163606
0.00658354
-0.00370722
-0.0204719
-0.034006
-0.0272202
0.00381336
0.0364563
0.058563
0.0744957
0.0868104
0.0965865
0.104541
0.111166
0.116866
0.121901
0.126422
0.130547
0.134359
0.137908
0.141216
0.144299
0.147157
0.149809
0.152227
0.154473
0.156459
0.158387
0.159902
0.161702
0.162619
0.00735021
-0.0061604
-0.029879
-0.0483247
-0.0469489
-0.017085
0.0206312
0.0489082
0.0681019
0.0823318
0.0933418
0.102088
0.109138
0.115098
0.120323
0.124979
0.129203
0.133101
0.136743
0.140168
0.143395
0.146426
0.149265
0.151891
0.154322
0.156517
0.158562
0.160361
0.162141
0.16377
0.0112611
-0.00435135
-0.0320859
-0.0575887
-0.0637627
-0.0389845
0.00250156
0.0383206
0.0624614
0.079152
0.0915773
0.101235
0.108675
0.114771
0.120038
0.124714
0.128953
0.132866
0.136545
0.140028
0.143343
0.146504
0.149515
0.152365
0.155049
0.157549
0.159875
0.162001
0.163944
0.165662
0.016909
0.00174304
-0.0277955
-0.0580746
-0.0712013
-0.056573
-0.0170922
0.0245417
0.0555626
0.075967
0.0903815
0.101171
0.109128
0.115415
0.120633
0.125156
0.129223
0.133002
0.13658
0.140002
0.143317
0.146512
0.149615
0.152605
0.155466
0.158184
0.160742
0.16312
0.165316
0.167269
0.0217984
0.00881127
-0.0172986
-0.0493762
-0.0682298
-0.0629524
-0.0323413
0.00933671
0.0455393
0.071759
0.0898493
0.101882
0.11039
0.116908
0.122056
0.126362
0.13013
0.133568
0.136822
0.140011
0.143144
0.146264
0.149391
0.152449
0.155438
0.158346
0.161149
0.163819
0.166359
0.168687
0.0215758
0.0130113
-0.00631164
-0.0338147
-0.056335
-0.057823
-0.0369531
-0.00100807
0.0362992
0.0665216
0.088457
0.103632
0.113688
0.120289
0.125082
0.128936
0.132239
0.135233
0.138034
0.140725
0.14342
0.146239
0.14915
0.152121
0.15513
0.158157
0.161166
0.164114
0.167001
0.169715
0.0131959
0.010906
-0.00202818
-0.0206723
-0.0388209
-0.0451946
-0.0324977
-0.00422685
0.0302392
0.0620822
0.0875846
0.105772
0.117912
0.125877
0.130887
0.13398
0.136258
0.138332
0.140379
0.142505
0.144631
0.146914
0.149364
0.15198
0.154761
0.157688
0.160716
0.163809
0.166959
0.17
-0.00427845
0.000688168
-0.00654607
-0.0177164
-0.0284857
-0.0316934
-0.0244002
-0.00425778
0.0256572
0.0572057
0.0852731
0.107255
0.122657
0.132438
0.13841
0.141968
0.143869
0.144599
0.144914
0.1454
0.146273
0.147704
0.149575
0.151747
0.154198
0.156894
0.15971
0.162759
0.16605
0.16934
-0.0311193
-0.0179763
-0.0203704
-0.0256758
-0.0308723
-0.0310937
-0.0229562
-0.00614227
0.0180648
0.0475599
0.0763115
0.101423
0.121571
0.136111
0.145342
0.150313
0.152671
0.153544
0.153741
0.15337
0.15237
0.15141
0.150958
0.151393
0.15317
0.155368
0.157566
0.160355
0.163666
0.167043
-0.0649476
-0.0430792
-0.0422617
-0.0432807
-0.0449517
-0.042857
-0.0347365
-0.0195811
0.00275428
0.0295283
0.0577563
0.0844591
0.107603
0.126407
0.140932
0.151149
0.157188
0.159755
0.160117
0.159572
0.158698
0.15759
0.156595
0.155989
0.15515
0.154171
0.154264
0.156223
0.158965
0.161439
-0.100703
-0.0722089
-0.0695732
-0.0674938
-0.0670899
-0.0639815
-0.0563074
-0.042897
-0.0236628
0.000458562
0.0275382
0.0551696
0.0810447
0.103561
0.121855
0.136072
0.146697
0.154126
0.158395
0.160188
0.160279
0.159115
0.157466
0.156256
0.155374
0.154267
0.153668
0.153946
0.153899
0.153742
-0.136006
-0.102591
-0.0996619
-0.095094
-0.0937417
-0.0904802
-0.083684
-0.0721415
-0.0556685
-0.0347925
-0.0104504
0.0157382
0.0419605
0.0665685
0.0883559
0.106734
0.121644
0.133375
0.142124
0.148075
0.151611
0.153133
0.153122
0.152093
0.150573
0.148799
0.14727
0.146547
0.146305
0.146428
-0.167519
-0.131659
-0.129443
-0.122999
-0.121646
-0.118989
-0.113709
-0.104424
-0.0908306
-0.0731084
-0.0517189
-0.027688
-0.0024482
0.0224502