/*--------------------------------*- C++ -*----------------------------------*\
  =========                 |
  \\      /  F ield         | OpenFOAM: The Open Source CFD Toolbox
   \\    /   O peration     | Website:  https://openfoam.org
    \\  /    A nd           | Version:  11
     \\/     M anipulation  |
\*---------------------------------------------------------------------------*/
FoamFile
{
    format      ascii;
    class       volScalarField;
    location    "3";
    object      p;
}
// * * * * * * * * * * * * * * * * * * * * * * * * * * * * * * * * * * * * * //

dimensions      [0 2 -2 0 0 0 0];

internalField   nonuniform List<scalar> 
12600
(
0.076374
0.0762373
0.0761728
0.0761533
0.0761353
0.0761109
0.0760834
0.0760543
0.0760232
0.0759887
0.0759498
0.0759054
0.0758542
0.0757947
0.0757251
0.075643
0.0755455
0.0754294
0.0752907
0.0751249
0.0749245
0.074682
0.0743887
0.074033
0.0736007
0.073074
0.0724319
0.0716441
0.0706782
0.069424
0.0762985
0.0762285
0.0761752
0.0761524
0.0761335
0.0761098
0.0760829
0.0760542
0.0760233
0.0759891
0.0759506
0.0759066
0.0758559
0.075797
0.075728
0.0756468
0.0755503
0.0754355
0.075298
0.0751343
0.0749362
0.0746969
0.0744069
0.074055
0.0736276
0.073107
0.0724757
0.0716997
0.0707965
0.0697684
0.0762633
0.0762299
0.0761837
0.0761547
0.0761343
0.0761116
0.0760853
0.0760569
0.0760264
0.0759926
0.0759545
0.0759112
0.0758613
0.0758033
0.0757355
0.0756563
0.075562
0.0754498
0.0753161
0.0751542
0.0749602
0.0747259
0.0744422
0.0740979
0.0736799
0.0731714
0.0725544
0.0718048
0.0709221
0.0698709
0.0762387
0.0762179
0.0761814
0.0761526
0.076132
0.0761105
0.0760853
0.0760577
0.0760279
0.075995
0.0759579
0.0759157
0.0758671
0.0758106
0.0757444
0.0756676
0.0755765
0.0754678
0.0753378
0.0751813
0.0749934
0.0747666
0.074492
0.074159
0.0737546
0.073263
0.0726662
0.0719426
0.071073
0.0700244
0.0762211
0.0762074
0.0761801
0.076154
0.0761332
0.0761125
0.0760883
0.0760615
0.0760326
0.0760006
0.0759647
0.0759238
0.0758769
0.0758226
0.0757595
0.0756845
0.0755967
0.0754924
0.0753676
0.0752179
0.075038
0.074821
0.0745584
0.07424
0.0738532
0.0733831
0.0728114
0.0721171
0.0712725
0.0702505
0.0762083
0.0761987
0.0761777
0.0761543
0.0761337
0.0761133
0.0760903
0.0760646
0.0760366
0.0760057
0.0759711
0.0759317
0.0758868
0.075835
0.0757748
0.0757037
0.0756202
0.0755212
0.075403
0.0752615
0.0750914
0.0748863
0.0746383
0.0743377
0.0739725
0.0735283
0.0729872
0.0723283
0.0715204
0.0705376
0.076199
0.0761918
0.0761751
0.0761545
0.0761348
0.0761152
0.0760934
0.076069
0.0760422
0.0760127
0.0759798
0.0759425
0.0758997
0.0758507
0.0757938
0.0757271
0.0756487
0.0755559
0.0754455
0.0753133
0.0751547
0.0749637
0.0747328
0.074453
0.0741131
0.0736994
0.0731945
0.0725778
0.0718167
0.0708867
0.0761923
0.0761866
0.0761729
0.0761549
0.0761364
0.0761176
0.0760969
0.0760738
0.0760483
0.0760203
0.075989
0.0759539
0.0759138
0.0758679
0.0758148
0.0757529
0.0756803
0.0755947
0.0754929
0.0753715
0.0752259
0.0750508
0.0748394
0.0745834
0.0742723
0.0738934
0.0734302
0.0728627
0.0721587
0.0712943
0.0761877
0.076183
0.0761715
0.0761556
0.0761384
0.0761205
0.076101
0.0760792
0.0760552
0.0760288
0.0759995
0.0759667
0.0759296
0.0758872
0.0758385
0.0757819
0.0757158
0.075638
0.075546
0.0754364
0.0753053
0.0751479
0.0749582
0.0747285
0.0744496
0.0741097
0.0736934
0.0731822
0.0725449
0.0717588
0.0761847
0.0761807
0.0761708
0.0761568
0.0761409
0.076124
0.0761056
0.0760852
0.0760627
0.0760381
0.0760109
0.0759807
0.0759467
0.0759081
0.0758641
0.0758132
0.0757541
0.0756849
0.0756033
0.0755066
0.0753913
0.0752532
0.075087
0.0748862
0.0746424
0.0743453
0.0739811
0.0735327
0.0729715
0.0722759
0.0761831
0.0761796
0.076171
0.0761584
0.0761438
0.0761279
0.0761106
0.0760916
0.0760708
0.0760481
0.0760232
0.0759957
0.075965
0.0759306
0.0758915
0.0758468
0.0757952
0.0757351
0.0756648
0.0755819
0.0754834
0.075366
0.075225
0.0750551
0.0748492
0.0745984
0.0742908
0.0739115
0.0734349
0.0728416
0.0761827
0.0761797
0.076172
0.0761606
0.0761471
0.0761323
0.0761162
0.0760986
0.0760794
0.0760586
0.0760361
0.0760115
0.0759843
0.0759542
0.0759204
0.0758821
0.0758384
0.075788
0.0757296
0.0756611
0.0755804
0.0754847
0.0753705
0.0752333
0.0750675
0.074866
0.074619
0.0743141
0.0739299
0.0734499
0.0761835
0.0761807
0.0761737
0.0761633
0.0761509
0.0761371
0.0761221
0.0761059
0.0760884
0.0760696
0.0760495
0.0760279
0.0760044
0.0759788
0.0759504
0.0759189
0.0758834
0.0758431
0.0757969
0.0757436
0.0756814
0.0756083
0.0755219
0.0754188
0.075295
0.0751452
0.074962
0.0747361
0.0744509
0.0740935
0.0761852
0.0761826
0.0761762
0.0761666
0.076155
0.0761422
0.0761283
0.0761135
0.0760977
0.076081
0.0760634
0.0760448
0.0760251
0.076004
0.0759813
0.0759567
0.0759296
0.0758996
0.0758661
0.0758283
0.0757851
0.0757354
0.0756776
0.0756097
0.0755292
0.0754327
0.0753158
0.0751723
0.0749912
0.074764
0.0761877
0.0761854
0.0761794
0.0761704
0.0761596
0.0761476
0.0761349
0.0761214
0.0761073
0.0760926
0.0760776
0.0760621
0.0760462
0.0760298
0.0760128
0.0759951
0.0759766
0.0759571
0.0759365
0.0759144
0.0758906
0.0758645
0.0758358
0.0758036
0.0757672
0.0757253
0.0756761
0.0756171
0.0755433
0.0754513
0.0761912
0.0761889
0.0761832
0.0761747
0.0761644
0.0761533
0.0761416
0.0761294
0.076117
0.0761044
0.0760918
0.0760795
0.0760674
0.0760556
0.0760443
0.0760337
0.0760238
0.0760149
0.0760072
0.0760009
0.0759965
0.0759943
0.0759948
0.0759986
0.0760065
0.0760194
0.0760384
0.0760646
0.0760994
0.0761447
0.0761954
0.0761932
0.0761876
0.0761793
0.0761696
0.0761592
0.0761485
0.0761376
0.0761267
0.0761161
0.076106
0.0760968
0.0760884
0.0760813
0.0760758
0.0760721
0.0760708
0.0760724
0.0760775
0.076087
0.0761018
0.0761232
0.0761527
0.0761923
0.0762442
0.0763115
0.0763981
0.0765089
0.0766512
0.0768328
0.0762004
0.0761982
0.0761926
0.0761844
0.076175
0.0761652
0.0761554
0.0761457
0.0761363
0.0761277
0.0761201
0.0761138
0.0761092
0.0761067
0.0761067
0.0761099
0.076117
0.0761289
0.0761466
0.0761716
0.0762053
0.07625
0.076308
0.0763825
0.0764775
0.0765981
0.0767508
0.0769439
0.0771907
0.0775043
0.0762062
0.0762039
0.0761981
0.0761898
0.0761805
0.0761712
0.0761623
0.0761537
0.0761458
0.076139
0.0761338
0.0761304
0.0761294
0.0761313
0.0761368
0.0761467
0.076162
0.0761839
0.0762138
0.0762538
0.0763059
0.0763731
0.0764587
0.0765672
0.0767039
0.0768758
0.077092
0.0773641
0.0777102
0.0781482
0.0762129
0.0762104
0.0762041
0.0761954
0.0761861
0.0761773
0.0761691
0.0761615
0.076155
0.0761499
0.0761469
0.0761464
0.0761488
0.076155
0.0761657
0.076182
0.0762052
0.0762367
0.0762784
0.0763328
0.0764026
0.0764913
0.0766034
0.0767442
0.0769207
0.0771415
0.0774179
0.0777641
0.0782026
0.0787551
0.0762205
0.0762176
0.0762106
0.0762012
0.0761917
0.0761832
0.0761757
0.076169
0.0761637
0.0761604
0.0761595
0.0761616
0.0761673
0.0761775
0.0761932
0.0762155
0.0762461
0.0762867
0.0763396
0.0764076
0.0764941
0.0766033
0.0767403
0.0769117
0.0771256
0.0773921
0.0777245
0.0781393
0.0786619
0.0793168
0.076229
0.0762256
0.0762174
0.0762069
0.0761971
0.076189
0.076182
0.0761762
0.076172
0.0761702
0.0761713
0.0761758
0.0761846
0.0761986
0.0762189
0.0762469
0.0762845
0.0763336
0.076397
0.0764777
0.0765797
0.0767079
0.0768681
0.0770679
0.0773164
0.077625
0.0780088
0.0784859
0.0790834
0.0798277
0.0762389
0.0762346
0.0762246
0.0762126
0.0762024
0.0761945
0.0761881
0.0761828
0.0761796
0.0761792
0.0761821
0.0761889
0.0762005
0.0762179
0.0762425
0.0762757
0.0763196
0.0763766
0.0764495
0.0765419
0.0766582
0.0768038
0.0769853
0.0772109
0.0774908
0.0778377
0.0782676
0.0788001
0.0794632
0.0802834
0.0762502
0.0762446
0.0762319
0.0762179
0.0762073
0.0761998
0.0761936
0.0761889
0.0761866
0.0761875
0.076192
0.0762009
0.076215
0.0762356
0.076264
0.076302
0.0763517
0.0764157
0.0764972
0.0766001
0.0767292
0.0768905
0.077091
0.0773398
0.0776477
0.0780285
0.078499
0.07908
0.0797995
0.0806832
0.0762636
0.0762557
0.076239
0.0762227
0.0762119
0.0762046
0.0761985
0.0761941
0.0761925
0.0761945
0.0762004
0.0762111
0.0762274
0.0762507
0.0762825
0.0763246
0.0763794
0.0764496
0.0765387
0.0766508
0.0767913
0.0769662
0.0771834
0.0774523
0.0777847
0.0781947
0.0787002
0.0793227
0.08009
0.0810264
0.0762799
0.0762681
0.0762453
0.0762267
0.0762164
0.0762095
0.0762034
0.0761992
0.0761983
0.0762013
0.0762084
0.0762206
0.0762388
0.0762644
0.0762991
0.0763448
0.0764038
0.0764793
0.0765749
0.0766949
0.0768449
0.0770315
0.0772629
0.0775489
0.0779016
0.0783361
0.0788707
0.0795275
0.0803352
0.081316
0.0763005
0.0762816
0.0762499
0.0762288
0.0762191
0.0762123
0.076206
0.076202
0.0762017
0.0762055
0.0762137
0.0762271
0.0762469
0.0762745
0.0763116
0.0763602
0.0764229
0.0765027
0.0766036
0.07673
0.0768879
0.0770841
0.0773269
0.0776267
0.077996
0.07845
0.0790077
0.0796914
0.0805335
0.0815526
0.0763272
0.076296
0.0762546
0.0762335
0.0762245
0.076217
0.0762101
0.0762062
0.0762063
0.0762106
0.0762194
0.0762337
0.0762546
0.0762837
0.0763225
0.0763733
0.0764386
0.0765218
0.0766267
0.076758
0.0769218
0.0771252
0.0773768
0.077687
0.0780687
0.0785372
0.0791113
0.0798137
0.0806837
0.0817451
0.0763639
0.0762963
0.0762482
0.076233
0.0762257
0.0762176
0.0762106
0.076207
0.0762076
0.0762123
0.0762218
0.0762368
0.0762586
0.0762887
0.0763288
0.0763811
0.0764484
0.0765339
0.0766417
0.0767765
0.0769445
0.0771528
0.0774103
0.0777277
0.0781177
0.0785957
0.0791799
0.0798914
0.0807699
0.0818756
0.0764405
0.0763057
0.0762464
0.0762348
0.0762287
0.0762199
0.0762125
0.0762089
0.0762096
0.0762144
0.0762241
0.0762394
0.0762615
0.0762921
0.0763328
0.0763859
0.0764542
0.0765409
0.07665
0.0767869
0.076957
0.0771678
0.0774284
0.0777494
0.0781438
0.0786266
0.079215
0.0799294
0.0807804
0.0817731
0.0689923
0.0680577
0.0675145
0.0673087
0.0670794
0.066743
0.0663594
0.0659741
0.0655951
0.0652185
0.0648421
0.0644644
0.0640827
0.0636925
0.0632882
0.0628634
0.0624101
0.0619177
0.061372
0.0607536
0.0600355
0.0591733
0.0581258
0.056686
0.0550702
0.0515403
0.0498564
0.03548
0.0382009
-0.038396
0.0694819
0.0686142
0.0679949
0.067716
0.067431
0.0670711
0.0666976
0.0663458
0.066009
0.0656758
0.0653431
0.0650103
0.0646754
0.0643347
0.0639842
0.0636193
0.0632339
0.0628201
0.0623672
0.0618608
0.0612798
0.0605931
0.0597548
0.0586533
0.0572965
0.0547332
0.0529279
0.0419931
0.0432294
-0.0213815
0.0691208
0.0685762
0.0681656
0.0679294
0.067679
0.0673694
0.0670521
0.066752
0.0664605
0.0661692
0.0658784
0.0655894
0.0653011
0.0650111
0.0647166
0.0644146
0.064101
0.0637707
0.0634166
0.0630292
0.0625942
0.0620908
0.0614837
0.0607071
0.0597047
0.0579555
0.0563854
0.0484243
0.0487952
-0.00420363
0.0691886
0.068853
0.068567
0.0683188
0.0680589
0.0677768
0.0674986
0.067236
0.0669824
0.0667324
0.0664863
0.0662453
0.0660086
0.0657746
0.0655421
0.0653098
0.0650758
0.0648379
0.064593
0.0643367
0.064062
0.0637583
0.0634045
0.0629666
0.0623803
0.061382
0.0602962
0.0549592
0.0549881
0.0127885
0.0693991
0.0691443
0.0689203
0.0686897
0.0684541
0.0682191
0.067992
0.067775
0.0675652
0.0673608
0.0671629
0.0669729
0.066791
0.0666171
0.0664514
0.0662944
0.0661468
0.0660093
0.0658827
0.0657681
0.0656662
0.0655767
0.0654944
0.0654106
0.0652823
0.0649979
0.0645866
0.0615611
0.0617747
0.0294609
0.0697046
0.0695091
0.0693426
0.0691477
0.068944
0.0687489
0.0685643
0.0683886
0.0682212
0.0680629
0.067915
0.0677788
0.0676555
0.0675462
0.0674527
0.0673773
0.0673231
0.067294
0.067295
0.0673328
0.0674159
0.0675549
0.0677603
0.0680475
0.0684052
0.0688223
0.0692098
0.0682461
0.0690431
0.0457908
0.0700901
0.0699424
0.0698229
0.0696633
0.0694931
0.0693377
0.069197
0.0690664
0.0689458
0.0688371
0.0687425
0.0686638
0.068603
0.0685627
0.0685464
0.0685584
0.0686041
0.0686909
0.0688281
0.069028
0.0693071
0.0696869
0.0701939
0.0708666
0.0717285
0.0728428
0.0741052
0.0749885
0.0766883
0.0616283
0.0705461
0.0704418
0.0703662
0.0702445
0.0701118
0.0699977
0.0699015
0.0698169
0.0697442
0.0696868
0.0696475
0.069629
0.0696342
0.0696671
0.0697327
0.0698373
0.0699891
0.0701985
0.0704794
0.0708499
0.0713343
0.0719651
0.0727845
0.0738531
0.0752299
0.0770371
0.0792116
0.0817554
0.084611
0.0767893
0.0710707
0.0710071
0.0709732
0.0708901
0.0707961
0.0707238
0.0706725
0.0706352
0.0706125
0.0706086
0.0706274
0.0706721
0.0707467
0.0708564
0.071008
0.0712099
0.0714728
0.0718106
0.0722414
0.0727892
0.0734859
0.0743749
0.0755135
0.0769835
0.0788781
0.0813688
0.0844611
0.0884979
0.0926863
0.0910997
0.0716593
0.071635
0.0716412
0.0715974
0.0715435
0.071514
0.0715085
0.0715198
0.0715486
0.0716001
0.0716789
0.071789
0.0719355
0.0721251
0.072366
0.0726687
0.0730466
0.0735168
0.0741018
0.0748313
0.0757447
0.0768954
0.0783555
0.0802264
0.0826333
0.0857894
0.0897791
0.0951531
0.100773
0.1044
0.0723086
0.0723219
0.0723664
0.0723622
0.0723493
0.0723632
0.0724041
0.0724647
0.0725462
0.0726544
0.0727946
0.0729719
0.0731922
0.0734635
0.0737959
0.0742017
0.0746969
0.0753018
0.0760431
0.0769559
0.0780867
0.0794987
0.0812772
0.0835419
0.0864467
0.0902398
0.095084
0.101645
0.108715
0.116548
0.0730117
0.0730611
0.0731422
0.0731775
0.0732064
0.0732641
0.0733516
0.0734619
0.0735967
0.0737622
0.0739646
0.0742097
0.0745047
0.0748586
0.0752832
0.0757927
0.0764056
0.0771452
0.0780422
0.0791366
0.0804819
0.0821498
0.0842379
0.0868817
0.0902608
0.0946513
0.100288
0.107884
0.116348
0.127406
0.0737609
0.0738447
0.0739601
0.0740345
0.0741055
0.0742069
0.0743406
0.0745004
0.0746882
0.0749109
0.0751752
0.0754879
0.0758571
0.076293
0.0768089
0.0774209
0.0781496
0.0790214
0.0800704
0.0813415
0.0828938
0.0848072
0.0871898
0.0901909
0.0940112
0.0989485
0.105297
0.113776
0.123497
0.136812
0.0745457
0.0746618
0.0748091
0.0749218
0.0750345
0.0751791
0.075358
0.0755663
0.0758062
0.0760848
0.0764098
0.0767885
0.07723
0.0777458
0.0783502
0.0790614
0.0799018
0.0809004
0.0820947
0.0835334
0.0852812
0.0874245
0.0900803
0.0934092
0.0976289
0.103052
0.11002
0.119222
0.129994
0.144609
0.0753536
0.0755
0.0756765
0.075826
0.0759794
0.0761659
0.0763884
0.0766433
0.0769333
0.0772658
0.0776489
0.0780907
0.0786012
0.0791929
0.0798814
0.0806861
0.0816315
0.0827488
0.0840781
0.0856719
0.087599
0.0899515
0.0928533
0.0964738
0.101043
0.106882
0.114367
0.124134
0.135714
0.150814
0.0761706
0.076345
0.0765478
0.0767321
0.0769246
0.0771509
0.0774146
0.0777133
0.0780505
0.0784336
0.078871
0.0793718
0.0799464
0.0806084
0.0813743
0.0822649
0.0833061
0.0845311
0.0859823
0.0877149
0.0898012
0.0923373
0.0954526
0.0993221
0.104184
0.110362
0.118254
0.128427
0.140582
0.15565
0.0769816
0.0771814
0.0774076
0.077624
0.0778533
0.0781167
0.0784184
0.0787574
0.0791378
0.0795671
0.0800541
0.0806081
0.0812406
0.0819656
0.0828006
0.0837673
0.0848931
0.0862123
0.0877693
0.0896211
0.0918428
0.0945332
0.0978248
0.101896
0.106988
0.113423
0.121608
0.132034
0.144546
0.159124
0.0777714
0.0779939
0.0782405
0.0784861
0.0787489
0.079046
0.0793818
0.0797568
0.0801756
0.0806458
0.0811763
0.081777
0.0824597
0.083239
0.0841332
0.0851646
0.0863615
0.0877594
0.0894036
0.0913528
0.0936831
0.0964951
0.0999225
0.104144
0.109401
0.116007
0.124366
0.134892
0.147519
0.161132
0.0785252
0.078768
0.079032
0.0793032
0.0795958
0.0799227
0.0802881
0.0806942
0.0811458
0.0816508
0.082218
0.0828577
0.0835819
0.0844059
0.085348
0.0864314
0.0876847
0.089144
0.0908554
0.0928779
0.0952885
0.0981874
0.101708
0.106027
0.111381
0.11807
0.126484
0.136943
0.149381
0.161758
0.0792305
0.0794909
0.0797697
0.0800628
0.080381
0.0807331
0.0811233
0.0815549
0.0820335
0.0825666
0.0831631
0.0838333
0.0845898
0.0854478
0.086426
0.0875476
0.0888416
0.0903442
0.0921016
0.0941728
0.0966339
0.0995844
0.103155
0.107518
0.112901
0.119586
0.127933
0.138153
0.150114
0.161095
0.0798765
0.0801521
0.0804432
0.0807542
0.0810934
0.081466
0.0818759
0.0823274
0.0828266
0.0833808
0.0839988
0.0846911
0.0854702
0.0863513
0.0873533
0.0884992
0.0898179
0.0913454
0.0931275
0.0952222
0.0977046
0.100672
0.10425
0.108604
0.11395
0.120546
0.128713
0.138532
0.14986
0.15906
0.0804572
0.0807458
0.0810468
0.081372
0.0817275
0.0821158
0.0825403
0.083006
0.0835194
0.0840878
0.0847196
0.0854253
0.0862173
0.0871108
0.0881243
0.0892807
0.0906084
0.092143
0.0939291
0.0960237
0.0984995
0.10145
0.104996
0.109294
0.114545
0.120972
0.128863
0.138129
0.148763
0.155526
0.0809673
0.0812667
0.0815758
0.0819117
0.082279
0.0826784
0.0831127
0.0835876
0.0841094
0.0846854
0.0853239
0.086035
0.0868308
0.0877264
0.0887398
0.0898936
0.0912155
0.0927402
0.0945111
0.0965832
0.0990265
0.10193
0.105409
0.109606
0.114707
0.120895
0.12843
0.137009
0.146907
0.1508
0.0814087
0.0817168
0.0820316
0.0823743
0.0827489
0.0831545
0.0835937
0.0840721
0.0845965
0.0851739
0.0858121
0.0865209
0.0873123
0.0882006
0.0892035
0.0903428
0.0916453
0.0931446
0.0948826
0.096912
0.0992993
0.102128
0.105507
0.109564
0.114469
0.120358
0.127475
0.135258
0.14441
0.14529
0.0817834
0.0820982
0.082416
0.0827621
0.0831411
0.0835505
0.0839913
0.0844693
0.0849916
0.0855649
0.0861967
0.0868963
0.0876752
0.0885475
0.0895301
0.090644
0.0919148
0.0933749
0.0950644
0.0970333
0.0993442
0.102076
0.105326
0.109211
0.113882
0.119424
0.126081
0.132965
0.141405
0.138738
0.0821038
0.0824227
0.0827356
0.0830769
0.0834547
0.0838635
0.0843019
0.0847754
0.0852917
0.0858572
0.0864787
0.0871645
0.0879255
0.0887751
0.0897296
0.0908089
0.0920376
0.0934467
0.0950744
0.0969679
0.0991858
0.1018
0.104901
0.108589
0.112998
0.118154
0.124327
0.130204
0.137989
0.131094
0.0823827
0.0827032
0.0830064
0.0833441
0.0837233
0.0841299
0.0845611
0.0850256
0.0855315
0.0860845
0.0866901
0.0873557
0.0880923
0.0889131
0.089833
0.0908706
0.0920487
0.0933972
0.0949525
0.0967585
0.0988698
0.101352
0.104287
0.107757
0.111885
0.116625
0.122305
0.127057
0.13427
0.12266
0.082666
0.0829271
0.0831658
0.0834936
0.0838876
0.084299
0.0847215
0.0851743
0.0856682
0.0862101
0.0868045
0.087451
0.0881612
0.0889487
0.0898281
0.0908172
0.0919361
0.0932157
0.0946898
0.0963989
0.0983935
0.100733
0.10349
0.106731
0.110568
0.114868
0.120075
0.123578
0.130362
0.11371
0.083182
0.0833037
0.0833973
0.0836838
0.0840839
0.0845058
0.0849256
0.0853688
0.0858434
0.0863578
0.08692
0.0875384
0.0882191
0.0889724
0.0898132
0.0907573
0.0918141
0.0930204
0.0944087
0.0960158
0.097888
0.100078
0.102651
0.105653
0.109193
0.113032
0.117792
0.119915
0.126396
0.104468
0.0832589
0.0831434
0.0832312
0.0835981
0.084039
0.0844942
0.0849222
0.085365
0.085843
0.0863532
0.0868973
0.0874879
0.0881303
0.0888349
0.0896147
0.0904844
0.0914713
0.0925965
0.0938894
0.0953853
0.0971268
0.0991607
0.101546
0.104305
0.107567
0.110923
0.115346
0.115933
0.122332
0.0951292
0.0869348
0.0787031
0.0696493
0.0603871
0.0515532
0.0435238
0.0366256
0.0312275
0.0277233
0.0264947
0.0275923
0.0304428
0.0335524
0.0353427
0.0350205
0.0330217
0.0313859
0.0298943
0.0283326
0.0272113
0.0264362
0.0255455
0.0242949
0.0227431
0.0211139
0.0194572
0.0176715
0.0156317
0.0130576
0.00992806
0.118184
0.11238
0.105971
0.0996583
0.0933092
0.0866932
0.0799913
0.0735568
0.0675502
0.0623644
0.0584619
0.0558782
0.0541746
0.0520176
0.0482868
0.0420635
0.0343213
0.0291956
0.0277697
0.0268041
0.0251263
0.023087
0.0217996
0.0210909
0.0203754
0.0194687
0.0182958
0.0170978
0.0157845
0.013782
0.112775
0.109303
0.105272
0.100666
0.0953487
0.0893575
0.0830031
0.0765412
0.070287
0.0647774
0.0603843
0.056858
0.0535827
0.0496666
0.0442673
0.0390191
0.034383
0.0304635
0.0284035
0.026469
0.0241435
0.0234967
0.024619
0.0257527
0.0270449
0.0285318
0.0298833
0.0304677
0.0304098
0.0293412
0.113618
0.111834
0.109456
0.106213
0.102205
0.0975075
0.0922065
0.0864253
0.0803853
0.0744207
0.0688326
0.0637171
0.0589625
0.0543591
0.0497491
0.0454772
0.0411299
0.0361102
0.0325172
0.0302254
0.0284478
0.0287626
0.0308511
0.0341355
0.0387701
0.042602
0.044821
0.0460108
0.04605
0.0452857
0.109661
0.108854
0.107693
0.105826
0.103153
0.0997509
0.0956894
0.0909883
0.0857298
0.0801274
0.0744872
0.0690858
0.0640336
0.0592904
0.0547452
0.0503539
0.0460337
0.0421043
0.0392971
0.0370062
0.0356092
0.0364061
0.0392974
0.0437984
0.0486803
0.0523597
0.0544519
0.0544256
0.0527368
0.0498013
0.106769
0.106655
0.106279
0.10516
0.103232
0.100618
0.0973095
0.0932775
0.0885719
0.0833603
0.0779032
0.0724812
0.0672812
0.0623502
0.0576371
0.0531483
0.0490184
0.0455921
0.0431492
0.0416952
0.0415494
0.0427588
0.0450145
0.0481719
0.0511675
0.0525208
0.0519105
0.0495005
0.0448948
0.0377664
0.103767
0.10404
0.104149
0.103598
0.1024
0.100546
0.0979953
0.094679
0.0905992
0.0858669
0.0806893
0.0753287
0.0700246
0.0649242
0.0600866
0.0555913
0.0516083
0.048378
0.0461233
0.0449945
0.0450469
0.0460877
0.0476099
0.0488419
0.0487743
0.0469832
0.0431608
0.0371694
0.0284442
0.0183332
0.101212
0.101754
0.102209
0.102077
0.10134
0.100029
0.0980722
0.0953628
0.0918588
0.0876186
0.0827967
0.0776248
0.0723606
0.067217
0.0623365
0.0578496
0.0539364
0.0508133
0.0486743
0.0475878
0.0474305
0.0478538
0.0482502
0.0478551
0.0460058
0.042285
0.0363391
0.0282397
0.01776
0.00707751
0.0989693
0.099669
0.100334
0.100487
0.10011
0.0992297
0.0977554
0.0955542
0.0925513
0.0887648
0.0843065
0.0793764
0.0742304
0.0691174
0.0642359
0.0597578
0.0558769
0.0527997
0.0506722
0.0494753
0.0489722
0.0487011
0.0480211
0.0462841
0.0430215
0.0379822
0.0311666
0.0229758
0.0139602
0.00568193
0.0970439
0.0978414
0.0986424
0.0989968
0.098888
0.0983356
0.0972427
0.0954628
0.0928952
0.0895219
0.0854148
0.0807405
0.0757438
0.0706935
0.0658297
0.0613608
0.057493
0.0544146
0.0522192
0.0508133
0.0498789
0.0489021
0.0472813
0.0445066
0.0403047
0.0346965
0.0280392
0.0209988
0.0143781
0.00915365
0.0953855
0.0962395
0.0971237
0.0976158
0.097704
0.0974075
0.0966216
0.0951924
0.0930011
0.09
0.086225
0.0818095
0.0769807
0.0720162
0.0671858
0.0627284
0.0588591
0.0557455
0.0534324
0.0517656
0.0503763
0.0487498
0.0463717
0.0428992
0.0382832
0.0328023
0.0270491
0.0218015
0.0178824
0.0158128
0.0939544
0.0948403
0.0957755
0.0963642
0.0966004
0.0964999
0.0959588
0.0948186
0.0929481
0.0902762
0.0868071
0.0826426
0.0779892
0.0731244
0.0683379
0.0638917
0.0600072
0.0568324
0.0543719
0.0524275
0.0506109
0.0484465
0.0455357
0.0417161
0.0371494
0.0322988
0.0278545
0.0245171
0.0228809
0.0229963
0.0927127
0.093615
0.0945804
0.0952369
0.0955835
0.0956354
0.0952909
0.0943904
0.0927939
0.0904114
0.0872205
0.0832934
0.0788141
0.0740543
0.0693158
0.0648775
0.0609654
0.0577114
0.0550892
0.0528748
0.0506871
0.0481167
0.0448958
0.0410313
0.0368461
0.0328964
0.0298274
0.0281276
0.0281351
0.0293927
0.0916285
0.0925375
0.0935207
0.0942261
0.0946566
0.0948281
0.0946424
0.093941
0.0925783
0.0904498
0.08751
0.083804
0.0794929
0.0748384
0.0701481
0.0657135
0.0617644
0.0584207
0.0556348
0.0531735
0.0506836
0.0478385
0.0445007
0.0408192
0.0372156
0.0342376
0.0324139
0.0319974
0.0330782
0.03486
0.0906754
0.0915844
0.0925779
0.0933201
0.0938161
0.0940831
0.0940266
0.0934915
0.0923289
0.090423
0.0877086
0.0842064
0.0800546
0.0755024
0.0708585
0.0664231
0.0624302
0.0589919
0.0560489
0.0533724
0.0506527
0.047653
0.0443545
0.0410124
0.0380784
0.0360347
0.0352601
0.0357758
0.0375004
0.0394607
0.0898314
0.0907347
0.0917345
0.0925062
0.0930554
0.0934003
0.0934508
0.0930557
0.0920653
0.0903546
0.0878419
0.084526
0.080523
0.0760676
0.0714662
0.0670253
0.0629836
0.05945
0.0563617
0.0535059
0.0506262
0.0475754
0.0444352
0.0415232
0.039272
0.0380705
0.0381299
0.0392785
0.041343
0.0432701
0.089073
0.0899718
0.0909754
0.0917721
0.0923667
0.0927775
0.0929178
0.092642
0.0918007
0.0902619
0.0879297
0.0847831
0.0809173
0.0765517
0.0719877
0.0675363
0.0634419
0.0598151
0.0565963
0.0535979
0.0506216
0.0476049
0.0447071
0.0422647
0.0406665
0.0401867
0.0408742
0.0424201
0.0446128
0.0463841
0.0883876
0.0892811
0.0902875
0.0911063
0.0917414
0.09221
0.092428
0.0922554
0.0915445
0.0901578
0.0879871
0.0849938
0.0812534
0.0769694
0.0724368
0.0679693
0.0638194
0.0601034
0.0567704
0.0536641
0.0506469
0.0477316
0.045127
0.0431633
0.0421612
0.0422733
0.0434076
0.0451723
0.0473482
0.0489055
0.0877618
0.0886511
0.0896592
0.0904981
0.0911713
0.0916925
0.0919795
0.0918982
0.0913028
0.0900518
0.0880261
0.0851713
0.0815443
0.0773332
0.0728249
0.0683354
0.0641277
0.0603275
0.0568964
0.0537143
0.0507032
0.0479394
0.0456556
0.0441559
0.0436768
0.0442549
0.0456855
0.047539
0.0496005
0.0509261
0.0871843
0.0880711
0.0890806
0.0899384
0.0906484
0.0912194
0.0915697
0.0915709
0.0910798
0.0899509
0.0880559
0.0853259
0.0818007
0.0776531
0.0731613
0.0686435
0.0643761
0.0604974
0.0569836
0.0537543
0.050788
0.0482101
0.0462582
0.0451909
0.0451536
0.0460818
0.047688
0.0495401
0.0514256
0.0525286
0.0866473
0.0875327
0.0885428
0.0894187
0.0901654
0.090785
0.0911951
0.0912727
0.0908775
0.0898602
0.0880838
0.0854663
0.0820314
0.0779378
0.0734542
0.0689008
0.0645716
0.0606203
0.0570376
0.053786
0.0508948
0.0485252
0.0469026
0.0462253
0.0465498
0.0477277
0.0494128
0.0511999
0.052878
0.0537912
0.0861443
0.0870297
0.0880382
0.0889317
0.0897156
0.0903834
0.0908514
0.091002
0.0906968
0.089783
0.0881154
0.0855993
0.0822437
0.0781945
0.0737103
0.0691138
0.0647212
0.0607032
0.0570635
0.0538121
0.0510201
0.0488712
0.0475621
0.0472222
0.047831
0.0491788
0.0508777
0.0525581
0.0540118
0.0547842
0.0856774
0.086557
0.0875597
0.0884712
0.0892933
0.0900093
0.0905348
0.0907565
0.0905375
0.0897215
0.0881553
0.0857312
0.0824441
0.0784289
0.0739339
0.0692842
0.0648259
0.0607477
0.0570602
0.0538239
0.0511443
0.0492283
0.0482133
0.0481551
0.0489695
0.0504133
0.0520887
0.0536636
0.0549084
0.0555877
0.0852548
0.086111
0.0870996
0.0880299
0.0888925
0.0896575
0.090241
0.090534
0.0903994
0.0896769
0.0882061
0.0858666
0.0826391
0.0786495
0.0741351
0.069424
0.064898
0.0607642
0.0570412
0.0538476
0.0512894
0.0495956
0.0488387
0.0490092
0.0499717
0.0514484
0.0530473
0.0545139
0.0556164
0.0562997
0.084861
0.0856962
0.0866613
0.0876043
0.0885078
0.0893226
0.0899647
0.0903312
0.0902823
0.089652
0.0882715
0.0860072
0.0828267
0.0788494
0.074301
0.0695147
0.0649207
0.0607346
0.0569597
0.0537757
0.0514061
0.0499386
0.0494045
0.0497465
0.0508247
0.0523438
0.0538733
0.0551994
0.0561489
0.0569412
0.084507
0.0853199
0.0862444
0.0871946
0.0881366
0.0890009
0.0897022
0.090143
0.0901807
0.0896448
0.0883575
0.0861679
0.083031
0.0790643
0.0744778
0.0696039
0.0649399
0.0607252
0.0569282
0.0537978
0.0515539
0.050277
0.0499075
0.0503388
0.0514465
0.0529899
0.0545587
0.0558856
0.0567615
0.0576759
0.0841906
0.0849622
0.0858458
0.086802
0.0877761
0.0886881
0.08945
0.0899706
0.0900997
0.0896529
0.0884513
0.0863232
0.0832033
0.0792217
0.0745716
0.0696071
0.0648536
0.0605758
0.056742
0.0537248
0.051647
0.0505701
0.0503463
0.0508583
0.0519642
0.0534052
0.0548598
0.0561211
0.0571336
0.0584725
0.0839112
0.0846163
0.0854608
0.0864269
0.0874282
0.0883797
0.0891953
0.0897706
0.090015
0.0896753
0.0885772
0.0865346
0.0834748
0.079474
0.0747412
0.0696741
0.0648956
0.0605805
0.0567088
0.0536951
0.0517579
0.0508458
0.0506911
0.0512682
0.0525582
0.0542221
0.0557061
0.0567933
0.0577929
0.059254
0.0837112
0.0842828
0.0850788
0.0860676
0.0871289
0.0881506
0.089045
0.089709
0.0899917
0.0897321
0.088702
0.0866852
0.0836028
0.0795309
0.0746927
0.0694861
0.0646959
0.0604256
0.0565428
0.0536284
0.0518546
0.0510052
0.0508316
0.0512344
0.0523491
0.0540419
0.0556487
0.0569667
0.0583276
0.0600408
0.0836208
0.0839925
0.0846475
0.0855447
0.0865907
0.0876551
0.0886201
0.0894026
0.089854
0.0897798
0.0889158
0.0870521
0.0840606
0.0799171
0.0749531
0.0696058
0.0645958
0.0600422
0.0562031
0.0534086
0.0518449
0.0511737
0.0511629
0.0517269
0.0531445
0.0549637
0.0565671
0.0578708
0.0591719
0.0604794
-0.125204
-0.109001
-0.0671178
-0.0154791
0.00309275
0.0261527
0.0340121
0.0424292
0.0463735
0.0491952
0.0506973
0.0514889
0.0518327
0.0519364
0.051937
0.0519234
0.0519472
0.0520325
0.052188
0.0524063
0.0526915
0.0530043
0.05339
0.0537434
0.0542222
0.0546461
0.0553132
0.0558877
0.0570251
0.0558703
-0.126545
-0.116112
-0.0741363
-0.020501
0.00217084
0.0246187
0.0341705
0.0424634
0.0471152
0.0500572
0.0517066
0.0525422
0.0528695
0.0529066
0.0528054
0.0526686
0.0525582
0.0525107
0.0525432
0.0526501
0.0528395
0.0530701
0.0533727
0.0536762
0.0540496
0.0543654
0.0547809
0.0549978
0.0555566
0.0551141
-0.127269
-0.121238
-0.0839066
-0.0273074
-6.16664e-05
0.0219092
0.033526
0.0421374
0.0475947
0.050909
0.052799
0.0537417
0.0540774
0.0540502
0.0538343
0.0535509
0.0532805
0.0530733
0.0529571
0.0529349
0.0530087
0.0531562
0.0533773
0.0536345
0.0539363
0.0542222
0.0545482
0.054781
0.0551918
0.0554093
-0.127542
-0.123485
-0.0928028
-0.0330247
-0.0016888
0.020403
0.0335268
0.0425962
0.0485597
0.052178
0.0542019
0.0551583
0.0554269
0.0552808
0.0549163
0.0544701
0.0540361
0.0536761
0.0534253
0.0532929
0.0532774
0.0533624
0.0535362
0.0537752
0.0540714
0.0543942
0.0547608
0.0551145
0.0555354
0.0558709
-0.128137
-0.123021
-0.100417
-0.0386726
-0.00337878
0.0194838
0.0337272
0.0433159
0.0496752
0.053589
0.0557594
0.0567385
0.0569403
0.0566683
0.0561431
0.0555182
0.0549004
0.0543647
0.0539561
0.0536908
0.053568
0.0535731
0.0536888
0.0538929
0.0541686
0.0544917
0.0548562
0.05523
0.055629
0.055981
-0.129732
-0.123626
-0.10824
-0.0458947
-0.00621279
0.018191
0.0335778
0.0438318
0.0506581
0.0549461
0.0573558
0.058434
0.0586186
0.0582424
0.0575549
0.0567308
0.0558954
0.0551433
0.0545349
0.0540969
0.0538328
0.053729
0.0537641
0.0539125
0.0541499
0.0544511
0.054799
0.0551715
0.0555687
0.0559528
-0.131974
-0.128586
-0.11754
-0.0551319
-0.0104794
0.0162379
0.0330027
0.0440875
0.0514697
0.0561957
0.058919
0.0601654
0.0603799
0.0599255
0.0590877
0.0580618
0.0569897
0.0559893
0.0551429
0.0544949
0.0540587
0.053823
0.0537628
0.053849
0.0540508
0.0543385
0.0546878
0.0550761
0.055494
0.0559029
-0.134425
-0.136576
-0.127445
-0.0654051
-0.0159276
0.0135851
0.032012
0.0440787
0.0520869
0.0572814
0.0603483
0.0618123
0.062121
0.0616392
0.060675
0.0594498
0.0581288
0.0568566
0.0557425
0.0548525
0.0542146
0.053821
0.0536468
0.053662
0.0538284
0.0541083
0.0544688
0.0548814
0.0553314
0.0557715
-0.136734
-0.144986
-0.136818
-0.075933
-0.022541
0.0100813
0.0304486
0.043666
0.0523889
0.0580928
0.0615307
0.0632262
0.0636319
0.0631601
0.0621345
0.0607674
0.059218
0.0576425
0.0561991
0.0550153
0.0541487
0.0535851
0.0532896
0.0532351
0.0533743
0.053658
0.0540432
0.0544937
0.0549911
0.055481
-0.138677
-0.152445
-0.145052
-0.0867775
-0.030181
0.00546466
0.0279958
0.0425618
0.0521517
0.0584783
0.0623706