/*--------------------------------*- C++ -*----------------------------------*\
  =========                 |
  \\      /  F ield         | OpenFOAM: The Open Source CFD Toolbox
   \\    /   O peration     | Website:  https://openfoam.org
    \\  /    A nd           | Version:  11
     \\/     M anipulation  |
\*---------------------------------------------------------------------------*/
FoamFile
{
    format      ascii;
    class       surfaceScalarField;
    location    "3";
    object      phi;
}
// * * * * * * * * * * * * * * * * * * * * * * * * * * * * * * * * * * * * * //

dimensions      [0 3 -1 0 0 0 0];

internalField   nonuniform List<scalar> 
24840
(
1.57973e-05
1.36432e-08
1.57788e-05
1.8549e-08
1.57615e-05
1.73082e-08
1.57443e-05
1.71743e-08
1.57268e-05
1.74854e-08
1.57092e-05
1.75777e-08
1.56917e-05
1.75175e-08
1.56743e-05
1.73988e-08
1.56571e-05
1.72233e-08
1.56401e-05
1.69795e-08
1.56234e-05
1.66637e-08
1.56072e-05
1.62685e-08
1.55914e-05
1.57817e-08
1.55762e-05
1.51879e-08
1.55617e-05
1.44625e-08
1.55482e-05
1.35624e-08
1.55357e-05
1.24543e-08
1.55246e-05
1.11226e-08
1.55151e-05
9.48481e-09
1.55077e-05
7.38354e-09
1.55029e-05
4.82201e-09
1.55012e-05
1.70885e-09
1.55034e-05
-2.15589e-09
1.55103e-05
-6.93287e-09
1.55232e-05
-1.29131e-08
1.55435e-05
-2.03e-08
1.55734e-05
-2.99327e-08
1.5616e-05
-4.26068e-08
1.568e-05
-6.39364e-08
-1.37509e-07
1.58175e-05
1.5817e-05
7.59312e-09
1.58208e-05
1.47821e-08
1.58235e-05
1.45972e-08
1.58258e-05
1.49126e-08
1.58278e-05
1.53992e-08
1.58299e-05
1.55621e-08
1.58319e-05
1.54559e-08
1.58341e-05
1.52312e-08
1.58364e-05
1.48838e-08
1.5839e-05
1.44015e-08
1.58419e-05
1.37824e-08
1.58451e-05
1.30102e-08
1.58489e-05
1.20627e-08
1.58531e-05
1.09124e-08
1.58581e-05
9.51659e-09
1.58639e-05
7.7818e-09
1.58707e-05
5.64543e-09
1.58787e-05
3.07677e-09
1.58883e-05
-5.00524e-11
1.58997e-05
-4.06592e-09
1.59135e-05
-8.92999e-09
1.593e-05
-1.48702e-08
1.59501e-05
-2.21874e-08
1.59743e-05
-3.12079e-08
1.60037e-05
-4.23052e-08
1.60396e-05
-5.61833e-08
1.60827e-05
-7.30299e-08
1.61372e-05
-9.70961e-08
1.61947e-05
-1.21471e-07
-1.56481e-07
1.62137e-05
1.58137e-05
4.90429e-09
1.58171e-05
1.13524e-08
1.58193e-05
1.24115e-08
1.58215e-05
1.26655e-08
1.58238e-05
1.31615e-08
1.58258e-05
1.34721e-08
1.58279e-05
1.33571e-08
1.58301e-05
1.30532e-08
1.58325e-05
1.25533e-08
1.5835e-05
1.1847e-08
1.58379e-05
1.09318e-08
1.58411e-05
9.78227e-09
1.58448e-05
8.37729e-09
1.5849e-05
6.68889e-09
1.58538e-05
4.68343e-09
1.58594e-05
2.19671e-09
1.58659e-05
-8.79522e-10
1.58735e-05
-4.53443e-09
1.58826e-05
-9.10033e-09
1.58933e-05
-1.48162e-08
1.59062e-05
-2.18287e-08
1.59218e-05
-3.04356e-08
1.59406e-05
-4.10226e-08
1.59635e-05
-5.40508e-08
1.59912e-05
-7.00598e-08
1.60249e-05
-8.98712e-08
1.60661e-05
-1.14152e-07
1.61136e-05
-1.44651e-07
1.61729e-05
-1.80747e-07
-2.12387e-07
1.62288e-05
1.58125e-05
3.33049e-09
1.58154e-05
8.52055e-09
1.58175e-05
1.0274e-08
1.58195e-05
1.06871e-08
1.58215e-05
1.11006e-08
1.58236e-05
1.14297e-08
1.58256e-05
1.1322e-08
1.58277e-05
1.09374e-08
1.583e-05
1.02815e-08
1.58325e-05
9.35282e-09
1.58353e-05
8.15259e-09
1.58384e-05
6.63856e-09
1.5842e-05
4.79027e-09
1.58461e-05
2.56875e-09
1.58508e-05
-2.72166e-12
1.58563e-05
-3.23832e-09
1.58625e-05
-7.1682e-09
1.587e-05
-1.19399e-08
1.58787e-05
-1.78651e-08
1.58891e-05
-2.52329e-08
1.59016e-05
-3.43154e-08
1.59167e-05
-4.54871e-08
1.59349e-05
-5.92174e-08
1.59569e-05
-7.60882e-08
1.59836e-05
-9.68011e-08
1.60161e-05
-1.22276e-07
1.60554e-05
-1.53474e-07
1.61021e-05
-1.91366e-07
1.61594e-05
-2.38068e-07
-2.79272e-07
1.62263e-05
1.58119e-05
2.34888e-09
1.58141e-05
6.38683e-09
1.58161e-05
8.30407e-09
1.58179e-05
8.87088e-09
1.58198e-05
9.2108e-09
1.58217e-05
9.45507e-09
1.58237e-05
9.34207e-09
1.58258e-05
8.87102e-09
1.5828e-05
8.06284e-09
1.58304e-05
6.91968e-09
1.58331e-05
5.43875e-09
1.58362e-05
3.58336e-09
1.58397e-05
1.32773e-09
1.58436e-05
-1.39946e-09
1.58482e-05
-4.56213e-09
1.58534e-05
-8.46839e-09
1.58595e-05
-1.3229e-08
1.58666e-05
-1.90609e-08
1.5875e-05
-2.62794e-08
1.5885e-05
-3.52266e-08
1.5897e-05
-4.62691e-08
1.59113e-05
-5.98645e-08
1.59287e-05
-7.65744e-08
1.59497e-05
-9.70938e-08
1.59752e-05
-1.22273e-07
1.6006e-05
-1.5315e-07
1.60435e-05
-1.90956e-07
1.60887e-05
-2.36567e-07
1.61438e-05
-2.93164e-07
-3.47951e-07
1.62125e-05
1.58116e-05
1.68923e-09
1.58133e-05
4.75604e-09
1.5815e-05
6.51785e-09
1.58168e-05
7.15534e-09
1.58185e-05
7.43085e-09
1.58204e-05
7.57596e-09
1.58223e-05
7.41609e-09
1.58244e-05
6.85953e-09
1.58265e-05
5.90857e-09
1.58289e-05
4.56317e-09
1.58315e-05
2.80835e-09
1.58345e-05
6.27986e-10
1.58378e-05
-2.00753e-09
1.58416e-05
-5.18224e-09
1.58459e-05
-8.9208e-09
1.58509e-05
-1.34663e-08
1.58567e-05
-1.90112e-08
1.58635e-05
-2.58226e-08
1.58714e-05
-3.42445e-08
1.58809e-05
-4.46738e-08
1.58922e-05
-5.7556e-08
1.59057e-05
-7.34241e-08
1.59221e-05
-9.29266e-08
1.59419e-05
-1.16864e-07
1.59658e-05
-1.46228e-07
1.59949e-05
-1.82204e-07
1.60302e-05
-2.26277e-07
1.60732e-05
-2.79552e-07
1.61257e-05
-3.45718e-07
-4.14857e-07
1.61926e-05
1.58114e-05
1.20876e-09
1.58127e-05
3.47466e-09
1.58143e-05
4.93902e-09
1.58159e-05
5.55206e-09
1.58176e-05
5.76664e-09
1.58193e-05
5.80952e-09
1.58212e-05
5.57062e-09
1.58231e-05
4.92304e-09
1.58252e-05
3.83391e-09
1.58275e-05
2.29562e-09
1.583e-05
2.91214e-10
1.58328e-05
-2.19799e-09
1.5836e-05
-5.19555e-09
1.58396e-05
-8.78286e-09
1.58437e-05
-1.30414e-08
1.58484e-05
-1.81827e-08
1.58539e-05
-2.44543e-08
1.58602e-05
-3.21674e-08
1.58677e-05
-4.17029e-08
1.58765e-05
-5.35047e-08
1.5887e-05
-6.80815e-08
1.58996e-05
-8.60374e-08
1.59148e-05
-1.08106e-07
1.59332e-05
-1.35189e-07
1.59553e-05
-1.68413e-07
1.59823e-05
-2.0913e-07
1.60151e-05
-2.59064e-07
1.60552e-05
-3.19718e-07
1.61045e-05
-3.94998e-07
-4.78183e-07
1.61678e-05
1.58113e-05
8.36386e-10
1.58124e-05
2.43969e-09
1.58138e-05
3.55609e-09
1.58152e-05
4.06493e-09
1.58168e-05
4.20311e-09
1.58185e-05
4.14085e-09
1.58202e-05
3.80497e-09
1.58221e-05
3.05962e-09
1.58241e-05
1.83814e-09
1.58263e-05
1.1881e-10
1.58287e-05
-2.11345e-09
1.58314e-05
-4.88137e-09
1.58344e-05
-8.21005e-09
1.58378e-05
-1.21767e-08
1.58416e-05
-1.68987e-08
1.5846e-05
-2.2586e-08
1.58511e-05
-2.9519e-08
1.5857e-05
-3.80456e-08
1.58639e-05
-4.85851e-08
1.5872e-05
-6.1626e-08
1.58816e-05
-7.77327e-08
1.58932e-05
-9.75733e-08
1.5907e-05
-1.21957e-07
1.59237e-05
-1.51883e-07
1.59439e-05
-1.886e-07
1.59684e-05
-2.33632e-07
1.59983e-05
-2.88935e-07
1.6035e-05
-3.56463e-07
1.60803e-05
-4.40235e-07
-5.36746e-07
1.61388e-05
1.58113e-05
5.3464e-10
1.58121e-05
1.58042e-09
1.58133e-05
2.34136e-09
1.58147e-05
2.69135e-09
1.58162e-05
2.73208e-09
1.58178e-05
2.56442e-09
1.58194e-05
2.1257e-09
1.58212e-05
1.27915e-09
1.58231e-05
-6.68e-11
1.58252e-05
-1.95044e-09
1.58275e-05
-4.38993e-09
1.583e-05
-7.40561e-09
1.58328e-05
-1.10292e-08
1.5836e-05
-1.53375e-08
1.58395e-05
-2.04675e-08
1.58436e-05
-2.664e-08
1.58482e-05
-3.4159e-08
1.58536e-05
-4.34048e-08
1.58598e-05
-5.48315e-08
1.58672e-05
-6.89671e-08
1.58759e-05
-8.64232e-08
1.58862e-05
-1.07923e-07
1.58986e-05
-1.34344e-07
1.59135e-05
-1.6677e-07
1.59315e-05
-2.06566e-07
1.59533e-05
-2.5542e-07
1.59798e-05
-3.15503e-07
1.60126e-05
-3.89229e-07
1.6053e-05
-4.80674e-07
-5.895e-07
1.61058e-05
1.58112e-05
2.80898e-10
1.5812e-05
8.48521e-10
1.5813e-05
1.26621e-09
1.58143e-05
1.42584e-09
1.58157e-05
1.34994e-09
1.58172e-05
1.07591e-09
1.58188e-05
5.33474e-10
1.58204e-05
-4.14575e-10
1.58223e-05
-1.87715e-09
1.58242e-05
-3.9077e-09
1.58264e-05
-6.52938e-09
1.58287e-05
-9.76179e-09
1.58313e-05
-1.36408e-08
1.58342e-05
-1.82464e-08
1.58375e-05
-2.37274e-08
1.58412e-05
-3.03179e-08
1.58454e-05
-3.83417e-08
1.58502e-05
-4.82049e-08
1.58557e-05
-6.03915e-08
1.58622e-05
-7.54634e-08
1.58699e-05
-9.4072e-08
1.58789e-05
-1.16987e-07
1.58897e-05
-1.45142e-07
1.59026e-05
-1.79697e-07
1.59182e-05
-2.22115e-07
1.5937e-05
-2.74232e-07
1.59599e-05
-3.38415e-07
1.59882e-05
-4.17498e-07
1.60231e-05
-5.15609e-07
-6.35424e-07
1.60691e-05
1.58112e-05
6.04405e-11
1.58118e-05
2.10345e-10
1.58128e-05
3.05303e-10
1.5814e-05
2.60102e-10
1.58152e-05
5.29734e-11
1.58167e-05
-3.29345e-10
1.58182e-05
-9.73422e-10
1.58198e-05
-2.01977e-09
1.58215e-05
-3.58863e-09
1.58233e-05
-5.74681e-09
1.58253e-05
-8.52336e-09
1.58275e-05
-1.19387e-08
1.58299e-05
-1.60311e-08
1.58325e-05
-2.08847e-08
1.58354e-05
-2.66568e-08
1.58387e-05
-3.35937e-08
1.58424e-05
-4.20348e-08
1.58466e-05
-5.24072e-08
1.58514e-05
-6.5219e-08
1.5857e-05
-8.10595e-08
1.58636e-05
-1.00611e-07
1.58713e-05
-1.24681e-07
1.58804e-05
-1.54249e-07
1.58912e-05
-1.90532e-07
1.59042e-05
-2.35076e-07
1.59198e-05
-2.89838e-07
1.59387e-05
-3.57351e-07
1.5962e-05
-4.40814e-07
1.59908e-05
-5.44385e-07
-6.73515e-07
1.60289e-05
1.58112e-05
-1.35503e-10
1.58117e-05
-3.56918e-10
1.58126e-05
-5.63815e-10
1.58137e-05
-8.17532e-10
1.58149e-05
-1.16417e-09
1.58162e-05
-1.65572e-09
1.58176e-05
-2.39753e-09
1.58192e-05
-3.5355e-09
1.58208e-05
-5.19813e-09
1.58225e-05
-7.46304e-09
1.58243e-05
-1.03656e-08
1.58263e-05
-1.39279e-08
1.58285e-05
-1.81898e-08
1.58308e-05
-2.32393e-08
1.58334e-05
-2.92402e-08
1.58363e-05
-3.6448e-08
1.58394e-05
-4.52147e-08
1.5843e-05
-5.59829e-08
1.58471e-05
-6.92787e-08
1.58517e-05
-8.57118e-08
1.58571e-05
-1.05988e-07
1.58634e-05
-1.3094e-07
1.58707e-05
-1.6158e-07
1.58793e-05
-1.99168e-07
1.58896e-05
-2.4531e-07
1.59018e-05
-3.02052e-07
1.59165e-05
-3.7205e-07
1.59345e-05
-4.58792e-07
1.59565e-05
-5.66441e-07
-7.02857e-07
1.59859e-05
1.58111e-05
-3.11812e-10
1.58117e-05
-8.7004e-10
1.58125e-05
-1.35993e-09
1.58135e-05
-1.82002e-09
1.58146e-05
-2.30892e-09
1.58159e-05
-2.90821e-09
1.58172e-05
-3.74205e-09
1.58186e-05
-4.96254e-09
1.58201e-05
-6.70418e-09
1.58217e-05
-9.05304e-09
1.58234e-05
-1.20509e-08
1.58252e-05
-1.57225e-08
1.58271e-05
-2.01087e-08
1.58292e-05
-2.53001e-08
1.58314e-05
-3.1465e-08
1.58338e-05
-3.88658e-08
1.58365e-05
-4.78629e-08
1.58394e-05
-5.89093e-08
1.58427e-05
-7.2543e-08
1.58463e-05
-8.93866e-08
1.58505e-05
-1.1016e-07
1.58553e-05
-1.35712e-07
1.58608e-05
-1.67073e-07
1.58671e-05
-2.05528e-07
1.58745e-05
-2.52715e-07
1.58832e-05
-3.10735e-07
1.58935e-05
-3.82314e-07
1.59058e-05
-4.71135e-07
1.59207e-05
-5.81326e-07
-7.22658e-07
1.59405e-05
1.58111e-05
-4.73029e-10
1.58116e-05
-1.34198e-09
1.58123e-05
-2.09807e-09
1.58133e-05
-2.7593e-09
1.58144e-05
-3.38971e-09
1.58155e-05
-4.09305e-09
1.58168e-05
-5.01094e-09
1.58182e-05
-6.30227e-09
1.58196e-05
-8.10604e-09
1.5821e-05
-1.05149e-08
1.58225e-05
-1.35766e-08
1.58241e-05
-1.73185e-08
1.58258e-05
-2.17823e-08
1.58276e-05
-2.70601e-08
1.58294e-05
-3.33228e-08
1.58314e-05
-4.08367e-08
1.58335e-05
-4.99667e-08
1.58358e-05
-6.11711e-08
1.58382e-05
-7.49936e-08
1.58409e-05
-9.20622e-08
1.58438e-05
-1.13102e-07
1.58471e-05
-1.38967e-07
1.58507e-05
-1.70691e-07
1.58547e-05
-2.09564e-07
1.58593e-05
-2.5723e-07
1.58643e-05
-3.15803e-07
1.587e-05
-3.88023e-07
1.58766e-05
-4.77658e-07
1.5884e-05
-5.88742e-07
-7.3235e-07
1.58937e-05
1.58111e-05
-6.23308e-10
1.58116e-05
-1.78405e-09
1.58123e-05
-2.79247e-09
1.58131e-05
-3.64727e-09
1.58142e-05
-4.41483e-09
1.58153e-05
-5.21621e-09
1.58165e-05
-6.20842e-09
1.58177e-05
-7.55701e-09
1.5819e-05
-9.40455e-09
1.58204e-05
-1.18488e-08
1.58217e-05
-1.49422e-08
1.58231e-05
-1.87145e-08
1.58246e-05
-2.32081e-08
1.5826e-05
-2.85156e-08
1.58275e-05
-3.48088e-08
1.5829e-05
-4.23549e-08
1.58306e-05
-5.15193e-08
1.58322e-05
-6.27604e-08
1.58338e-05
-7.66212e-08
1.58355e-05
-9.37281e-08
1.58372e-05
-1.14803e-07
1.58389e-05
-1.40692e-07
1.58406e-05
-1.7242e-07
1.58423e-05
-2.11261e-07
1.58439e-05
-2.58837e-07
1.58453e-05
-3.17232e-07
1.58465e-05
-3.8914e-07
1.58471e-05
-4.78295e-07
1.58469e-05
-5.88569e-07
-7.31632e-07
1.58462e-05
1.58111e-05
-7.66631e-10
1.58115e-05
-2.20683e-09
1.58122e-05
-3.45695e-09
1.5813e-05
-4.49624e-09
1.5814e-05
-5.39265e-09
1.58151e-05
-6.28319e-09
1.58162e-05
-7.33899e-09
1.58174e-05
-8.73084e-09
1.58186e-05
-1.06031e-08
1.58198e-05
-1.30569e-08
1.5821e-05
-1.6149e-08
1.58222e-05
-1.9911e-08
1.58234e-05
-2.43858e-08
1.58245e-05
-2.96658e-08
1.58256e-05
-3.59219e-08
1.58267e-05
-4.34192e-08
1.58277e-05
-5.25197e-08
1.58286e-05
-6.36767e-08
1.58294e-05
-7.74265e-08
1.58301e-05
-9.43863e-08
1.58306e-05
-1.15265e-07
1.58308e-05
-1.40893e-07
1.58306e-05
-1.72269e-07
1.583e-05
-2.10634e-07
1.58287e-05
-2.57558e-07
1.58265e-05
-3.15057e-07
1.58231e-05
-3.85716e-07
1.58179e-05
-4.73116e-07
1.58102e-05
-5.80885e-07
-7.20546e-07
1.57991e-05
1.58111e-05
-9.07009e-10
1.58115e-05
-2.6212e-09
1.58122e-05
-4.10558e-09
1.5813e-05
-5.31872e-09
1.58139e-05
-6.33212e-09
1.58149e-05
-7.30076e-09
1.5816e-05
-8.40872e-09
1.58171e-05
-9.82906e-09
1.58182e-05
-1.17057e-08
1.58193e-05
-1.41424e-08
1.58204e-05
-1.71993e-08
1.58214e-05
-2.09101e-08
1.58223e-05
-2.53177e-08
1.58231e-05
-3.05132e-08
1.58239e-05
-3.66651e-08
1.58245e-05
-4.40336e-08
1.58249e-05
-5.29733e-08
1.58252e-05
-6.39273e-08
1.58252e-05
-7.74191e-08
1.58249e-05
-9.40498e-08
1.58241e-05
-1.14507e-07
1.58228e-05
-1.39594e-07
1.58208e-05
-1.70273e-07
1.58179e-05
-2.0773e-07
1.58138e-05
-2.53462e-07
1.58081e-05
-3.09374e-07
1.58003e-05
-3.77888e-07
1.57895e-05
-4.6232e-07
1.57746e-05
-5.65978e-07
-6.99498e-07
1.57535e-05
1.58111e-05
-1.04884e-09
1.58115e-05
-3.03918e-09
1.58122e-05
-4.75355e-09
1.5813e-05
-6.12812e-09
1.58139e-05
-7.2433e-09
1.58149e-05
-8.27698e-09
1.58159e-05
-9.42456e-09
1.58169e-05
-1.08572e-08
1.58179e-05
-1.27167e-08
1.58189e-05
-1.51089e-08
1.58198e-05
-1.80971e-08
1.58206e-05
-2.17162e-08
1.58213e-05
-2.60087e-08
1.58218e-05
-3.1064e-08
1.58222e-05
-3.7046e-08
1.58224e-05
-4.42074e-08
1.58223e-05
-5.28914e-08
1.58219e-05
-6.35265e-08
1.58211e-05
-7.66175e-08
1.58198e-05
-9.27425e-08
1.58179e-05
-1.12561e-07
1.58151e-05
-1.36838e-07
1.58113e-05
-1.66487e-07
1.58062e-05
-2.02626e-07
1.57994e-05
-2.46654e-07
1.57904e-05
-3.00334e-07
1.57783e-05
-3.65876e-07
1.57623e-05
-4.46238e-07
1.57406e-05
-5.44336e-07
-6.69268e-07
1.57104e-05
1.58111e-05
-1.19739e-09
1.58116e-05
-3.47524e-09
1.58122e-05
-5.41832e-09
1.5813e-05
-6.93871e-09
1.58139e-05
-8.13639e-09
1.58149e-05
-9.22014e-09
1.58158e-05
-1.03938e-08
1.58168e-05
-1.18216e-08
1.58177e-05
-1.36413e-08
1.58186e-05
-1.59615e-08
1.58193e-05
-1.88479e-08
1.58199e-05
-2.23358e-08
1.58204e-05
-2.64666e-08
1.58207e-05
-3.13271e-08
1.58207e-05
-3.70756e-08
1.58204e-05
-4.39541e-08
1.58198e-05
-5.22912e-08
1.58188e-05
-6.24957e-08
1.58172e-05
-7.50485e-08
1.5815e-05
-9.04987e-08
1.58119e-05
-1.0947e-07
1.58078e-05
-1.32682e-07
1.58023e-05
-1.60988e-07
1.57951e-05
-1.95426e-07
1.57857e-05
-2.37278e-07
1.57735e-05
-2.88139e-07
1.57576e-05
-3.49972e-07
1.57366e-05
-4.25307e-07
1.57089e-05
-5.16622e-07
-6.30971e-07
1.56706e-05
1.58111e-05
-1.35954e-09
1.58116e-05
-3.9479e-09
1.58123e-05
-6.12047e-09
1.58131e-05
-7.76525e-09
1.5814e-05
-9.02143e-09
1.58149e-05
-1.01391e-08
1.58159e-05
-1.13247e-08
1.58168e-05
-1.27288e-08
1.58176e-05
-1.44857e-08
1.58184e-05
-1.67068e-08
1.5819e-05
-1.94591e-08
1.58194e-05
-2.27771e-08
1.58196e-05
-2.67011e-08
1.58196e-05
-3.13147e-08
1.58193e-05
-3.67685e-08
1.58187e-05
-4.32919e-08
1.58176e-05
-5.11949e-08
1.58159e-05
-6.08626e-08
1.58136e-05
-7.27471e-08
1.58105e-05
-8.73625e-08
1.58063e-05
-1.0529e-07
1.58008e-05
-1.27199e-07
1.57937e-05
-1.53872e-07
1.57846e-05
-1.86257e-07
1.57728e-05
-2.25505e-07
1.57577e-05
-2.73028e-07
1.57382e-05
-3.30521e-07
1.5713e-05
-4.0005e-07
1.568e-05
-4.83637e-07
-5.8598e-07
1.5635e-05
1.58112e-05
-1.5449e-09
1.58117e-05
-4.48211e-09
1.58125e-05
-6.8846e-09
1.58133e-05
-8.62262e-09
1.58142e-05
-9.90836e-09
1.58151e-05
-1.10438e-08
1.5816e-05
-1.22257e-08
1.58169e-05
-1.35857e-08
1.58176e-05
-1.52562e-08
1.58183e-05
-1.73518e-08
1.58188e-05
-1.9939e-08
1.5819e-05
-2.30503e-08
1.5819e-05
-2.67245e-08
1.58188e-05
-3.10416e-08
1.58182e-05
-3.61434e-08
1.58171e-05
-4.22435e-08
1.58155e-05
-4.96305e-08
1.58133e-05
-5.86619e-08
1.58103e-05
-6.97563e-08
1.58064e-05
-8.33879e-08
1.58012e-05
-1.00091e-07
1.57944e-05
-1.20475e-07
1.57858e-05
-1.45252e-07
1.57748e-05
-1.75265e-07
1.57609e-05
-2.11533e-07
1.57431e-05
-2.55273e-07
1.57205e-05
-3.07908e-07
1.56915e-05
-3.71038e-07
1.56541e-05
-4.46253e-07
-5.35837e-07
1.5604e-05
1.58112e-05
-1.76773e-09
1.58118e-05
-5.11296e-09
1.58127e-05
-7.73988e-09
1.58136e-05
-9.52441e-09
1.58145e-05
-1.08069e-08
1.58154e-05
-1.19449e-08
1.58163e-05
-1.31064e-08
1.58171e-05
-1.43999e-08
1.58178e-05
-1.59601e-08
1.58183e-05
-1.79047e-08
1.58187e-05
-2.02968e-08
1.58188e-05
-2.31663e-08
1.58186e-05
-2.65502e-08
1.58181e-05
-3.05246e-08
1.58172e-05
-3.52208e-08
1.58158e-05
-4.08342e-08
1.58138e-05
-4.76293e-08
1.5811e-05
-5.59322e-08
1.58074e-05
-6.61243e-08
1.58027e-05
-7.86353e-08
1.57965e-05
-9.39477e-08
1.57887e-05
-1.12609e-07
1.57787e-05
-1.35251e-07
1.5766e-05
-1.62615e-07
1.575e-05
-1.95577e-07
1.57299e-05
-2.35164e-07
1.57046e-05
-2.82536e-07
1.56724e-05
-3.38859e-07
1.56315e-05
-4.05362e-07
-4.82029e-07
1.55777e-05
1.58112e-05
-2.05059e-09
1.5812e-05
-5.89129e-09
1.5813e-05
-8.71952e-09
1.5814e-05
-1.04816e-08
1.58149e-05
-1.17268e-08
1.58158e-05
-1.28539e-08
1.58167e-05
-1.39747e-08
1.58174e-05
-1.5178e-08
1.58181e-05
-1.66059e-08
1.58186e-05
-1.83761e-08
1.58188e-05
-2.0545e-08
1.58188e-05
-2.31395e-08
1.58184e-05
-2.61966e-08
1.58177e-05
-2.97858e-08
1.58165e-05
-3.40259e-08
1.58148e-05
-3.9095e-08
1.58124e-05
-4.52288e-08
1.58091e-05
-5.27199e-08
1.58049e-05
-6.19086e-08
1.57995e-05
-7.31756e-08
1.57925e-05
-8.69479e-08
1.57836e-05
-1.03709e-07
1.57723e-05
-1.24008e-07
1.57582e-05
-1.4848e-07
1.57405e-05
-1.77864e-07
1.57183e-05
-2.12998e-07
1.56906e-05
-2.54806e-07
1.56558e-05
-3.04068e-07
1.56122e-05
-3.61789e-07
-4.26053e-07
1.55562e-05
1.58113e-05
-2.43192e-09
1.58123e-05
-6.89102e-09
1.58135e-05
-9.85633e-09
1.58145e-05
-1.15021e-08
1.58155e-05
-1.26823e-08
1.58164e-05
-1.37831e-08
1.58173e-05
-1.48358e-08
1.5818e-05
-1.5923e-08
1.58186e-05
-1.71978e-08
1.5819e-05
-1.87718e-08
1.58191e-05
-2.06919e-08
1.5819e-05
-2.29822e-08
1.58185e-05
-2.5678e-08
1.58175e-05
-2.88436e-08
1.58161e-05
-3.2585e-08
1.5814e-05
-3.7058e-08
1.58113e-05
-4.24689e-08
1.58076e-05
-4.90736e-08
1.58029e-05
-5.71682e-08
1.57968e-05
-6.70812e-08
1.5789e-05
-7.91826e-08
1.57792e-05
-9.38901e-08
1.57669e-05
-1.11668e-07
1.57514e-05
-1.33045e-07
1.57322e-05
-1.5863e-07
1.57083e-05
-1.89077e-07
1.56786e-05
-2.25105e-07
1.56417e-05
-2.6717e-07
1.55961e-05
-3.1624e-07
-3.69025e-07
1.55391e-05
1.58115e-05
-2.98384e-09
1.58128e-05
-8.21886e-09
1.58142e-05
-1.11676e-08
1.58152e-05
-1.25891e-08
1.58163e-05
-1.36948e-08
1.58172e-05
-1.47496e-08
1.58181e-05
-1.57017e-08
1.58188e-05
-1.66494e-08
1.58194e-05
-1.77521e-08
1.58197e-05
-1.91086e-08
1.58198e-05
-2.07546e-08
1.58195e-05
-2.27126e-08
1.58188e-05
-2.50163e-08
1.58177e-05
-2.77236e-08
1.58161e-05
-3.09267e-08
1.58138e-05
-3.47586e-08
1.58107e-05
-3.93931e-08
1.58067e-05
-4.50471e-08
1.58015e-05
-5.19703e-08
1.57948e-05
-6.04342e-08
1.57864e-05
-7.07512e-08
1.57758e-05
-8.32745e-08
1.57625e-05
-9.83815e-08
1.57459e-05
-1.16497e-07
1.57254e-05
-1.38106e-07
1.57e-05
-1.63687e-07
1.56687e-05
-1.93795e-07
1.56301e-05
-2.28567e-07
1.55831e-05
-2.69235e-07
-3.11694e-07
1.55258e-05
1.58118e-05
-3.84919e-09
1.58136e-05
-1.00331e-08
1.58151e-05
-1.26366e-08
1.58163e-05
-1.37367e-08
1.58173e-05
-1.47717e-08
1.58183e-05
-1.57442e-08
1.58192e-05
-1.65599e-08
1.58199e-05
-1.7353e-08
1.58204e-05
-1.8271e-08
1.58207e-05
-1.93936e-08
1.58207e-05
-2.07448e-08
1.58203e-05
-2.23474e-08
1.58195e-05
-2.42333e-08
1.58183e-05
-2.64535e-08
1.58164e-05
-2.90856e-08
1.58139e-05
-3.22378e-08
1.58106e-05
-3.60498e-08
1.58062e-05
-4.0698e-08
1.58006e-05
-4.63847e-08
1.57935e-05
-5.33197e-08
1.57845e-05
-6.17581e-08
1.57732e-05
-7.19891e-08
1.57592e-05
-8.43059e-08
1.57417e-05
-9.90345e-08
1.57201e-05
-1.1654e-07
1.56936e-05
-1.3713e-07
1.5661e-05
-1.61221e-07
1.5621e-05
-1.88591e-07
1.55729e-05
-2.21126e-07
-2.5366e-07
1.55149e-05
1.58124e-05
-5.29557e-09
1.58149e-05
-1.25349e-08
1.58165e-05
-1.42521e-08
1.58178e-05
-1.50166e-08
1.5819e-05
-1.59582e-08
1.582e-05
-1.67728e-08
1.58209e-05
-1.74154e-08
1.58216e-05
-1.80446e-08
1.58221e-05
-1.87638e-08
1.58223e-05
-1.96359e-08
1.58222e-05
-2.06726e-08
1.58218e-05
-2.18986e-08
1.58209e-05
-2.33436e-08
1.58195e-05
-2.50519e-08
1.58175e-05
-2.7087e-08
1.58148e-05
-2.95298e-08
1.58112e-05
-3.24846e-08
1.58066e-05
-3.60875e-08
1.58007e-05
-4.04896e-08
1.57932e-05
-4.58292e-08
1.57838e-05
-5.23163e-08
1.5772e-05
-6.01735e-08
1.57573e-05
-6.96018e-08
1.57391e-05
-8.08436e-08
1.57167e-05
-9.4161e-08
1.56893e-05
-1.09706e-07
1.56558e-05
-1.27739e-07
1.56147e-05
-1.47482e-07
1.55659e-05
-1.72354e-07
-1.93038e-07
1.55053e-05
1.58135e-05
-7.84237e-09
1.58166e-05
-1.56408e-08
1.58183e-05
-1.59023e-08
1.58198e-05
-1.65334e-08
1.58211e-05
-1.72734e-08
1.58222e-05
-1.78339e-08
1.5823e-05
-1.82856e-08
1.58237e-05
-1.8744e-08
1.58242e-05
-1.92538e-08
1.58244e-05
-1.98572e-08
1.58243e-05
-2.05636e-08
1.58238e-05
-2.13968e-08
1.58229e-05
-2.23832e-08
1.58214e-05
-2.356e-08
1.58193e-05
-2.49777e-08
1.58164e-05
-2.66867e-08
1.58127e-05
-2.87505e-08
1.58079e-05
-3.1269e-08
1.58017e-05
-3.43537e-08
1.5794e-05
-3.80438e-08
1.57842e-05
-4.25152e-08
1.57719e-05
-4.79419e-08
1.57567e-05
-5.4426e-08
1.5738e-05
-6.2126e-08
1.57151e-05
-7.12002e-08
1.56871e-05
-8.17109e-08
1.56531e-05
-9.37206e-08
1.56112e-05
-1.0564e-07
1.55614e-05
-1.22557e-07
-1.23776e-07
1.54922e-05
1.5817e-05
-1.38425e-08
1.58203e-05
-1.89876e-08
1.58223e-05
-1.7876e-08
1.58237e-05
-1.79833e-08
1.58249e-05
-1.84445e-08
1.58258e-05
-1.87494e-08
1.58265e-05
-1.89629e-08
1.58269e-05
-1.91854e-08
1.58271e-05
-1.94429e-08
1.5827e-05
-1.97491e-08
1.58266e-05
-2.01093e-08
1.58257e-05
-2.05353e-08
1.58244e-05
-2.10402e-08
1.58224e-05
-2.16435e-08
1.58198e-05
-2.23723e-08
1.58164e-05
-2.32504e-08
1.5812e-05
-2.43097e-08
1.58063e-05
-2.56085e-08
1.57992e-05
-2.72099e-08
1.57902e-05
-2.91112e-08
1.57791e-05
-3.14237e-08
1.57654e-05
-3.4245e-08
1.57486e-05
-3.76066e-08
1.57281e-05
-4.15947e-08
1.57032e-05
-4.62925e-08
1.56731e-05
-5.16717e-08
1.56372e-05
-5.77901e-08
1.55939e-05
-6.23697e-08
1.55394e-05
-6.80143e-08
-2.68069e-08
1.54424e-05
1.57971e-05
1.57781e-05
1.57603e-05
1.57423e-05
1.57238e-05
1.57051e-05
1.56861e-05
1.56669e-05
1.56475e-05
1.56277e-05
1.56076e-05
1.55871e-05
1.55661e-05
1.55444e-05
1.5522e-05
1.54988e-05
1.54745e-05
1.54489e-05
1.54217e-05
1.53926e-05
1.53611e-05
1.53269e-05
1.52893e-05
1.52477e-05
1.52014e-05
1.51497e-05
1.50919e-05
1.50296e-05
1.49615e-05
1.49347e-05
1.55322e-05
-9.07357e-06
9.35887e-06
1.5198e-05
-9.15913e-06
9.49331e-06
1.48078e-05
-9.21888e-06
9.60913e-06
1.43725e-05
-9.25299e-06
9.6882e-06
1.39124e-05
-9.28243e-06
9.74254e-06
1.34407e-05
-9.31461e-06
9.78636e-06
1.29636e-05
-9.35036e-06
9.82748e-06
1.24837e-05
-9.38932e-06
9.86918e-06
1.20021e-05
-9.43135e-06
9.91297e-06
1.15189e-05
-9.4764e-06
9.9596e-06
1.1034e-05
-9.5245e-06
1.00094e-05
1.05472e-05
-9.57593e-06
1.00627e-05
1.00584e-05
-9.63122e-06
1.012e-05
9.56769e-06
-9.69116e-06
1.01819e-05
9.07493e-06
-9.75673e-06
1.02495e-05
8.58007e-06
-9.82917e-06
1.0324e-05
8.08294e-06
-9.91006e-06
1.04072e-05
7.58326e-06
-1.00015e-05
1.05011e-05
7.08063e-06
-1.01061e-05
1.06088e-05
6.57441e-06
-1.02277e-05
1.07339e-05
6.06378e-06
-1.03713e-05
1.08819e-05
5.54695e-06
-1.05442e-05
1.1061e-05
5.02335e-06
-1.07557e-05
1.12793e-05
4.48477e-06
-1.10254e-05
1.1564e-05
3.93938e-06
-1.1361e-05
1.19064e-05
3.34435e-06
-1.1856e-05
1.2451e-05
2.75584e-06
-1.24071e-05
1.29957e-05
2.00301e-06
-1.3611e-05
1.43638e-05
1.23168e-06
-1.45185e-05
1.52899e-05
-1.8609e-05
1.98407e-05
1.581e-05
-8.66981e-06
1.53574e-05
-8.70655e-06
1.48812e-05
-8.74269e-06
1.43991e-05
-8.77087e-06
1.39177e-05
-8.80111e-06
1.34383e-05
-8.8352e-06
1.29601e-05
-8.87216e-06
1.24819e-05
-8.9111e-06
1.20026e-05
-8.95207e-06
1.15216e-05
-8.99542e-06
1.10387e-05
-9.04156e-06
1.05538e-05
-9.09099e-06
1.00668e-05
-9.14431e-06
9.57796e-06
-9.20228e-06
9.08706e-06
-9.26582e-06
8.59399e-06
-9.3361e-06
8.09854e-06
-9.41461e-06
7.60038e-06
-9.50332e-06
7.09907e-06
-9.60481e-06
6.5939e-06
-9.72256e-06
6.0839e-06
-9.86131e-06
5.56749e-06
-1.00278e-05
5.04298e-06
-1.02312e-05
4.50478e-06
-1.04872e-05
3.95412e-06
-1.08103e-05
3.36217e-06
-1.12641e-05
2.75995e-06
-1.18049e-05
2.01436e-06
-1.28654e-05
1.23582e-06
-1.374e-05
-1.73732e-05
1.57735e-05
-8.21454e-06
1.53078e-05
-8.24081e-06
1.48368e-05
-8.27171e-06
1.43675e-05
-8.30154e-06
1.38982e-05
-8.33181e-06
1.34275e-05
-8.36452e-06
1.29546e-05
-8.39926e-06
1.24793e-05
-8.43576e-06
1.20016e-05
-8.47439e-06
1.15218e-05
-8.51563e-06
1.10401e-05
-8.55985e-06
1.05566e-05
-8.60745e-06
1.00712e-05
-8.65895e-06
9.58393e-06
-8.71501e-06
9.09463e-06
-8.77652e-06
8.6031e-06
-8.84458e-06
8.1091e-06
-8.92061e-06
7.61227e-06
-9.00648e-06
7.11209e-06
-9.10463e-06
6.60783e-06
-9.2183e-06
6.09843e-06
-9.35191e-06
5.58232e-06
-9.51165e-06
5.05731e-06
-9.70615e-06
4.51905e-06
-9.94892e-06
3.96491e-06
-1.02562e-05
3.37477e-06
-1.06739e-05
2.76228e-06
-1.11924e-05
2.02221e-06
-1.21253e-05
1.23419e-06
-1.2952e-05
-1.6139e-05
1.57658e-05
-7.75402e-06
1.53026e-05
-7.77765e-06
1.48354e-05
-7.80448e-06
1.43662e-05
-7.83236e-06
1.38956e-05
-7.8612e-06
1.34231e-05
-7.892e-06
1.29487e-05
-7.92494e-06
1.24729e-05
-7.95992e-06
1.19956e-05
-7.99713e-06
1.15169e-05
-8.03689e-06
1.10366e-05
-8.07952e-06
1.05545e-05
-8.1254e-06
1.00706e-05
-8.17506e-06
9.58478e-06
-8.22917e-06
9.09683e-06
-8.28857e-06
8.60659e-06
-8.35433e-06
8.11376e-06
-8.42778e-06
7.61794e-06
-8.51067e-06
7.11859e-06
-8.60527e-06
6.6149e-06
-8.71461e-06
6.10577e-06
-8.84277e-06
5.58954e-06
-8.99542e-06
5.06384e-06
-9.18045e-06
4.52472e-06
-9.4098e-06
3.96769e-06
-9.69916e-06
3.3776e-06
-1.00838e-05
2.75657e-06
-1.05714e-05
2.02118e-06
-1.13899e-05
1.22689e-06
-1.21577e-05
-1.49121e-05
1.57494e-05
-7.29091e-06
1.52845e-05
-7.31275e-06
1.4817e-05
-7.33697e-06
1.43479e-05
-7.36329e-06
1.38779e-05
-7.39121e-06
1.34068e-05
-7.42084e-06
1.29342e-05
-7.45236e-06
1.24601e-05
-7.48585e-06
1.19845e-05
-7.52148e-06
1.15072e-05
-7.55957e-06
1.10281e-05
-7.60045e-06
1.05472e-05
-7.64453e-06
1.00645e-05
-7.69233e-06
9.57977e-06
-7.74446e-06
9.09292e-06
-7.80172e-06
8.6037e-06
-7.8651e-06
8.11177e-06
-7.93586e-06
7.61672e-06
-8.01561e-06
7.11792e-06
-8.10648e-06
6.61454e-06
-8.21124e-06
6.10541e-06
-8.33364e-06
5.58882e-06
-8.47883e-06
5.06229e-06
-8.65393e-06
4.52196e-06
-8.86947e-06
3.96252e-06
-9.13972e-06
3.37152e-06
-9.49283e-06
2.74401e-06
-9.94389e-06
2.01232e-06
-1.06583e-05
1.21271e-06
-1.13581e-05
-1.36994e-05
1.57288e-05
-6.82711e-06
1.52638e-05
-6.84772e-06
1.47971e-05
-6.8703e-06
1.43292e-05
-6.89531e-06
1.38601e-05
-6.92211e-06
1.33896e-05
-6.95042e-06
1.29177e-05
-6.98043e-06
1.24442e-05
-7.01238e-06
1.19692e-05
-7.04647e-06
1.14926e-05
-7.08298e-06
1.10144e-05
-7.12223e-06
1.05345e-05
-7.16459e-06
1.00527e-05
-7.21055e-06
9.56891e-06
-7.26069e-06
9.08294e-06
-7.31575e-06
8.59449e-06
-7.37666e-06
8.10322e-06
-7.44459e-06
7.60866e-06
-7.52105e-06
7.11016e-06
-7.60797e-06
6.60683e-06
-7.70791e-06
6.09746e-06
-7.82426e-06
5.58027e-06
-7.96164e-06
5.05273e-06
-8.12639e-06
4.51098e-06
-8.32772e-06
3.9494e-06
-8.57813e-06
3.35695e-06
-8.90037e-06
2.72456e-06
-9.31151e-06
1.99619e-06
-9.92989e-06
1.19327e-06
-1.05551e-05
-1.25061e-05
1.57039e-05
-6.36323e-06
1.5239e-05
-6.38278e-06
1.47727e-05
-6.40405e-06
1.43053e-05
-6.42782e-06
1.38366e-05
-6.45343e-06
1.33666e-05
-6.48046e-06
1.28953e-05
-6.5091e-06
1.24225e-05
-6.53963e-06
1.19483e-05
-6.57227e-06
1.14726e-05
-6.60724e-06
1.09952e-05
-6.64485e-06
1.05161e-05
-6.68547e-06
1.00351e-05
-6.72954e-06
9.55201e-06
-6.77762e-06
9.06667e-06
-6.8304e-06
8.57876e-06
-6.88875e-06
8.0879e-06
-6.95373e-06
7.59359e-06
-7.02674e-06
7.09515e-06
-7.10953e-06
6.59165e-06
-7.20442e-06
6.08182e-06
-7.31444e-06
5.56387e-06
-7.44369e-06
5.0352e-06
-7.59773e-06
4.49195e-06
-7.78448e-06
3.92843e-06
-8.0146e-06
3.33437e-06
-8.30632e-06
2.69852e-06
-8.67566e-06
1.97373e-06
-9.2051e-06
1.16934e-06
-9.75075e-06
-1.13368e-05
1.56749e-05
-5.89933e-06
1.52101e-05
-5.91796e-06
1.47442e-05
-5.93812e-06
1.42771e-05
-5.96073e-06
1.38088e-05
-5.98518e-06
1.33394e-05
-6.01098e-06
1.28686e-05
-6.0383e-06
1.23964e-05
-6.06744e-06
1.19227e-05
-6.09863e-06
1.14475e-05
-6.13207e-06
1.09707e-05
-6.16804e-06
1.04922e-05
-6.20689e-06
1.00117e-05
-6.24905e-06
9.52908e-06
-6.29503e-06
9.04415e-06
-6.34547e-06
8.55655e-06
-6.40115e-06
8.06589e-06
-6.46307e-06
7.57162e-06
-6.53247e-06
7.07303e-06
-6.61095e-06
6.56917e-06
-6.70056e-06
6.05873e-06
-6.80399e-06
5.53988e-06
-6.92483e-06
5.01002e-06
-7.06786e-06
4.46528e-06
-7.23974e-06
3.90002e-06
-7.44934e-06
3.30448e-06
-7.71078e-06
2.66643e-06
-8.03762e-06
1.94556e-06
-8.48423e-06
1.1418e-06
-8.94699e-06
-1.0195e-05
1.56419e-05
-5.43545e-06
1.51772e-05
-5.45324e-06
1.47115e-05
-5.4724e-06
1.42446e-05
-5.49391e-06
1.37767e-05
-5.51721e-06
1.33075e-05
-5.54181e-06
1.2837e-05
-5.56784e-06
1.23652e-05
-5.59563e-06
1.1892e-05
-5.62539e-06
1.14172e-05
-5.6573e-06
1.09408e-05
-5.69163e-06
1.04626e-05
-5.72871e-06
9.98252e-06
-5.76892e-06
9.50023e-06
-5.81274e-06
9.01552e-06
-5.86076e-06
8.52804e-06
-5.91368e-06
8.03738e-06
-5.97241e-06
7.54296e-06
-6.03806e-06
7.04406e-06
-6.11204e-06
6.53969e-06
-6.19618e-06
6.02852e-06
-6.29282e-06
5.5087e-06
-6.40502e-06
4.97764e-06
-6.5368e-06
4.43151e-06
-6.69362e-06
3.86476e-06
-6.88259e-06
3.26808e-06
-7.1141e-06
2.62898e-06
-7.39851e-06
1.91253e-06
-7.76778e-06
1.11167e-06
-8.14613e-06
-9.08331e-06
1.56051e-05
-4.9715e-06
1.51404e-05
-4.98853e-06
1.46748e-05
-5.00678e-06
1.42081e-05
-5.02724e-06
1.37403e-05
-5.04941e-06
1.32713e-05
-5.07283e-06
1.28011e-05
-5.09762e-06
1.23295e-05
-5.12407e-06
1.18565e-05
-5.1524e-06
1.1382e-05
-5.18279e-06
1.09059e-05
-5.21547e-06
1.04279e-05
-5.25074e-06
9.94795e-06
-5.28896e-06
9.46577e-06
-5.33057e-06
8.9811e-06
-5.37609e-06
8.49358e-06
-5.42616e-06
8.00275e-06
-5.48158e-06
7.50805e-06
-5.54335e-06
7.0087e-06
-5.6127e-06
6.50372e-06
-5.6912e-06
5.99175e-06
-5.78086e-06
5.47096e-06
-5.88422e-06
4.93876e-06
-6.00461e-06
4.39141e-06
-6.14627e-06