/*--------------------------------*- C++ -*----------------------------------*\
  =========                 |
  \\      /  F ield         | OpenFOAM: The Open Source CFD Toolbox
   \\    /   O peration     | Website:  https://openfoam.org
    \\  /    A nd           | Version:  11
     \\/     M anipulation  |
\*---------------------------------------------------------------------------*/
FoamFile
{
    format      ascii;
    class       surfaceScalarField;
    location    "3";
    object      phi;
}
// * * * * * * * * * * * * * * * * * * * * * * * * * * * * * * * * * * * * * //

dimensions      [0 3 -1 0 0 0 0];

internalField   nonuniform List<scalar> 
24840
(
1.92406e-05
7.52287e-09
1.92289e-05
1.16701e-08
1.92172e-05
1.17351e-08
1.92053e-05
1.19015e-08
1.91932e-05
1.21321e-08
1.91811e-05
1.2056e-08
1.91695e-05
1.15763e-08
1.91589e-05
1.06356e-08
1.91496e-05
9.2692e-09
1.91421e-05
7.4925e-09
1.91369e-05
5.28528e-09
1.91342e-05
2.61694e-09
1.9135e-05
-7.64063e-10
1.91398e-05
-4.75095e-09
1.91491e-05
-9.34631e-09
1.91636e-05
-1.45246e-08
1.91842e-05
-2.05524e-08
1.92115e-05
-2.72882e-08
1.92466e-05
-3.51296e-08
1.92914e-05
-4.4848e-08
1.9348e-05
-5.65739e-08
1.94184e-05
-7.03639e-08
1.95051e-05
-8.66748e-08
1.96111e-05
-1.05998e-07
1.97399e-05
-1.28827e-07
1.98953e-05
-1.55373e-07
2.0082e-05
-1.86727e-07
2.03014e-05
-2.19466e-07
2.05703e-05
-2.68842e-07
-2.67801e-07
2.08381e-05
1.92521e-05
3.50895e-09
1.92551e-05
8.76502e-09
1.92569e-05
9.854e-09
1.92581e-05
1.07693e-08
1.9259e-05
1.1245e-08
1.92598e-05
1.11849e-08
1.92608e-05
1.05553e-08
1.92623e-05
9.15811e-09
1.92646e-05
6.99021e-09
1.92681e-05
4.02601e-09
1.92732e-05
2.01674e-10
1.92803e-05
-4.55537e-09
1.92899e-05
-1.03699e-08
1.93025e-05
-1.7293e-08
1.93186e-05
-2.54799e-08
1.93392e-05
-3.51583e-08
1.93655e-05
-4.6792e-08
1.93992e-05
-6.09673e-08
1.94416e-05
-7.76123e-08
1.94931e-05
-9.62582e-08
1.95541e-05
-1.17592e-07
1.96266e-05
-1.4288e-07
1.9713e-05
-1.7304e-07
1.98159e-05
-2.08928e-07
1.99386e-05
-2.51511e-07
2.00848e-05
-3.01583e-07
2.02588e-05
-3.60749e-07
2.04652e-05
-4.25896e-07
2.07095e-05
-5.13098e-07
-5.44899e-07
2.09866e-05
1.92494e-05
2.24444e-09
1.92517e-05
6.47001e-09
1.9253e-05
8.49963e-09
1.92541e-05
9.75574e-09
1.92548e-05
1.04674e-08
1.92555e-05
1.04811e-08
1.92562e-05
9.84892e-09
1.92573e-05
8.10889e-09
1.92591e-05
5.15756e-09
1.92622e-05
9.14498e-10
1.9267e-05
-4.59637e-09
1.92741e-05
-1.16031e-08
1.92839e-05
-2.01806e-08
1.92971e-05
-3.0462e-08
1.93142e-05
-4.26106e-08
1.93359e-05
-5.68792e-08
1.93628e-05
-7.36874e-08
1.93954e-05
-9.35531e-08
1.94346e-05
-1.16772e-07
1.94818e-05
-1.4353e-07
1.95389e-05
-1.74616e-07
1.96073e-05
-2.11339e-07
1.96893e-05
-2.55036e-07
1.97875e-05
-3.07076e-07
1.9905e-05
-3.69021e-07
2.00456e-05
-4.42238e-07
2.0214e-05
-5.29144e-07
2.04148e-05
-6.26698e-07
2.06544e-05
-7.52653e-07
-8.31069e-07
2.09406e-05
1.92488e-05
1.58435e-09
1.92504e-05
4.89415e-09
1.92515e-05
7.32472e-09
1.92523e-05
8.97186e-09
1.92529e-05
9.88832e-09
1.92534e-05
9.98801e-09
1.9254e-05
9.29501e-09
1.92549e-05
7.19571e-09
1.92565e-05
3.50375e-09
1.92594e-05
-1.91514e-09
1.92639e-05
-9.11626e-09
1.92705e-05
-1.82696e-08
1.92798e-05
-2.94834e-08
1.92923e-05
-4.29019e-08
1.93084e-05
-5.87232e-08
1.93288e-05
-7.72441e-08
1.9354e-05
-9.88927e-08
1.93846e-05
-1.24195e-07
1.94215e-05
-1.53677e-07
1.94659e-05
-1.8795e-07
1.95194e-05
-2.28054e-07
1.95835e-05
-2.7547e-07
1.96604e-05
-3.31906e-07
1.97526e-05
-3.9926e-07
1.98633e-05
-4.79721e-07
1.99964e-05
-5.75369e-07
2.01567e-05
-6.89431e-07
2.03499e-05
-8.1991e-07
2.05817e-05
-9.84448e-07
-1.11492e-06
2.08655e-05
1.92485e-05
1.19848e-09
1.92495e-05
3.95291e-09
1.92503e-05
6.46532e-09
1.92509e-05
8.3657e-09
1.92513e-05
9.48557e-09
1.92517e-05
9.65717e-09
1.92521e-05
8.86149e-09
1.92529e-05
6.38127e-09
1.92545e-05
1.95617e-09
1.92571e-05
-4.53962e-09
1.92612e-05
-1.3279e-08
1.92674e-05
-2.44012e-08
1.92759e-05
-3.80365e-08
1.92874e-05
-5.43388e-08
1.93022e-05
-7.35274e-08
1.93208e-05
-9.59224e-08
1.93439e-05
-1.21976e-07
1.9372e-05
-1.52275e-07
1.94059e-05
-1.87528e-07
1.94466e-05
-2.28641e-07
1.94954e-05
-2.769e-07
1.9554e-05
-3.3403e-07
1.96242e-05
-4.02121e-07
1.97085e-05
-4.83605e-07
1.98101e-05
-5.81339e-07
1.9933e-05
-6.9824e-07
2.0082e-05
-8.38431e-07
2.02636e-05
-1.00152e-06
2.04836e-05
-1.20446e-06
-1.38896e-06
2.07577e-05
1.92484e-05
9.68467e-10
1.9249e-05
3.34604e-09
1.92496e-05
5.82906e-09
1.925e-05
7.93222e-09
1.92503e-05
9.19657e-09
1.92506e-05
9.35511e-09
1.9251e-05
8.52169e-09
1.92516e-05
5.72359e-09
1.92529e-05
6.5701e-10
1.92552e-05
-6.8579e-09
1.9259e-05
-1.69968e-08
1.92645e-05
-2.9908e-08
1.92722e-05
-4.57265e-08
1.92824e-05
-6.46138e-08
1.92957e-05
-8.68014e-08
1.93124e-05
-1.12629e-07
1.9333e-05
-1.42582e-07
1.93581e-05
-1.7731e-07
1.93882e-05
-2.17662e-07
1.94243e-05
-2.6476e-07
1.94675e-05
-3.20121e-07
1.95192e-05
-3.85739e-07
1.95812e-05
-4.64089e-07
1.96557e-05
-5.58142e-07
1.97459e-05
-6.71455e-07
1.98555e-05
-8.07883e-07
1.99897e-05
-9.7258e-07
2.01553e-05
-1.16714e-06
2.03587e-05
-1.40786e-06
-1.64828e-06
2.0618e-05
1.92483e-05
8.15489e-10
1.92487e-05
2.93939e-09
1.92491e-05
5.39556e-09
1.92494e-05
7.6421e-09
1.92496e-05
9.00449e-09
1.92498e-05
9.15616e-09
1.925e-05
8.31154e-09
1.92505e-05
5.22714e-09
1.92516e-05
-4.27416e-10
1.92536e-05
-8.84697e-09
1.92568e-05
-2.02198e-08
1.92616e-05
-3.47007e-08
1.92683e-05
-5.24261e-08
1.92772e-05
-7.35589e-08
1.92888e-05
-9.83344e-08
1.93033e-05
-1.27104e-07
1.9321e-05
-1.60374e-07
1.93426e-05
-1.98852e-07
1.93684e-05
-2.43491e-07
1.93992e-05
-2.95574e-07
1.94359e-05
-3.56822e-07
1.94797e-05
-4.29482e-07
1.9532e-05
-5.16398e-07
1.95949e-05
-6.21064e-07
1.96712e-05
-7.47752e-07
1.97646e-05
-9.01323e-07
1.98802e-05
-1.08811e-06
2.00251e-05
-1.31204e-06
2.02062e-05
-1.58897e-06
-1.88651e-06
2.04444e-05
1.92482e-05
7.06734e-10
1.92485e-05
2.66317e-09
1.92488e-05
5.11144e-09
1.9249e-05
7.46483e-09
1.92491e-05
8.89693e-09
1.92492e-05
9.02113e-09
1.92493e-05
8.20105e-09
1.92497e-05
4.88622e-09
1.92505e-05
-1.27858e-09
1.92522e-05
-1.04758e-08
1.92548e-05
-2.29025e-08
1.92589e-05
-3.87155e-08
1.92645e-05
-5.80481e-08
1.9272e-05
-8.10572e-08
1.92816e-05
-1.07973e-07
1.92937e-05
-1.39145e-07
1.93084e-05
-1.75093e-07
1.93261e-05
-2.16556e-07
1.93471e-05
-2.64556e-07
1.93721e-05
-3.20492e-07
1.94015e-05
-3.86238e-07
1.94363e-05
-4.64266e-07
1.94776e-05
-5.57743e-07
1.95272e-05
-6.70651e-07
1.95874e-05
-8.07952e-07
1.96616e-05
-9.75541e-07
1.97545e-05
-1.18102e-06
1.98735e-05
-1.43098e-06
2.00256e-05
-1.74109e-06
-2.09534e-06
2.02344e-05
1.92482e-05
6.27492e-10
1.92484e-05
2.47227e-09
1.92486e-05
4.92781e-09
1.92487e-05
7.36408e-09
1.92487e-05
8.85005e-09
1.92488e-05
8.95873e-09
1.92488e-05
8.17674e-09
1.9249e-05
4.69489e-09
1.92496e-05
-1.89628e-09
1.92509e-05
-1.17317e-08
1.9253e-05
-2.50165e-08
1.92562e-05
-4.19074e-08
1.92607e-05
-6.25286e-08
1.92666e-05
-8.70226e-08
1.92743e-05
-1.15603e-07
1.92837e-05
-1.48605e-07
1.92952e-05
-1.8654e-07
1.93088e-05
-2.30154e-07
1.93247e-05
-2.80505e-07
1.93433e-05
-3.3905e-07
1.93648e-05
-4.07771e-07
1.93898e-05
-4.89297e-07
1.94192e-05
-5.87055e-07
1.94539e-05
-7.05432e-07
1.9496e-05
-8.50015e-07
1.95481e-05
-1.02768e-06
1.96145e-05
-1.24734e-06
1.97019e-05
-1.5184e-06
1.98174e-05
-1.85665e-06
-2.26438e-06
1.99865e-05
1.92482e-05
5.68185e-10
1.92483e-05
2.33654e-09
1.92484e-05
4.80905e-09
1.92485e-05
7.30903e-09
1.92485e-05
8.84361e-09
1.92485e-05
8.9656e-09
1.92485e-05
8.21671e-09
1.92485e-05
4.62781e-09
1.92489e-05
-2.29208e-09
1.92498e-05
-1.26158e-08
1.92513e-05
-2.65546e-08
1.92537e-05
-4.42603e-08
1.9257e-05
-6.58401e-08
1.92614e-05
-9.14129e-08
1.9267e-05
-1.21164e-07
1.92738e-05
-1.55399e-07
1.92818e-05
-1.94602e-07
1.92912e-05
-2.39496e-07
1.93018e-05
-2.91128e-07
1.93137e-05
-3.50968e-07
1.9327e-05
-4.2103e-07
1.93417e-05
-5.04025e-07
1.93582e-05
-6.03539e-07
1.9377e-05
-7.24246e-07
1.93992e-05
-8.72224e-07
1.94267e-05
-1.05519e-06
1.94626e-05
-1.28326e-06
1.95129e-05
-1.56865e-06
1.95837e-05
-1.92744e-06
-2.38134e-06
1.97006e-05
1.92482e-05
5.22353e-10
1.92483e-05
2.23618e-09
1.92484e-05
4.72691e-09
1.92484e-05
7.27029e-09
1.92484e-05
8.85862e-09
1.92483e-05
9.01428e-09
1.92483e-05
8.30169e-09
1.92482e-05
4.66588e-09
1.92484e-05
-2.48073e-09
1.92489e-05
-1.31447e-08
1.92499e-05
-2.7529e-08
1.92514e-05
-4.57814e-08
1.92536e-05
-6.79845e-08
1.92564e-05
-9.42248e-08
1.92599e-05
-1.24648e-07
1.9264e-05
-1.59513e-07
1.92686e-05
-1.99252e-07
1.92737e-05
-2.44537e-07
1.92789e-05
-2.9636e-07
1.92841e-05
-3.56141e-07
1.92889e-05
-4.25852e-07
1.92931e-05
-5.08187e-07
1.92963e-05
-6.06763e-07
1.92984e-05
-7.26373e-07
1.92996e-05
-8.73379e-07
1.93005e-05
-1.05609e-06
1.93028e-05
-1.28557e-06
1.93106e-05
-1.57648e-06
1.93285e-05
-1.94528e-06
-2.43273e-06
1.93798e-05
1.92482e-05
4.85379e-10
1.92483e-05
2.15606e-09
1.92483e-05
4.6579e-09
1.92484e-05
7.22497e-09
1.92483e-05
8.87646e-09
1.92483e-05
9.07518e-09
1.92482e-05
8.40982e-09
1.92481e-05
4.77014e-09
1.92481e-05
-2.48895e-09
1.92483e-05
-1.33376e-08
1.92487e-05
-2.79701e-08
1.92494e-05
-4.65019e-08
1.92504e-05
-6.89957e-08
1.92517e-05
-9.54969e-08
1.92532e-05
-1.26099e-07
1.92547e-05
-1.60999e-07
1.9256e-05
-2.00557e-07
1.92568e-05
-2.45357e-07
1.92567e-05
-2.96293e-07
1.92552e-05
-3.5467e-07
1.92517e-05
-4.22339e-07
1.92454e-05
-5.01859e-07
1.92354e-05
-5.96722e-07
1.92206e-05
-7.11636e-07
1.92002e-05
-8.52966e-07
1.91734e-05
-1.02924e-06
1.91398e-05
-1.252e-06
1.9101e-05
-1.53771e-06
1.90587e-05
-1.90294e-06
-2.40511e-06
1.9031e-05
1.92482e-05
4.53549e-10
1.92482e-05
2.08316e-09
1.92483e-05
4.58118e-09
1.92484e-05
7.15454e-09
1.92484e-05
8.87024e-09
1.92483e-05
9.12755e-09
1.92482e-05
8.51427e-09
1.92481e-05
4.91223e-09
1.9248e-05
-2.36432e-09
1.92479e-05
-1.3244e-08
1.92478e-05
-2.79149e-08
1.92478e-05
-4.64721e-08
1.92477e-05
-6.89363e-08
1.92475e-05
-9.53066e-08
1.92471e-05
-1.25615e-07
1.9246e-05
-1.59983e-07
1.92442e-05
-1.98672e-07
1.9241e-05
-2.42153e-07
1.92358e-05
-2.91174e-07
1.9228e-05
-3.46867e-07
1.92166e-05
-4.10867e-07
1.92002e-05
-4.85479e-07
1.91774e-05
-5.739e-07
1.91462e-05
-6.80506e-07
1.91046e-05
-8.11328e-07
1.905e-05
-9.74623e-07
1.89797e-05
-1.18177e-06
1.8892e-05
-1.44996e-06
1.87844e-05
-1.79531e-06
-2.28711e-06
1.86664e-05
1.92482e-05
4.23033e-10
1.92482e-05
2.00644e-09
1.92483e-05
4.48073e-09
1.92485e-05
7.03963e-09
1.92485e-05
8.81054e-09
1.92485e-05
9.14942e-09
1.92484e-05
8.57904e-09
1.92483e-05
5.05357e-09
1.92481e-05
-2.13989e-09
1.92477e-05
-1.29104e-08
1.92472e-05
-2.74293e-08
1.92465e-05
-4.57648e-08
1.92455e-05
-6.78963e-08
1.9244e-05
-9.3768e-08
1.92417e-05
-1.23342e-07
1.92384e-05
-1.5665e-07
1.92335e-05
-1.93841e-07
1.92266e-05
-2.35239e-07
1.92168e-05
-2.81409e-07
1.92032e-05
-3.33247e-07
1.91844e-05
-3.92091e-07
1.91588e-05
-4.59867e-07
1.91242e-05
-5.39299e-07
1.90779e-05
-6.34174e-07
1.90164e-05
-7.49807e-07
1.89354e-05
-8.93623e-07
1.88296e-05
-1.07604e-06
1.86932e-05
-1.31356e-06
1.85188e-05
-1.62089e-06
-2.07208e-06
1.83038e-05
1.92482e-05
3.90858e-10
1.92483e-05
1.91651e-09
1.92484e-05
4.34178e-09
1.92486e-05
6.85944e-09
1.92487e-05
8.67146e-09
1.92487e-05
9.11818e-09
1.92488e-05
8.56831e-09
1.92487e-05
5.15281e-09
1.92484e-05
-1.86341e-09
1.92479e-05
-1.23916e-08
1.9247e-05
-2.65821e-08
1.92457e-05
-4.44696e-08
1.92438e-05
-6.59894e-08
1.92411e-05
-9.10269e-08
1.92372e-05
-1.19469e-07
1.92318e-05
-1.51247e-07
1.92243e-05
-1.86384e-07
1.92141e-05
-2.25034e-07
1.92003e-05
-2.67544e-07
1.91815e-05
-3.14523e-07
1.91564e-05
-3.66935e-07
1.91227e-05
-4.26216e-07
1.90779e-05
-4.94445e-07
1.90183e-05
-5.74572e-07
1.89393e-05
-6.70809e-07
1.88348e-05
-7.89169e-07
1.8697e-05
-9.38218e-07
1.85156e-05
-1.13218e-06
1.82778e-05
-1.38311e-06
-1.76087e-06
1.79666e-05
1.92482e-05
3.54035e-10
1.92483e-05
1.80383e-09
1.92485e-05
4.15001e-09
1.92487e-05
6.59908e-09
1.9249e-05
8.42777e-09
1.92491e-05
9.00363e-09
1.92492e-05
8.44941e-09
1.92492e-05
5.16795e-09
1.92489e-05
-1.58479e-09
1.92483e-05
-1.17508e-08
1.92471e-05
-2.54525e-08
1.92454e-05
-4.26884e-08
1.92427e-05
-6.33471e-08
1.9239e-05
-8.72543e-08
1.92337e-05
-1.14218e-07
1.92265e-05
-1.44068e-07
1.92168e-05
-1.76686e-07
1.92038e-05
-2.12045e-07
1.91865e-05
-2.50246e-07
1.91636e-05
-2.91575e-07
1.91332e-05
-3.36558e-07
1.9093e-05
-3.86049e-07
1.90399e-05
-4.41344e-07
1.89697e-05
-5.04333e-07
1.88767e-05
-5.77789e-07
1.87533e-05
-6.65765e-07
1.85892e-05
-7.74146e-07
1.83703e-05
-9.13261e-07
1.80784e-05
-1.0912e-06
-1.36413e-06
1.76816e-05
1.92482e-05
3.09559e-10
1.92483e-05
1.65893e-09
1.92486e-05
3.89177e-09
1.92489e-05
6.24561e-09
1.92493e-05
8.05997e-09
1.92495e-05
8.7614e-09
1.92498e-05
8.19418e-09
1.92499e-05
5.06316e-09
1.92497e-05
-1.353e-09
1.9249e-05
-1.10528e-08
1.92476e-05
-2.41255e-08
1.92455e-05
-4.05318e-08
1.92423e-05
-6.01144e-08
1.92376e-05
-8.26406e-08
1.92313e-05
-1.07841e-07
1.92226e-05
-1.35442e-07
1.92111e-05
-1.65183e-07
1.91959e-05
-1.96847e-07
1.9176e-05
-2.30279e-07
1.91498e-05
-2.65413e-07
1.91156e-05
-3.02306e-07
1.90707e-05
-3.41164e-07
1.90117e-05
-3.824e-07
1.89341e-05
-4.26689e-07
1.88314e-05
-4.75105e-07
1.8695e-05
-5.29326e-07
1.85127e-05
-5.91891e-07
1.82674e-05
-6.67903e-07
1.79364e-05
-7.60284e-07
-9.03156e-07
1.74755e-05
1.92482e-05
2.54267e-10
1.92484e-05
1.4734e-09
1.92487e-05
3.55438e-09
1.92492e-05
5.78145e-09
1.92497e-05
7.55526e-09
1.92501e-05
8.34727e-09
1.92505e-05
7.7763e-09
1.92508e-05
4.80581e-09
1.92506e-05
-1.21914e-09
1.92499e-05
-1.03652e-08
1.92485e-05
-2.26886e-08
1.92461e-05
-3.81141e-08
1.92424e-05
-5.64419e-08
1.92372e-05
-7.73849e-08
1.92299e-05
-1.00602e-07
1.92202e-05
-1.25717e-07
1.92074e-05
-1.52337e-07
1.91906e-05
-1.80055e-07
1.91687e-05
-2.08459e-07
1.91405e-05
-2.37132e-07
1.91038e-05
-2.65644e-07
1.90562e-05
-2.93535e-07
1.89941e-05
-3.20289e-07
1.89127e-05
-3.45289e-07
1.88053e-05
-3.67778e-07
1.86628e-05
-3.86828e-07
1.84722e-05
-4.01257e-07
1.82144e-05
-4.10146e-07
1.78646e-05
-4.10473e-07
-4.08754e-07
1.73702e-05
1.92482e-05
1.84495e-10
1.92484e-05
1.23778e-09
1.92489e-05
3.12554e-09
1.92495e-05
5.19431e-09
1.92501e-05
6.89834e-09
1.92507e-05
7.72789e-09
1.92513e-05
7.16418e-09
1.92518e-05
4.36349e-09
1.92518e-05
-1.23116e-09
1.92512e-05
-9.75211e-09
1.92497e-05
-2.12265e-08
1.92472e-05
-3.55481e-08
1.92432e-05
-5.24802e-08
1.92375e-05
-7.16881e-08
1.92297e-05
-9.2766e-08
1.92192e-05
-1.1525e-07
1.92055e-05
-1.3862e-07
1.91877e-05
-1.62296e-07
1.91649e-05
-1.85624e-07
1.91356e-05
-2.07851e-07
1.9098e-05
-2.28081e-07
1.90497e-05
-2.45206e-07
1.89872e-05
-2.578e-07
1.89059e-05
-2.63971e-07
1.87993e-05
-2.61147e-07
1.86582e-05
-2.45782e-07
1.84699e-05
-2.12974e-07
1.82156e-05
-1.55759e-07
1.78698e-05
-6.47592e-08
8.19281e-08
1.73792e-05
1.92482e-05
9.50624e-11
1.92485e-05
9.43951e-10
1.9249e-05
2.59335e-09
1.92498e-05
4.46916e-09
1.92506e-05
6.06678e-09
1.92515e-05
6.87843e-09
1.92523e-05
6.32812e-09
1.92529e-05
3.71216e-09
1.92531e-05
-1.42698e-09
1.92527e-05
-9.26975e-09
1.92512e-05
-1.98185e-08
1.92486e-05
-3.29425e-08
1.92445e-05
-4.83752e-08
1.92386e-05
-6.57446e-08
1.92304e-05
-8.4593e-08
1.92196e-05
-1.04382e-07
1.92054e-05
-1.24487e-07
1.91873e-05
-1.44176e-07
1.91643e-05
-1.62584e-07
1.91351e-05
-1.78657e-07
1.90981e-05
-1.91083e-07
1.9051e-05
-1.98167e-07
1.89909e-05
-1.97661e-07
1.89134e-05
-1.86509e-07
1.88128e-05
-1.60485e-07
1.86806e-05
-1.13637e-07
1.85053e-05
-3.76171e-08
1.82703e-05
7.92532e-08
1.7952e-05
2.53485e-07
5.31068e-07
1.75029e-05
1.92483e-05
-2.38444e-11
1.92486e-05
5.863e-10
1.92493e-05
1.94541e-09
1.92501e-05
3.58736e-09
1.92512e-05
5.03847e-09
1.92523e-05
5.78304e-09
1.92533e-05
5.24463e-09
1.92542e-05
2.83665e-09
1.92546e-05
-1.84321e-09
1.92543e-05
-8.96895e-09
1.92531e-05
-1.85364e-08
1.92505e-05
-3.03952e-08
1.92464e-05
-4.42597e-08
1.92404e-05
-5.97329e-08
1.92321e-05
-7.63206e-08
1.92212e-05
-9.34309e-08
1.9207e-05
-1.10358e-07
1.91891e-05
-1.26253e-07
1.91666e-05
-1.4008e-07
1.91385e-05
-1.50544e-07
1.91034e-05
-1.55988e-07
1.90595e-05
-1.54236e-07
1.90042e-05
-1.42358e-07
1.8934e-05
-1.16341e-07
1.88441e-05
-7.06087e-08
1.87278e-05
2.71732e-09
1.85756e-05
1.14558e-07
1.8373e-05
2.81883e-07
1.81031e-05
5.23348e-07
9.05083e-07
1.77291e-05
1.92483e-05
-1.78485e-10
1.92487e-05
1.45965e-10
1.92495e-05
1.1652e-09
1.92506e-05
2.53293e-09
1.92518e-05
3.7953e-09
1.92532e-05
4.43294e-09
1.92545e-05
3.90363e-09
1.92556e-05
1.7093e-09
1.92563e-05
-2.50183e-09
1.92562e-05
-8.88905e-09
1.92551e-05
-1.74389e-08
1.92527e-05
-2.79898e-08
1.92487e-05
-4.02486e-08
1.92428e-05
-5.3808e-08
1.92346e-05
-6.81557e-08
1.92238e-05
-8.26699e-08
1.92101e-05
-9.65957e-08
1.91928e-05
-1.09007e-07
1.91715e-05
-1.18749e-07
1.91453e-05
-1.24358e-07
1.91133e-05
-1.2393e-07
1.9074e-05
-1.14942e-07
1.90256e-05
-9.3976e-08
1.89656e-05
-5.63349e-08
1.88905e-05
4.43836e-09
1.87955e-05
9.77269e-08
1.86738e-05
2.3624e-07
1.85156e-05
4.40069e-07
1.83099e-05
7.2905e-07
1.17974e-06
1.80353e-05
1.92483e-05
-3.62204e-10
1.92489e-05
-4.1603e-10
1.92498e-05
2.23885e-10
1.92511e-05
1.28916e-09
1.92525e-05
2.3315e-09
1.92541e-05
2.83015e-09
1.92557e-05
2.29702e-09
1.92571e-05
3.13606e-10
1.92581e-05
-3.42679e-09
1.92582e-05
-9.06317e-09
1.92574e-05
-1.65728e-08
1.92552e-05
-2.57924e-08
1.92514e-05
-3.64345e-08
1.92456e-05
-4.80963e-08
1.92378e-05
-6.0267e-08
1.92274e-05
-7.23218e-08
1.92143e-05
-8.34913e-08
1.91981e-05
-9.28168e-08
1.91785e-05
-9.90884e-08
1.91548e-05
-1.00753e-07
1.91267e-05
-9.57748e-08
1.90932e-05
-8.14427e-08
1.90533e-05
-5.40701e-08
1.90056e-05
-8.61119e-09
1.89482e-05
6.18171e-08
1.88783e-05
1.67649e-07
1.87925e-05
3.22005e-07
1.86865e-05
5.46061e-07
1.85549e-05
8.60615e-07
1.34162e-06
1.83931e-05
1.92484e-05
-5.86838e-10
1.92491e-05
-1.13531e-09
1.92502e-05
-9.18436e-10
1.92517e-05
-1.59355e-10
1.92534e-05
6.43715e-10
1.92552e-05
9.75219e-10
1.92571e-05
4.22201e-10
1.92588e-05
-1.35402e-09
1.926e-05
-4.62666e-09
1.92604e-05
-9.50839e-09
1.92598e-05
-1.59664e-08
1.92578e-05
-2.38458e-08
1.92543e-05
-3.28805e-08
1.92489e-05
-4.26866e-08
1.92414e-05
-5.27739e-08
1.92316e-05
-6.25439e-08
1.92194e-05
-7.12496e-08
1.92045e-05
-7.79471e-08
1.91868e-05
-8.14351e-08
1.91663e-05
-8.01592e-08
1.91426e-05
-7.20738e-08
1.91156e-05
-5.44475e-08
1.90851e-05
-2.3588e-08
1.9051e-05
2.55134e-08
1.90126e-05
1.00203e-07
1.89699e-05
2.10288e-07
1.89229e-05
3.69065e-07
1.8872e-05
5.96949e-07
1.8818e-05
9.14636e-07
1.38852e-06
1.8771e-05
1.92484e-05
-8.84343e-10
1.92494e-05
-2.07389e-09
1.92507e-05
-2.29556e-09
1.92524e-05
-1.81606e-09
1.92543e-05
-1.27614e-09
1.92564e-05
-1.14104e-09
1.92586e-05
-1.71977e-09
1.92605e-05
-3.29619e-09
1.9262e-05
-6.10631e-09
1.92627e-05
-1.02377e-08
1.92624e-05
-1.56414e-08
1.92607e-05
-2.21821e-08
1.92575e-05
-2.96333e-08
1.92525e-05
-3.76407e-08
1.92454e-05
-4.57521e-08
1.92363e-05
-5.34287e-08
1.9225e-05
-5.99826e-08
1.92116e-05
-6.45316e-08
1.91961e-05
-6.59476e-08
1.91787e-05
-6.27626e-08
1.91597e-05
-5.30382e-08
1.91395e-05
-3.41934e-08
1.91187e-05
-2.84245e-09
1.90982e-05
4.60413e-08
1.90793e-05
1.19078e-07
1.90641e-05
2.25509e-07
1.90555e-05
3.77633e-07
1.90587e-05
5.93773e-07
1.90797e-05
8.93606e-07
1.32736e-06
1.91409e-05
1.92486e-05
-1.32894e-09
1.92499e-05
-3.37166e-09
1.92515e-05
-3.9342e-09
1.92534e-05
-3.6577e-09
1.92555e-05
-3.40324e-09
1.92578e-05
-3.49355e-09
1.92602e-05
-4.11343e-09
1.92624e-05
-5.49667e-09
1.92642e-05
-7.857e-09
1.92652e-05
-1.12436e-08
1.92651e-05
-1.55875e-08
1.92637e-05
-2.07918e-08
1.92608e-05
-2.66964e-08
1.92561e-05
-3.29755e-08
1.92496e-05
-3.92248e-08
1.92412e-05
-4.5004e-08
1.92309e-05
-4.97173e-08
1.9219e-05
-5.25867e-08
1.92056e-05
-5.26185e-08
1.91914e-05
-4.85115e-08
1.91769e-05
-3.854e-08
1.91631e-05
-2.03865e-08
1.91517e-05
8.51787e-09
1.91442e-05
5.35398e-08
1.91438e-05
1.1953e-07
1.91544e-05
2.14941e-07
1.91816e-05
3.50399e-07
1.92343e-05
5.41031e-07
1.9323e-05
8.04896e-07
1.17183e-06
1.94786e-05
1.92489e-05
-2.05638e-09
1.92508e-05
-5.27061e-09
1.92527e-05
-5.86982e-09
1.92548e-05
-5.73309e-09
1.92572e-05
-5.78498e-09
1.92597e-05
-6.08085e-09
1.92624e-05
-6.7318e-09
1.92648e-05
-7.91694e-09
1.92668e-05
-9.86561e-09
1.92681e-05
-1.25381e-08
1.92683e-05
-1.58127e-08
1.92672e-05
-1.96737e-08
1.92646e-05
-2.40729e-08
1.92603e-05
-2.86854e-08
1.92542e-05
-3.3164e-08
1.92464e-05
-3.72282e-08
1.92371e-05
-4.03871e-08
1.92265e-05
-4.20059e-08
1.92152e-05
-4.1284e-08
1.92038e-05
-3.71572e-08
1.91935e-05
-2.8213e-08
1.91857e-05
-1.26083e-08
1.91823e-05
1.19323e-08
1.91866e-05
4.92451e-08
1.92025e-05
1.03653e-07
1.92357e-05
1.81723e-07
1.9294e-05
2.92127e-07
1.93888e-05
4.46174e-07
1.95346e-05
6.59087e-07
9.38969e-07
1.97675e-05
1.92495e-05
-3.41615e-09
1.92521e-05
-7.87748e-09
1.92542e-05
-7.94622e-09
1.92565e-05
-8.06745e-09
1.92591e-05
-8.40825e-09
1.92619e-05
-8.87458e-09
1.92648e-05
-9.58704e-09
1.92675e-05
-1.06189e-08
1.92697e-05
-1.21065e-08
1.92712e-05
-1.39655e-08
1.92716e-05
-1.62615e-08
1.92708e-05
-1.89195e-08
1.92685e-05
-2.17651e-08
1.92646e-05
-2.47364e-08
1.9259e-05
-2.75542e-08
1.92519e-05
-3.0105e-08
1.92435e-05
-3.19957e-08
1.92342e-05
-3.27584e-08
1.92248e-05
-3.18345e-08
1.92161e-05
-2.84518e-08
1.92094e-05
-2.15684e-08
1.92066e-05
-9.83642e-09
1.92105e-05
8.09223e-09
1.92247e-05
3.50759e-08
1.92544e-05
7.39334e-08
1.93065e-05
1.29588e-07
1.939e-05
2.08614e-07
1.95176e-05
3.18573e-07
1.97073e-05
4.69362e-07
6.48859e-07
1.99975e-05
1.92521e-05
-7.39098e-09
1.92554e-05
-1.11675e-08
1.92583e-05
-1.0876e-08
1.9261e-05
-1.07859e-08
1.92636e-05
-1.0939e-08
1.92659e-05
-1.12025e-08
1.92679e-05
-1.16105e-08
1.92695e-05
-1.22156e-08
1.92705e-05
-1.30875e-08
1.92707e-05
-1.42045e-08
1.927e-05
-1.55583e-08
1.92682e-05
-1.70909e-08
1.92652e-05
-1.87191e-08
1.92608e-05
-2.03808e-08
1.92551e-05
-2.18762e-08
1.92482e-05
-2.32195e-08
1.92404e-05
-2.41737e-08
1.92322e-05
-2.44896e-08
1.92242e-05
-2.38941e-08
1.92178e-05
-2.2005e-08
1.92145e-05
-1.83004e-08
1.92166e-05
-1.19424e-08
1.92268e-05
-2.14211e-09
1.92489e-05
1.30008e-08
1.92873e-05
3.55376e-08
1.93498e-05
6.71113e-08
1.9448e-05
1.10454e-07
1.95972e-05
1.69357e-07
1.98132e-05
2.53319e-07
3.32613e-07
2.01295e-05
1.92407e-05
1.92296e-05
1.92187e-05
1.92079e-05
1.9197e-05
1.91858e-05
1.91742e-05
1.91619e-05
1.91489e-05
1.91347e-05
1.91191e-05
1.9102e-05
1.90833e-05
1.90629e-05
1.9041e-05
1.90178e-05
1.89936e-05
1.89691e-05
1.89453e-05
1.89232e-05
1.89049e-05
1.8893e-05
1.88909e-05
1.89039e-05
1.89394e-05
1.90065e-05
1.9117e-05
1.92863e-05
1.95396e-05
1.98723e-05
2.03904e-05
-9.62317e-06
1.00708e-05
1.99394e-05
-9.70655e-06
1.01575e-05
1.94669e-05
-9.78504e-06
1.02576e-05
1.89697e-05
-9.85356e-06
1.03508e-05
1.8457e-05
-9.92287e-06
1.04356e-05
1.79288e-05
-9.99075e-06
1.05189e-05
1.73879e-05
-1.00592e-05
1.06002e-05
1.68366e-05
-1.01289e-05
1.06801e-05
1.6277e-05
-1.02009e-05
1.07606e-05
1.571e-05
-1.02762e-05
1.08431e-05
1.51357e-05
-1.03547e-05
1.0929e-05
1.45538e-05
-1.04367e-05
1.10187e-05
1.39635e-05
-1.05224e-05
1.11127e-05
1.33642e-05
-1.06123e-05
1.12116e-05
1.27552e-05
-1.07072e-05
1.13162e-05
1.21359e-05
-1.08081e-05
1.14275e-05
1.1505e-05
-1.09161e-05
1.15469e-05
1.08614e-05
-1.10326e-05
1.16762e-05
1.02032e-05
-1.11592e-05
1.18174e-05
9.52798e-06
-1.12979e-05
1.19731e-05
8.83274e-06
-1.14513e-05
1.21465e-05
8.11323e-06
-1.16223e-05
1.23418e-05
7.36382e-06
-1.18147e-05
1.25641e-05
6.57669e-06
-1.20335e-05
1.28206e-05
5.74093e-06
-1.22836e-05
1.31193e-05
4.84086e-06
-1.25743e-05
1.34744e-05
3.85782e-06
-1.29058e-05
1.38888e-05
2.73942e-06
-1.33112e-05
1.44296e-05
1.52053e-06
-1.36893e-05
1.49082e-05
-1.44895e-05
1.601e-05
2.05164e-05
-9.15294e-06
2.00197e-05
-9.20994e-06
1.95039e-05
-9.26922e-06
1.89775e-05
-9.32715e-06
1.84419e-05
-9.38722e-06
1.78969e-05
-9.44581e-06
1.73463e-05
-9.50861e-06
1.6791e-05
-9.57352e-06
1.62303e-05
-9.64025e-06
1.56634e-05
-9.70921e-06
1.50893e-05
-9.78062e-06
1.45072e-05
-9.85469e-06
1.39166e-05
-9.93182e-06
1.33169e-05
-1.00126e-05
1.27075e-05
-1.00978e-05
1.20875e-05
-1.01881e-05
1.14558e-05
-1.02844e-05
1.0811e-05
-1.03878e-05
1.01512e-05
-1.04993e-05
9.47386e-06
-1.06206e-05
8.77575e-06
-1.07532e-05
8.05267e-06
-1.08992e-05
7.29901e-06
-1.10611e-05
6.50712e-06
-1.12416e-05
5.6668e-06
-1.14432e-05
4.76379e-06
-1.16713e-05
3.77884e-06
-1.19208e-05
2.68196e-06
-1.22144e-05
1.46423e-06
-1.24716e-05
-1.30253e-05
2.04382e-05
-8.65056e-06
1.99252e-05
-8.69693e-06
1.94027e-05
-8.74676e-06
1.88747e-05
-8.79912e-06
1.83405e-05
-8.85308e-06
1.78029e-05
-8.90821e-06
1.72592e-05
-8.96491e-06
1.67088e-05
-9.0231e-06
1.61512e-05
-9.08269e-06
1.5586e-05
-9.14401e-06
1.50128e-05
-9.20741e-06
1.44314e-05
-9.27322e-06
1.38413e-05
-9.3418e-06
1.32423e-05
-9.41359e-06
1.26336e-05
-9.48906e-06
1.20142e-05
-9.56869e-06
1.13828e-05
-9.65309e-06
1.0738e-05
-9.74293e-06
1.00776e-05
-9.839e-06
9.39929e-06
-9.94222e-06
8.6997e-06
-1.00536e-05
7.97467e-06
-1.01742e-05
7.21872e-06
-1.03051e-05
6.42456e-06
-1.04475e-05
5.58265e-06
-1.06013e-05
4.67982e-06
-1.07684e-05
3.69905e-06
-1.09401e-05
2.61699e-06
-1.11323e-05
1.40914e-06
-1.12637e-05
-1.16162e-05
2.03569e-05
-8.14197e-06
1.98418e-05
-8.18175e-06
1.93196e-05
-8.22456e-06
1.87915e-05
-8.271e-06
1.82576e-05
-8.31927e-06
1.77178e-05
-8.36834e-06
1.71712e-05
-8.4183e-06
1.66176e-05
-8.46952e-06
1.60571e-05
-8.52217e-06
1.54895e-05
-8.57644e-06
1.49146e-05
-8.63254e-06
1.43321e-05
-8.69067e-06
1.37413e-05
-8.75104e-06
1.31416e-05
-8.8139e-06
1.25321e-05
-8.87953e-06
1.19117e-05
-8.94826e-06
1.1279e-05
-9.02045e-06
1.06326e-05
-9.09648e-06
9.97033e-06
-9.17676e-06
9.28978e-06
-9.26167e-06
8.58774e-06
-9.35155e-06
7.86014e-06
-9.4466e-06
7.10177e-06
-9.54674e-06
6.30583e-06
-9.65154e-06
5.46368e-06
-9.75918e-06
4.56356e-06
-9.86832e-06
3.59132e-06
-9.96783e-06
2.52677e-06
-1.00677e-05
1.345e-06
-1.00819e-05
-1.02712e-05
2.0244e-05
-7.62831e-06
1.97247e-05
-7.66247e-06
1.91992e-05
-7.69908e-06
1.86681e-05
-7.73984e-06
1.81314e-05
-7.78257e-06
1.75889e-05
-7.82582e-06
1.70403e-05
-7.86971e-06
1.64854e-05
-7.91467e-06
1.59241e-05
-7.96088e-06
1.5356e-05
-8.00837e-06
1.47807e-05
-8.05722e-06
1.41976e-05
-8.10754e-06
1.3606e-05
-8.15948e-06
1.30053e-05
-8.21318e-06
1.23946e-05
-8.26877e-06
1.17727e-05
-8.32641e-06
1.11385e-05
-8.38621e-06
1.04903e-05
-8.44827e-06
9.82611e-06
-8.5126e-06
9.14355e-06
-8.57911e-06
8.43953e-06
-8.64753e-06
7.71021e-06
-8.71728e-06
6.95077e-06
-8.78731e-06
6.15509e-06
-8.85586e-06
5.31554e-06
-8.91963e-06
4.42197e-06
-8.97475e-06
3.46289e-06
-9.00875e-06
2.42058e-06
-9.02544e-06
1.27602e-06
-8.93735e-06
-8.99514e-06
2.01003e-05
-7.11062e-06
1.95776e-05
-7.1398e-06
1.90494e-05
-7.17086e-06
1.85159e-05
-7.20629e-06
1.7977e-05
-7.24369e-06
1.74325e-05
-7.28134e-06
1.68821e-05
-7.31932e-06
1.63256e-05
-7.35811e-06
1.57625e-05
-7.39785e-06
1.51926e-05
-7.43848e-06
1.46154e-05
-7.48002e-06
1.40304e-05
-7.52251e-06
1.34369e-05
-7.56601e-06
1.28343e-05
-7.61054e-06
1.22216e-05
-7.65608e-06
1.15978e-05
-7.7026e-06
1.09616e-05
-7.74999e-06
1.03114e-05
-7.79806e-06
9.64525e-06
-7.84649e-06
8.96091e-06
-7.89477e-06
8.25549e-06
-7.94211e-06
7.52548e-06
-7.98728e-06
6.76658e-06
-8.0284e-06
5.97342e-06
-8.0627e-06
5.1395e-06
-8.08571e-06
4.25643e-06
-8.09167e-06
3.31517e-06
-8.06749e-06
2.30096e-06
-8.01123e-06
1.20274e-06
-7.83913e-06
-7.7924e-06
1.99228e-05
-6.58903e-06
1.93967e-05
-6.61364e-06
1.88654e-05
-6.63956e-06
1.83289e-05
-6.66986e-06
1.77873e-05
-6.70205e-06
1.72402e-05
-6.73422e-06
1.66873e-05
-6.76643e-06
1.61283e-05
-6.79916e-06
1.5563e-05
-6.83252e-06
1.49909e-05
-6.86639e-06
1.44116e-05
-6.90071e-06
1.38246e-05
-6.93545e-06
1.32291e-05
-6.97055e-06
1.26245e-05
-7.00594e-06
1.20099e-05
-7.04145e-06
1.13841e-05
-7.07688e-06
1.07461e-05
-7.11193e-06
1.00942e-05
-7.14618e-06
9.42671e-06
-7.179e-06
8.74149e-06
-7.20955e-06
8.03596e-06
-7.23658e-06
7.30702e-06
-7.25834e-06
6.55095e-06
-7.27233e-06
5.76326e-06
-7.275e-06
4.93863e-06
-7.26109e-06
4.07046e-06
-7.2235e-06
3.15205e-06
-7.14908e-06
2.17192e-06
-7.03111e-06
1.12634e-06
-6.79355e-06
-6.66606e-06
1.97089e-05
-6.06352e-06
1.91792e-05
-6.0839e-06
1.86446e-05
-6.10502e-06
1.81052e-05
-6.13039e-06
1.75606e-05
-6.15749e-06
1.70107e-05
-6.18432e-06
1.64552e-05
-6.21089e-06
1.58937e-05
-6.23768e-06
1.53259e-05
-6.26476e-06
1.47515e-05
-6.29196e-06
1.41699e-05
-6.31913e-06
1.35806e-05
-6.34618e-06
1.29831e-05
-6.37297e-06
1.23764e-05
-6.39931e-06
1.17599e-05
-6.42494e-06
1.11325e-05
-6.44949e-06
1.04931e-05
-6.4725e-06
9.84027e-06
-6.49335e-06
9.17243e-06
-6.51116e-06
8.48768e-06
-6.5248e-06
7.7838e-06
-6.53269e-06
7.05815e-06
-6.53269e-06
6.30768e-06
-6.52186e-06
5.52878e-06
-6.4961e-06
4.71737e-06
-6.44968e-06
3.86861e-06
-6.37475e-06
2.978e-06
-6.25847e-06
2.03759e-06
-6.09069e-06
1.04994e-06
-5.80591e-06
-5.61612e-06
1.9457e-05
-5.53409e-06
1.89237e-05
-5.55052e-06
1.83858e-05
-5.56718e-06
1.78432e-05
-5.58779e-06
1.72956e-05
-5.60992e-06
1.67429e-05
-5.63154e-06
1.61846e-05
-5.65261e-06
1.56205e-05
-5.67359e-06
1.50502e-05
-5.69452e-06
1.44735e-05
-5.71517e-06
1.38897e-05
-5.73535e-06
1.32984e-05
-5.75488e-06
1.2699e-05
-5.77356e-06
1.20908e-05
-5.79111e-06
1.1473e-05
-5.80716e-06
1.08447e-05
-5.82123e-06
1.02049e-05
-5.83272e-06
9.55241e-06
-5.84082e-06
8.88576e-06
-5.84451e-06
8.20337e-06
-5.84241e-06
7.5034e-06
-5.83272e-06
6.78374e-06
-5.81303e-06
6.04199e-06
-5.78011e-06
5.2755e-06
-5.72961e-06
4.48136e-06
-5.65554e-06
3.65642e-06
-5.5498e-06
2.79814e-06
-5.4002e-06
1.902e-06
-5.19455e-06
9.75229e-07
-4.87913e-06
-4.64089e-06
1.91674e-05
-5.00082e-06
1.86305e-05
-5.01361e-06
1.80894e-05
-5.02614e-06
1.75438e-05
-5.04219e-06
1.69934e-05
-5.05947e-06
1.64379e-05
-5.07603e-06
1.5877e-05
-5.09178e-06
1.53106e-05
-5.10713e-06
1.47382e-05
-5.1221e-06
1.41594e-05
-5.13642e-06
1.35739e-05
-5.14984e-06
1.29812e-05
-5.16213e-06
1.23806e-05
-5.17302e-06
1.17717e-05
-5.18217e-06
1.11536e-05
-5.18911e-06
1.05257e-05
-5.19329e-06
9.88696e-06
-5.19398e-06
9.2364e-06
-5.19027e-06
8.57289e-06
-5.18099e-06
7.89511e-06
-5.16464e-06
7.20165e-06
-5.13926e-06
6.49092e-06
-5.1023e-06
5.76121e-06
-5.05041e-06
5.01074e-06
-4.97914e-06
4.23775e-06
-4.88255e-06
3.44057e-06
-4.75263e-06
2.61845e-06
-4.57807e-06
1.76974e-06
-4.34584e-06
9.04558e-07