/*--------------------------------*- C++ -*----------------------------------*\
  =========                 |
  \\      /  F ield         | OpenFOAM: The Open Source CFD Toolbox
   \\    /   O peration     | Website:  https://openfoam.org
    \\  /    A nd           | Version:  11
     \\/     M anipulation  |
\*---------------------------------------------------------------------------*/
FoamFile
{
    format      ascii;
    class       surfaceScalarField;
    location    "3";
    object      phi;
}
// * * * * * * * * * * * * * * * * * * * * * * * * * * * * * * * * * * * * * //

dimensions      [0 3 -1 0 0 0 0];

internalField   nonuniform List<scalar> 
24840
(
1.53201e-05
1.32671e-08
1.53023e-05
1.77572e-08
1.52861e-05
1.622e-08
1.52705e-05
1.5586e-08
1.52551e-05
1.53807e-08
1.52402e-05
1.49534e-08
1.52259e-05
1.42549e-08
1.52126e-05
1.32944e-08
1.52006e-05
1.20387e-08
1.51901e-05
1.04778e-08
1.51816e-05
8.49546e-09
1.51756e-05
5.96325e-09
1.51727e-05
2.92192e-09
1.51735e-05
-7.92049e-10
1.51789e-05
-5.39629e-09
1.519e-05
-1.10972e-08
1.52081e-05
-1.81044e-08
1.52348e-05
-2.67321e-08
1.52724e-05
-3.75367e-08
1.5323e-05
-5.0591e-08
1.53899e-05
-6.69335e-08
1.54769e-05
-8.69858e-08
1.5588e-05
-1.11124e-07
1.57294e-05
-1.41433e-07
1.59088e-05
-1.79355e-07
1.61351e-05
-2.26273e-07
1.64194e-05
-2.8433e-07
1.6771e-05
-3.51631e-07
1.72227e-05
-4.51674e-07
-4.78187e-07
1.77009e-05
1.53394e-05
7.15592e-09
1.53439e-05
1.33274e-08
1.53479e-05
1.21855e-08
1.53518e-05
1.17274e-08
1.53558e-05
1.13464e-08
1.53603e-05
1.04805e-08
1.53654e-05
9.15848e-09
1.53713e-05
7.32399e-09
1.53784e-05
4.95001e-09
1.53869e-05
1.99211e-09
1.53972e-05
-1.74869e-09
1.54096e-05
-6.49714e-09
1.54247e-05
-1.2204e-08
1.54431e-05
-1.91853e-08
1.54655e-05
-2.77384e-08
1.54926e-05
-3.81787e-08
1.55254e-05
-5.09664e-08
1.55652e-05
-6.65283e-08
1.5613e-05
-8.52665e-08
1.56713e-05
-1.08937e-07
1.57426e-05
-1.3822e-07
1.58298e-05
-1.74204e-07
1.59382e-05
-2.19555e-07
1.60732e-05
-2.76443e-07
1.62414e-05
-3.47552e-07
1.64508e-05
-4.35655e-07
1.6711e-05
-5.44514e-07
1.70342e-05
-6.74818e-07
1.74332e-05
-8.50699e-07
-9.6814e-07
1.79232e-05
1.53363e-05
4.21573e-09
1.53403e-05
9.32034e-09
1.53434e-05
9.07031e-09
1.5347e-05
8.12387e-09
1.5351e-05
7.35953e-09
1.53553e-05
6.1441e-09
1.53601e-05
4.35858e-09
1.53657e-05
1.75808e-09
1.53722e-05
-1.5918e-09
1.538e-05
-5.79892e-09
1.53895e-05
-1.12153e-08
1.5401e-05
-1.7983e-08
1.5415e-05
-2.62675e-08
1.54323e-05
-3.64108e-08
1.54533e-05
-4.88188e-08
1.54791e-05
-6.39674e-08
1.55107e-05
-8.24952e-08
1.55493e-05
-1.05157e-07
1.55968e-05
-1.32804e-07
1.56551e-05
-1.67162e-07
1.57267e-05
-2.09837e-07
1.58149e-05
-2.62405e-07
1.59232e-05
-3.27883e-07
1.60566e-05
-4.09813e-07
1.6221e-05
-5.11984e-07
1.64241e-05
-6.38745e-07
1.66759e-05
-7.9633e-07
1.69879e-05
-9.86815e-07
1.73762e-05
-1.23903e-06
-1.45616e-06
1.78643e-05
1.53351e-05
2.41998e-09
1.53386e-05
5.88674e-09
1.53416e-05
6.02318e-09
1.53449e-05
4.85341e-09
1.53486e-05
3.6024e-09
1.53528e-05
1.96251e-09
1.53574e-05
-2.51267e-10
1.53628e-05
-3.63845e-09
1.53691e-05
-7.91084e-09
1.53767e-05
-1.33882e-08
1.53859e-05
-2.0372e-08
1.5397e-05
-2.91068e-08
1.54106e-05
-3.98716e-08
1.54273e-05
-5.3056e-08
1.54476e-05
-6.91724e-08
1.54725e-05
-8.88606e-08
1.5503e-05
-1.12944e-07
1.55402e-05
-1.42441e-07
1.5586e-05
-1.78591e-07
1.56421e-05
-2.23281e-07
1.57109e-05
-2.7863e-07
1.57955e-05
-3.46961e-07
1.58995e-05
-4.31892e-07
1.60276e-05
-5.37908e-07
1.61856e-05
-6.69981e-07
1.63808e-05
-8.33991e-07
1.66229e-05
-1.03836e-06
1.69239e-05
-1.28782e-06
1.72977e-05
-1.61287e-06
-1.93271e-06
1.77743e-05
1.53345e-05
1.23185e-09
1.53372e-05
3.19726e-09
1.53401e-05
3.171e-09
1.53431e-05
1.816e-09
1.53466e-05
1.06392e-10
1.53505e-05
-1.98873e-09
1.53551e-05
-4.797e-09
1.53602e-05
-8.79463e-09
1.53663e-05
-1.39922e-08
1.53736e-05
-2.0676e-08
1.53824e-05
-2.91606e-08
1.53931e-05
-3.97769e-08
1.54061e-05
-5.28917e-08
1.5422e-05
-6.89673e-08
1.54415e-05
-8.86171e-08
1.54652e-05
-1.12624e-07
1.54943e-05
-1.41986e-07
1.55298e-05
-1.77961e-07
1.55733e-05
-2.22113e-07
1.56266e-05
-2.76568e-07
1.56919e-05
-3.43907e-07
1.57721e-05
-4.27152e-07
1.58706e-05
-5.30466e-07
1.59919e-05
-6.59131e-07
1.61413e-05
-8.19384e-07
1.6326e-05
-1.0187e-06
1.65551e-05
-1.26746e-06
1.68408e-05
-1.57356e-06
1.71957e-05
-1.96775e-06
-2.38815e-06
1.76511e-05
1.53342e-05
3.83443e-10
1.53363e-05
1.04077e-09
1.5339e-05
5.43194e-10
1.53418e-05
-1.06309e-09
1.53451e-05
-3.17332e-09
1.53489e-05
-5.73752e-09
1.53532e-05
-9.10795e-09
1.53581e-05
-1.37192e-08
1.53639e-05
-1.97819e-08
1.53708e-05
-2.75881e-08
1.53791e-05
-3.74881e-08
1.53892e-05
-4.98776e-08
1.54015e-05
-6.51963e-08
1.54166e-05
-8.39826e-08
1.54349e-05
-1.06942e-07
1.54572e-05
-1.34987e-07
1.54845e-05
-1.69283e-07
1.55179e-05
-2.11302e-07
1.55587e-05
-2.62891e-07
1.56085e-05
-3.26444e-07
1.56696e-05
-4.04935e-07
1.57444e-05
-5.01973e-07
1.58362e-05
-6.22289e-07
1.5949e-05
-7.71949e-07
1.6088e-05
-9.58364e-07
1.62598e-05
-1.19052e-06
1.6473e-05
-1.48061e-06
1.67393e-05
-1.83983e-06
1.70703e-05
-2.29882e-06
-2.81626e-06
1.74984e-05
1.5334e-05
-2.72427e-10
1.53358e-05
-7.27618e-10
1.53381e-05
-1.81379e-09
1.53408e-05
-3.74025e-09
1.53438e-05
-6.22496e-09
1.53473e-05
-9.24361e-09
1.53514e-05
-1.31421e-08
1.5356e-05
-1.83583e-08
1.53615e-05
-2.52228e-08
1.53679e-05
-3.407e-08
1.53757e-05
-4.52869e-08
1.53852e-05
-5.93171e-08
1.53967e-05
-7.66664e-08
1.54106e-05
-9.79485e-08
1.54276e-05
-1.23957e-07
1.54484e-05
-1.55718e-07
1.54736e-05
-1.94549e-07
1.55044e-05
-2.42112e-07
1.5542e-05
-3.00494e-07
1.5588e-05
-3.72351e-07
1.5644e-05
-4.61005e-07
1.57126e-05
-5.70566e-07
1.57966e-05
-7.0632e-07
1.58997e-05
-8.75037e-07
1.60265e-05
-1.08517e-06
1.61831e-05
-1.34711e-06
1.63773e-05
-1.67479e-06
1.66201e-05
-2.08266e-06
1.69225e-05
-2.60121e-06
-3.21065e-06
1.73169e-05
1.53339e-05
-8.10262e-10
1.53353e-05
-2.20373e-09
1.53374e-05
-3.90289e-09
1.53399e-05
-6.20237e-09
1.53427e-05
-9.05026e-09
1.5346e-05
-1.24985e-08
1.53497e-05
-1.68912e-08
1.53541e-05
-2.26826e-08
1.53591e-05
-3.02791e-08
1.53651e-05
-4.00688e-08
1.53723e-05
-5.24795e-08
1.5381e-05
-6.79984e-08
1.53915e-05
-8.71878e-08
1.54043e-05
-1.10728e-07
1.54198e-05
-1.39491e-07
1.54387e-05
-1.74605e-07
1.54617e-05
-2.17516e-07
1.54896e-05
-2.70055e-07
1.55236e-05
-3.34514e-07
1.55651e-05
-4.13785e-07
1.56156e-05
-5.11493e-07
1.56772e-05
-6.32163e-07
1.57524e-05
-7.81575e-07
1.58445e-05
-9.67118e-07
1.59575e-05
-1.19815e-06
1.60967e-05
-1.48634e-06
1.62691e-05
-1.8472e-06
1.64848e-05
-2.29831e-06
1.67536e-05
-2.87001e-06
-3.56452e-06
1.71074e-05
1.53338e-05
-1.25927e-09
1.5335e-05
-3.45638e-09
1.53369e-05
-5.74686e-09
1.53391e-05
-8.44386e-09
1.53417e-05
-1.1644e-08
1.53447e-05
-1.54875e-08
1.53481e-05
-2.0331e-08
1.53521e-05
-2.66474e-08
1.53567e-05
-3.48983e-08
1.53622e-05
-4.5526e-08
1.53687e-05
-5.89987e-08
1.53765e-05
-7.58416e-08
1.5386e-05
-9.66626e-08
1.53975e-05
-1.222e-07
1.54114e-05
-1.53392e-07
1.54282e-05
-1.91455e-07
1.54487e-05
-2.37949e-07
1.54735e-05
-2.94841e-07
1.55035e-05
-3.64598e-07
1.55401e-05
-4.5031e-07
1.55844e-05
-5.55851e-07
1.56383e-05
-6.86083e-07
1.5704e-05
-8.47196e-07
1.57839e-05
-1.0471e-06
1.58817e-05
-1.29589e-06
1.60017e-05
-1.60635e-06
1.61498e-05
-1.99531e-06
1.63348e-05
-2.48327e-06
1.65652e-05
-3.10044e-06
-3.87076e-06
1.68715e-05
1.53337e-05
-1.63861e-09
1.53348e-05
-4.5297e-09
1.53364e-05
-7.36766e-09
1.53384e-05
-1.04619e-08
1.53408e-05
-1.3999e-08
1.53435e-05
-1.81976e-08
1.53466e-05
-2.34404e-08
1.53502e-05
-3.02226e-08
1.53543e-05
-3.90482e-08
1.53592e-05
-5.0405e-08
1.5365e-05
-6.47972e-08
1.53719e-05
-8.27823e-08
1.53803e-05
-1.05006e-07
1.53903e-05
-1.32255e-07
1.54025e-05
-1.65525e-07
1.54171e-05
-2.06104e-07
1.54348e-05
-2.55643e-07
1.54562e-05
-3.16222e-07
1.5482e-05
-3.90441e-07
1.55133e-05
-4.8155e-07
1.5551e-05
-5.93616e-07
1.55967e-05
-7.31753e-07
1.5652e-05
-9.02464e-07
1.57189e-05
-1.11405e-06
1.58003e-05
-1.3772e-06
1.58994e-05
-1.70551e-06
1.6021e-05
-2.11693e-06
1.61722e-05
-2.63442e-06
1.63598e-05
-3.28806e-06
-4.12228e-06
1.66113e-05
1.53337e-05
-1.96139e-09
1.53346e-05
-5.45197e-09
1.5336e-05
-8.78397e-09
1.53378e-05
-1.22553e-08
1.53399e-05
-1.6106e-08
1.53423e-05
-2.06179e-08
1.53451e-05
-2.6207e-08
1.53482e-05
-3.33901e-08
1.53519e-05
-4.27034e-08
1.53562e-05
-5.46706e-08
1.53612e-05
-6.98275e-08
1.53672e-05
-8.87594e-08
1.53743e-05
-1.12143e-07
1.53829e-05
-1.40801e-07
1.53931e-05
-1.75776e-07
1.54054e-05
-2.18413e-07
1.54202e-05
-2.7043e-07
1.5438e-05
-3.3399e-07
1.54593e-05
-4.11794e-07
1.5485e-05
-5.07202e-07
1.55158e-05
-6.24418e-07
1.55528e-05
-7.68722e-07
1.55971e-05
-9.4682e-07
1.56503e-05
-1.16728e-06
1.57143e-05
-1.44113e-06
1.57913e-05
-1.78256e-06
1.58847e-05
-2.21029e-06
1.59994e-05
-2.74917e-06
1.61403e-05
-3.42895e-06
-4.31243e-06
1.63305e-05
1.53336e-05
-2.23623e-09
1.53344e-05
-6.24291e-09
1.53356e-05
-1.00121e-08
1.53372e-05
-1.38275e-08
1.53391e-05
-1.7961e-08
1.53412e-05
-2.2743e-08
1.53436e-05
-2.86218e-08
1.53463e-05
-3.61344e-08
1.53495e-05
-4.58406e-08
1.53531e-05
-5.82923e-08
1.53573e-05
-7.40512e-08
1.53623e-05
-9.37248e-08
1.53682e-05
-1.18013e-07
1.53751e-05
-1.47764e-07
1.53834e-05
-1.84056e-07
1.53933e-05
-2.28272e-07
1.5405e-05
-2.82176e-07
1.5419e-05
-3.47987e-07
1.54357e-05
-4.28467e-07
1.54555e-05
-5.27042e-07
1.54791e-05
-6.47986e-07
1.5507e-05
-7.9666e-07
1.55401e-05
-9.79864e-07
1.55791e-05
-1.20626e-06
1.5625e-05
-1.48705e-06
1.5679e-05
-1.83664e-06
1.57429e-05
-2.27411e-06
1.58192e-05
-2.82555e-06
1.59103e-05
-3.52003e-06
-4.43545e-06
1.60333e-05
1.53336e-05
-2.46901e-09
1.53342e-05
-6.91683e-09
1.53353e-05
-1.10664e-08
1.53367e-05
-1.51858e-08
1.53383e-05
-1.9565e-08
1.53401e-05
-2.457e-08
1.53421e-05
-3.06777e-08
1.53444e-05
-3.84429e-08
1.5347e-05
-4.84421e-08
1.535e-05
-6.12474e-08
1.53534e-05
-7.74394e-08
1.53573e-05
-9.76421e-08
1.53619e-05
-1.2257e-07
1.53672e-05
-1.5309e-07
1.53734e-05
-1.90298e-07
1.53808e-05
-2.356e-07
1.53894e-05
-2.90786e-07
1.53995e-05
-3.581e-07
1.54113e-05
-4.40328e-07
1.54252e-05
-5.40916e-07
1.54414e-05
-6.64146e-07
1.54601e-05
-8.15373e-07
1.54816e-05
-1.00137e-06
1.55061e-05
-1.23075e-06
1.55337e-05
-1.51461e-06
1.55643e-05
-1.8673e-06
1.55979e-05
-2.30773e-06
1.56348e-05
-2.86244e-06
1.56741e-05
-3.55929e-06
-4.48707e-06
1.57257e-05
1.53335e-05
-2.66418e-09
1.53341e-05
-7.48544e-09
1.5335e-05
-1.19599e-08
1.53361e-05
-1.63387e-08
1.53375e-05
-2.09208e-08
1.5339e-05
-2.60984e-08
1.53407e-05
-3.23715e-08
1.53426e-05
-4.03086e-08
1.53446e-05
-5.04967e-08
1.53469e-05
-6.35203e-08
1.53494e-05
-7.99724e-08
1.53523e-05
-1.00487e-07
1.53555e-05
-1.25785e-07
1.53592e-05
-1.5674e-07
1.53633e-05
-1.94457e-07
1.53681e-05
-2.40347e-07
1.53735e-05
-2.96202e-07
1.53796e-05
-3.64265e-07
1.53866e-05
-4.47309e-07
1.53945e-05
-5.48753e-07
1.54031e-05
-6.72826e-07
1.54126e-05
-8.24796e-07
1.54225e-05
-1.01129e-06
1.54324e-05
-1.24071e-06
1.54417e-05
-1.52383e-06
1.54489e-05
-1.87455e-06
1.54523e-05
-2.31116e-06
1.54496e-05
-2.85967e-06
1.54364e-05
-3.54611e-06
-4.46507e-06
1.54144e-05
1.53335e-05
-2.82555e-09
1.5334e-05
-7.95911e-09
1.53347e-05
-1.27052e-08
1.53357e-05
-1.72961e-08
1.53368e-05
-2.20342e-08
1.5338e-05
-2.73308e-08
1.53393e-05
-3.37036e-08
1.53408e-05
-4.17294e-08
1.53423e-05
-5.19994e-08
1.53439e-05
-6.51035e-08
1.53455e-05
-8.16401e-08
1.53473e-05
-1.02246e-07
1.53491e-05
-1.27642e-07
1.53511e-05
-1.58699e-07
1.53532e-05
-1.96515e-07
1.53553e-05
-2.42491e-07
1.53575e-05
-2.98402e-07
1.53597e-05
-3.66463e-07
1.53618e-05
-4.49399e-07
1.53636e-05
-5.50557e-07
1.53648e-05
-6.74055e-07
1.5365e-05
-8.24995e-07
1.53635e-05
-1.00975e-06
1.53591e-05
-1.23636e-06
1.53503e-05
-1.51503e-06
1.53347e-05
-1.8589e-06
1.53086e-05
-2.28507e-06
1.52671e-05
-2.81813e-06
1.52024e-05
-3.48144e-06
-4.3698e-06
1.51071e-05
1.53335e-05
-2.95682e-09
1.53339e-05
-8.34813e-09
1.53345e-05
-1.33155e-08
1.53352e-05
-1.80697e-08
1.53361e-05
-2.29134e-08
1.53371e-05
-2.82729e-08
1.5338e-05
-3.46781e-08
1.5339e-05
-4.2708e-08
1.534e-05
-5.29514e-08
1.53409e-05
-6.5997e-08
1.53417e-05
-8.24421e-08
1.53423e-05
-1.02919e-07
1.53428e-05
-1.2814e-07
1.53431e-05
-1.58965e-07
1.53431e-05
-1.96473e-07
1.53426e-05
-2.4204e-07
1.53416e-05
-2.97403e-07
1.53399e-05
-3.64722e-07
1.53371e-05
-4.46644e-07
1.5333e-05
-5.46404e-07
1.53269e-05
-6.67954e-07
1.5318e-05
-8.16159e-07
1.53053e-05
-9.97047e-07
1.52871e-05
-1.21813e-06
1.52609e-05
-1.48888e-06
1.52234e-05
-1.82132e-06
1.51692e-05
-2.23087e-06
1.50908e-05
-2.73978e-06
1.49773e-05
-3.36795e-06
-4.20455e-06
1.48121e-05
1.53334e-05
-3.06199e-09
1.53338e-05
-8.66375e-09
1.53342e-05
-1.38056e-08
1.53348e-05
-1.86731e-08
1.53355e-05
-2.3569e-08
1.53362e-05
-2.89333e-08
1.53368e-05
-3.5303e-08
1.53373e-05
-4.32519e-08
1.53377e-05
-5.33599e-08
1.5338e-05
-6.62083e-08
1.53379e-05
-8.23871e-08
1.53375e-05
-1.02517e-07
1.53367e-05
-1.27296e-07
1.53352e-05
-1.5756e-07
1.53331e-05
-1.9436e-07
1.53301e-05
-2.39032e-07
1.5326e-05
-2.93256e-07
1.53204e-05
-3.59115e-07
1.53129e-05
-4.39149e-07
1.53029e-05
-5.36441e-07
1.52897e-05
-6.54735e-07
1.52721e-05
-7.98594e-07
1.52487e-05
-9.73615e-07
1.52172e-05
-1.18668e-06
1.51747e-05
-1.44632e-06
1.51166e-05
-1.7632e-06
1.50363e-05
-2.15063e-06
1.49242e-05
-2.62765e-06
1.47663e-05
-3.21001e-06
-3.9757e-06
1.45374e-05
1.53334e-05
-3.14576e-09
1.53337e-05
-8.91916e-09
1.53341e-05
-1.41924e-08
1.53345e-05
-1.91223e-08
1.5335e-05
-2.40142e-08
1.53353e-05
-2.93239e-08
1.53356e-05
-3.559e-08
1.53358e-05
-4.33732e-08
1.53356e-05
-5.32378e-08
1.53352e-05
-6.57524e-08
1.53343e-05
-8.14932e-08
1.53328e-05
-1.01063e-07
1.53307e-05
-1.25136e-07
1.53276e-05
-1.54519e-07
1.53235e-05
-1.90223e-07
1.5318e-05
-2.3353e-07
1.53108e-05
-2.86047e-07
1.53014e-05
-3.49756e-07
1.52893e-05
-4.27067e-07
1.52738e-05
-5.2088e-07
1.52537e-05
-6.3469e-07
1.52278e-05
-7.7271e-07
1.51943e-05
-9.40038e-07
1.51504e-05
-1.14284e-06
1.50927e-05
-1.38857e-06
1.50158e-05
-1.68632e-06
1.49121e-05
-2.04697e-06
1.47702e-05
-2.48572e-06
1.45737e-05
-3.01355e-06
-3.69258e-06
1.42906e-05
1.53334e-05
-3.21403e-09
1.53336e-05
-9.13068e-09
1.53339e-05
-1.44965e-08
1.53342e-05
-1.94354e-08
1.53345e-05
-2.4264e-08
1.53346e-05
-2.9459e-08
1.53346e-05
-3.55545e-08
1.53343e-05
-4.30883e-08
1.53337e-05
-5.26034e-08
1.53326e-05
-6.4651e-08
1.53309e-05
-7.97875e-08
1.53284e-05
-9.85909e-08
1.53249e-05
-1.21705e-07
1.53203e-05
-1.49898e-07
1.53142e-05
-1.84133e-07
1.53063e-05
-2.25624e-07
1.52962e-05
-2.7589e-07
1.52832e-05
-3.36798e-07
1.52668e-05
-4.10599e-07
1.52459e-05
-4.9999e-07
1.52194e-05
-6.08183e-07
1.51856e-05
-7.39006e-07
1.51426e-05
-8.97011e-07
1.50874e-05
-1.08758e-06
1.50158e-05
-1.31703e-06
1.49223e-05
-1.59275e-06
1.47983e-05
-1.923e-06
1.46313e-05
-2.31869e-06
1.44035e-05
-2.78577e-06
-3.367e-06
1.40779e-05
1.53334e-05
-3.27457e-09
1.53336e-05
-9.3194e-09
1.53338e-05
-1.47426e-08
1.5334e-05
-1.96327e-08
1.53341e-05
-2.43354e-08
1.5334e-05
-2.93563e-08
1.53337e-05
-3.52153e-08
1.5333e-05
-4.24177e-08
1.53319e-05
-5.14804e-08
1.53301e-05
-6.29328e-08
1.53277e-05
-7.73052e-08
1.53242e-05
-9.51442e-08
1.53196e-05
-1.17057e-07
1.53134e-05
-1.43767e-07
1.53055e-05
-1.76178e-07
1.52953e-05
-2.15428e-07
1.52823e-05
-2.62934e-07
1.5266e-05
-3.20428e-07
1.52453e-05
-3.8999e-07
1.52194e-05
-4.74089e-07
1.51869e-05
-5.75637e-07
1.51459e-05
-6.98051e-07
1.50943e-05
-8.45314e-07
1.50287e-05
-1.02201e-06
1.49449e-05
-1.23327e-06
1.48369e-05
-1.48476e-06
1.4696e-05
-1.7821e-06
1.45091e-05
-2.13177e-06
1.4258e-05
-2.5347e-06
-3.01247e-06
1.39035e-05
1.53334e-05
-3.33812e-09
1.53336e-05
-9.51352e-09
1.53338e-05
-1.49604e-08
1.53339e-05
-1.97359e-08
1.53338e-05
-2.42471e-08
1.53335e-05
-2.90363e-08
1.53329e-05
-3.45949e-08
1.53319e-05
-4.13857e-08
1.53303e-05
-4.98968e-08
1.5328e-05
-6.06319e-08
1.53248e-05
-7.40888e-08
1.53204e-05
-9.07769e-08
1.53146e-05
-1.11261e-07
1.5307e-05
-1.36213e-07
1.52973e-05
-1.66468e-07
1.5285e-05
-2.03079e-07
1.52694e-05
-2.47349e-07
1.52498e-05
-3.00865e-07
1.52254e-05
-3.6552e-07
1.51948e-05
-4.43542e-07
1.51567e-05
-5.37526e-07
1.51091e-05
-6.50472e-07
1.50496e-05
-7.85791e-07
1.49749e-05
-9.47271e-07
1.48805e-05
-1.13891e-06
1.47604e-05
-1.36469e-06
1.46061e-05
-1.62776e-06
1.44046e-05
-1.93029e-06
1.41386e-05
-2.26866e-06
-2.64323e-06
1.37693e-05
1.53334e-05
-3.42028e-09
1.53337e-05
-9.75214e-09
1.53339e-05
-1.51856e-08
1.53339e-05
-1.9767e-08
1.53337e-05
-2.40178e-08
1.53332e-05
-2.85224e-08
1.53323e-05
-3.37196e-08
1.53309e-05
-4.00189e-08
1.53289e-05
-4.78836e-08
1.53261e-05
-5.77893e-08
1.53222e-05
-7.01913e-08
1.5317e-05
-8.55552e-08
1.53101e-05
-1.04399e-07
1.53012e-05
-1.27334e-07
1.52899e-05
-1.55125e-07
1.52755e-05
-1.8873e-07
1.52575e-05
-2.29331e-07
1.5235e-05
-2.78356e-07
1.5207e-05
-3.37501e-07
1.51722e-05
-4.08743e-07
1.5129e-05
-4.9436e-07
1.50755e-05
-5.96934e-07
1.5009e-05
-7.19321e-07
1.49263e-05
-8.64557e-07
1.4823e-05
-1.03558e-06
1.46931e-05
-1.23487e-06
1.45287e-05
-1.46336e-06
1.43179e-05
-1.71944e-06
1.40449e-05
-1.99564e-06
-2.27308e-06
1.36747e-05
1.53335e-05
-3.54504e-09
1.53338e-05
-1.00908e-08
1.53341e-05
-1.54588e-08
1.5334e-05
-1.97463e-08
1.53337e-05
-2.36715e-08
1.5333e-05
-2.78416e-08
1.53319e-05
-3.26139e-08
1.53302e-05
-3.83489e-08
1.53278e-05
-4.5483e-08
1.53245e-05
-5.44541e-08
1.532e-05
-6.56695e-08
1.5314e-05
-7.95484e-08
1.53061e-05
-9.65568e-08
1.5296e-05
-1.17242e-07
1.52832e-05
-1.4229e-07
1.5267e-05
-1.72559e-07
1.52468e-05
-2.09098e-07
1.52216e-05
-2.5317e-07
1.51904e-05
-3.06269e-07
1.51518e-05
-3.70117e-07
1.51041e-05
-4.46675e-07
1.50453e-05
-5.38121e-07
1.49727e-05
-6.46791e-07
1.48832e-05
-7.75033e-07
1.47725e-05
-9.24868e-07
1.46351e-05
-1.09748e-06
1.44638e-05
-1.29202e-06
1.42482e-05
-1.50384e-06
1.39753e-05
-1.72277e-06
-1.91429e-06
1.36165e-05
1.53335e-05
-3.75229e-09
1.53341e-05
-1.06089e-08
1.53344e-05
-1.58217e-08
1.53344e-05
-1.96929e-08
1.53339e-05
-2.32347e-08
1.53331e-05
-2.70222e-08
1.53318e-05
-3.1305e-08
1.53299e-05
-3.64048e-08
1.53271e-05
-4.27313e-08
1.53233e-05
-5.06746e-08
1.53182e-05
-6.0585e-08
1.53115e-05
-7.28356e-08
1.53028e-05
-8.78345e-08
1.52916e-05
-1.06058e-07
1.52774e-05
-1.28115e-07
1.52596e-05
-1.54754e-07
1.52374e-05
-1.86884e-07
1.52099e-05
-2.25599e-07
1.51758e-05
-2.72185e-07
1.51338e-05
-3.28111e-07
1.50821e-05
-3.95026e-07
1.50187e-05
-4.74729e-07
1.4941e-05
-5.69079e-07
1.48458e-05
-6.79825e-07
1.47292e-05
-8.08225e-07
1.45861e-05
-9.54453e-07
1.44105e-05
-1.11641e-06
1.4194e-05
-1.28732e-06
1.39269e-05
-1.4557e-06
-1.57652e-06
1.35892e-05
1.53337e-05
-4.11578e-09
1.53345e-05
-1.14196e-08
1.5335e-05
-1.62994e-08
1.53349e-05
-1.96212e-08
1.53344e-05
-2.27455e-08
1.53335e-05
-2.61022e-08
1.5332e-05
-2.98285e-08
1.53299e-05
-3.42281e-08
1.53268e-05
-3.9678e-08
1.53226e-05
-4.65093e-08
1.53171e-05
-5.5007e-08
1.53097e-05
-6.55037e-08
1.53002e-05
-7.83407e-08
1.52881e-05
-9.39192e-08
1.52727e-05
-1.12766e-07
1.52535e-05
-1.35516e-07
1.52296e-05
-1.62936e-07
1.51999e-05
-1.95947e-07
1.51633e-05
-2.35623e-07
1.51184e-05
-2.83181e-07
1.50634e-05
-3.39973e-07
1.49961e-05
-4.07442e-07
1.4914e-05
-4.87027e-07
1.48142e-05
-5.79974e-07
1.46929e-05
-6.86957e-07
1.45459e-05
-8.07439e-07
1.43681e-05
-9.38633e-07
1.41534e-05
-1.07265e-06
1.3896e-05
-1.19828e-06
-1.26604e-06
1.35855e-05
1.5334e-05
-4.77826e-09
1.53353e-05
-1.26944e-08
1.53359e-05
-1.68835e-08
1.53358e-05
-1.95335e-08
1.53352e-05
-2.22223e-08
1.53342e-05
-2.50901e-08
1.53326e-05
-2.82004e-08
1.53302e-05
-3.18528e-08
1.53269e-05
-3.6371e-08
1.53224e-05
-4.20195e-08
1.53164e-05
-4.90104e-08
1.53086e-05
-5.76482e-08
1.52984e-05
-6.81842e-08
1.52855e-05
-8.09639e-08
1.52691e-05
-9.64217e-08
1.52487e-05
-1.15068e-07
1.52233e-05
-1.37525e-07
1.51919e-05
-1.64541e-07
1.51532e-05
-1.96976e-07
1.51058e-05
-2.35804e-07
1.5048e-05
-2.8209e-07
1.49775e-05
-3.36953e-07
1.48919e-05
-4.01469e-07
1.47884e-05
-4.76479e-07
1.46637e-05
-5.62259e-07
1.45141e-05
-6.57852e-07
1.43358e-05
-7.60354e-07
1.41248e-05
-8.61626e-07
1.38793e-05
-9.52737e-07
-9.85062e-07
1.35983e-05
1.53346e-05
-5.99786e-09
1.53365e-05
-1.4652e-08
1.53372e-05
-1.75794e-08
1.53372e-05
-1.95211e-08
1.53367e-05
-2.17298e-08
1.53356e-05
-2.40074e-08
1.53339e-05
-2.64394e-08
1.53313e-05
-2.93074e-08
1.53278e-05
-3.28519e-08
1.5323e-05
-3.72621e-08
1.53167e-05
-4.26652e-08
1.53084e-05
-4.93863e-08
1.52977e-05
-5.74977e-08
1.52841e-05
-6.73523e-08
1.5267e-05
-7.92697e-08
1.52455e-05
-9.36389e-08
1.5219e-05
-1.10941e-07
1.51862e-05
-1.31742e-07
1.51459e-05
-1.5669e-07
1.50966e-05
-1.86519e-07
1.50365e-05
-2.22028e-07
1.49636e-05
-2.64043e-07
1.48755e-05
-3.13334e-07
1.47695e-05
-3.70445e-07
1.46426e-05
-4.35436e-07
1.4492e-05
-5.07224e-07
1.43149e-05
-5.83297e-07
1.4109e-05
-6.55628e-07
1.38769e-05
-7.20693e-07
-7.32694e-07
1.36245e-05
1.53356e-05
-8.28451e-09
1.53382e-05
-1.72153e-08
1.53389e-05
-1.82941e-08
1.53391e-05
-1.96929e-08
1.53386e-05
-2.12933e-08
1.53375e-05
-2.28824e-08
1.53357e-05
-2.46081e-08
1.5333e-05
-2.66615e-08
1.53294e-05
-2.91876e-08
1.53244e-05
-3.23234e-08
1.53178e-05
-3.60338e-08
1.53092e-05
-4.08032e-08
1.52981e-05
-4.63888e-08
1.5284e-05
-5.32405e-08
1.52662e-05
-6.15078e-08
1.52441e-05
-7.14662e-08
1.52166e-05
-8.34612e-08
1.51827e-05
-9.78823e-08
1.51412e-05
-1.15173e-07
1.50905e-05
-1.35838e-07
1.50289e-05
-1.6043e-07
1.49544e-05
-1.89522e-07
1.48647e-05
-2.23641e-07
1.47574e-05
-2.6315e-07
1.463e-05
-3.08051e-07
1.44802e-05
-3.57442e-07
1.43065e-05
-4.09507e-07
1.41072e-05
-4.56405e-07
1.38876e-05
-5.01074e-07
-4.97212e-07
1.36521e-05
1.53392e-05
-1.41725e-08
1.53418e-05
-1.98234e-08
1.53425e-05
-1.89302e-08
1.53423e-05
-1.95399e-08
1.53415e-05
-2.04821e-08
1.53399e-05
-2.13205e-08
1.53375e-05
-2.21982e-08
1.53341e-05
-2.32519e-08
1.53295e-05
-2.45605e-08
1.53234e-05
-2.62038e-08
1.53154e-05
-2.8108e-08
1.53053e-05
-3.06613e-08
1.52925e-05
-3.3567e-08
1.52764e-05
-3.71867e-08
1.52565e-05
-4.15709e-08
1.52319e-05
-4.6874e-08
1.52017e-05
-5.32927e-08
1.51649e-05
-6.10465e-08
1.51201e-05
-7.03868e-08
1.50659e-05
-8.16019e-08
1.50005e-05
-9.50085e-08
1.49219e-05
-1.1093e-07
1.48279e-05
-1.29659e-07
1.47161e-05
-1.51374e-07
1.45841e-05
-1.76025e-07
1.44296e-05
-2.02973e-07
1.42512e-05
-2.31108e-07
1.40503e-05
-2.55453e-07
1.38266e-05
-2.77416e-07
-2.23867e-07
1.35533e-05
1.53192e-05
1.52993e-05
1.52804e-05
1.52609e-05
1.52404e-05
1.52191e-05
1.51969e-05
1.51736e-05
1.51491e-05
1.51229e-05
1.50947e-05
1.50641e-05
1.50305e-05
1.49933e-05
1.49518e-05
1.49049e-05
1.48516e-05
1.47905e-05
1.47202e-05
1.46386e-05
1.45435e-05
1.44326e-05
1.4303e-05
1.41516e-05
1.39756e-05
1.37726e-05
1.35415e-05
1.3286e-05
1.30086e-05
1.27847e-05
1.74638e-05
-8.13314e-06
8.37027e-06
1.7236e-05
-8.28348e-06
8.51124e-06
1.69695e-05
-8.42877e-06
8.69526e-06
1.66668e-05
-8.5628e-06
8.86552e-06
1.63352e-05
-8.6961e-06
9.02768e-06
1.59818e-05
-8.83369e-06
9.18711e-06
1.56107e-05
-8.97718e-06
9.34828e-06
1.52244e-05
-9.12749e-06
9.51381e-06
1.48241e-05
-9.28538e-06
9.68565e-06
1.44101e-05
-9.45122e-06
9.86528e-06
1.39816e-05
-9.62511e-06
1.00536e-05
1.35377e-05
-9.80722e-06
1.02511e-05
1.30773e-05
-9.99795e-06
1.04583e-05
1.25994e-05
-1.01981e-05
1.0676e-05
1.21029e-05
-1.04088e-05
1.09052e-05
1.15868e-05
-1.06313e-05
1.11475e-05
1.10497e-05
-1.08677e-05
1.14047e-05
1.04901e-05
-1.11198e-05
1.16795e-05
9.90584e-06
-1.13905e-05
1.19747e-05
9.29437e-06
-1.16829e-05
1.22943e-05
8.6524e-06
-1.20012e-05
1.26431e-05
7.97562e-06
-1.23505e-05
1.30273e-05
7.25847e-06
-1.27375e-05
1.34546e-05
6.49357e-06
-1.31707e-05
1.39356e-05
5.67049e-06
-1.36601e-05
1.44832e-05
4.77569e-06
-1.4222e-05
1.51169e-05
3.8002e-06
-1.48674e-05
1.58429e-05
2.65403e-06
-1.56609e-05
1.68071e-05
1.50064e-06
-1.64264e-05
1.75798e-05
-1.79249e-05
1.94255e-05
1.76529e-05
-7.86286e-06
1.7343e-05
-7.97355e-06
1.70046e-05
-8.09045e-06
1.66501e-05
-8.20823e-06
1.62843e-05
-8.3303e-06
1.59093e-05
-8.45878e-06
1.55257e-05
-8.59359e-06
1.51327e-05
-8.73448e-06
1.47289e-05
-8.88152e-06
1.43126e-05
-9.0349e-06
1.38823e-05
-9.19484e-06
1.34369e-05
-9.36179e-06
1.29753e-05
-9.53643e-06
1.24969e-05
-9.71963e-06
1.20006e-05
-9.91245e-06
1.14854e-05
-1.01161e-05
1.09499e-05
-1.03322e-05
1.03924e-05
-1.05623e-05
9.81076e-06
-1.08088e-05
9.20236e-06
-1.10745e-05
8.56381e-06
-1.13626e-05
7.89078e-06
-1.16775e-05
7.1777e-06
-1.20244e-05
6.41722e-06
-1.24102e-05
5.59962e-06
-1.28425e-05
4.71214e-06
-1.33346e-05
3.73789e-06
-1.38932e-05
2.63779e-06
-1.45608e-05
1.45512e-06
-1.52437e-05
-1.64698e-05
1.7547e-05
-7.54558e-06
1.72143e-05
-7.6409e-06
1.68688e-05
-7.74487e-06
1.65154e-05
-7.85484e-06
1.61548e-05
-7.96978e-06
1.57855e-05
-8.08948e-06
1.54058e-05
-8.21389e-06
1.50145e-05
-8.34312e-06
1.46105e-05
-8.47749e-06
1.4193e-05
-8.6174e-06
1.37614e-05
-8.76329e-06
1.33153e-05
-8.91566e-06
1.2854e-05
-9.07513e-06
1.23767e-05
-9.24238e-06
1.18825e-05
-9.41825e-06
1.13701e-05
-9.60374e-06
1.0838e-05
-9.80006e-06
1.02844e-05
-1.00087e-05
9.70711e-06
-1.02315e-05
9.10333e-06
-1.04707e-05
8.46965e-06
-1.07289e-05
7.80171e-06
-1.10096e-05
7.09394e-06
-1.13166e-05
6.33906e-06
-1.16553e-05
5.52769e-06
-1.20312e-05
4.64726e-06
-1.24541e-05
3.68137e-06
-1.29273e-05
2.60386e-06
-1.34833e-05
1.41522e-06
-1.40551e-05
-1.50546e-05
1.74466e-05
-7.21787e-06
1.71097e-05
-7.30399e-06
1.67625e-05
-7.39773e-06
1.64064e-05
-7.49877e-06
1.60414e-05
-7.60471e-06
1.56662e-05
-7.71433e-06
1.52802e-05
-7.82788e-06
1.4883e-05
-7.94586e-06
1.44741e-05
-8.06862e-06
1.40531e-05
-8.19644e-06
1.36195e-05
-8.32963e-06
1.31724e-05
-8.46859e-06
1.2711e-05
-8.61377e-06
1.22344e-05
-8.76575e-06
1.17414e-05
-8.92522e-06
1.12306e-05
-9.09299e-06
1.07006e-05
-9.27009e-06
1.01496e-05
-9.45768e-06
9.57528e-06
-9.6572e-06
8.97491e-06
-9.87033e-06
8.34507e-06
-1.00991e-05
7.68145e-06
-1.03459e-05
6.97858e-06
-1.06137e-05
6.22947e-06
-1.09062e-05
5.42519e-06
-1.12269e-05
4.55391e-06
-1.15829e-05
3.60063e-06
-1.1974e-05
2.54426e-06
-1.24269e-05
1.36981e-06
-1.28806e-05
-1.36847e-05
1.73152e-05
-6.88191e-06
1.69712e-05
-6.96001e-06
1.66181e-05
-7.04461e-06
1.62563e-05
-7.137e-06
1.58859e-05
-7.23428e-06
1.55062e-05
-7.33466e-06
1.51167e-05
-7.43837e-06
1.47169e-05
-7.54604e-06
1.43062e-05
-7.65796e-06
1.3884e-05
-7.77428e-06
1.34497e-05
-7.89523e-06
1.30022e-05
-8.02117e-06
1.25409e-05
-8.15249e-06
1.20649e-05
-8.28966e-06
1.15729e-05
-8.43322e-06
1.10637e-05
-8.58383e-06
1.05358e-05
-8.74222e-06
9.9874e-06
-8.90926e-06
9.41618e-06
-9.08598e-06
8.81943e-06
-9.27357e-06
8.19377e-06
-9.47342e-06
7.53499e-06
-9.68716e-06
6.83785e-06
-9.9166e-06
6.09572e-06
-1.01641e-05
5.30024e-06
-1.04314e-05
4.44047e-06
-1.07231e-05
3.50292e-06
-1.10365e-05
2.46871e-06
-1.13927e-05
1.31914e-06
-1.1731e-05
-1.23656e-05
1.71558e-05
-6.5393e-06
1.6806e-05
-6.61019e-06
1.6448e-05
-6.68662e-06
1.60819e-05
-6.77091e-06
1.57075e-05
-6.85991e-06
1.53243e-05
-6.95146e-06
1.49317e-05
-7.04575e-06
1.45292e-05
-7.14349e-06
1.41162e-05
-7.24494e-06
1.36921e-05
-7.35019e-06
1.32563e-05
-7.45942e-06
1.2808e-05
-7.57291e-06
1.23465e-05
-7.69096e-06
1.18707e-05
-7.81391e-06
1.13796e-05
-7.94214e-06
1.08719e-05
-8.07611e-06
1.0346e-05
-8.2163e-06
9.80006e-06
-8.36332e-06
9.23187e-06
-8.51779e-06
8.63876e-06
-8.68046e-06
8.01746e-06
-8.85212e-06
7.36396e-06
-9.03366e-06
6.67331e-06
-9.22595e-06
5.93931e-06
-9.43005e-06
5.15428e-06
-9.64639e-06
4.30829e-06
-9.8771e-06
3.38934e-06
-1.01175e-05
2.38057e-06
-1.03839e-05
1.26385e-06
-1.06143e-05
-1.11018e-05
1.69684e-05
-6.19077e-06
1.66132e-05
-6.25503e-06
1.62505e-05
-6.32394e-06
1.58802e-05
-6.40057e-06
1.55019e-05
-6.48161e-06
1.51151e-05
-6.5647e-06
1.47194e-05
-6.65004e-06
1.43143e-05
-6.73834e-06
1.38992e-05
-6.82985e-06
1.34736e-05
-6.92458e-06
1.30368e-05
-7.02263e-06
1.25881e-05
-7.1242e-06
1.21266e-05
-7.22948e-06
1.16514e-05
-7.3387e-06
1.11613e-05
-7.4521e-06
1.06552e-05
-7.56992e-06
1.01313e-05
-7.69247e-06
9.58803e-06
-7.82003e-06
9.02315e-06
-7.95291e-06
8.43409e-06
-8.09141e-06
7.81776e-06
-8.23579e-06
7.17038e-06
-8.38628e-06
6.48735e-06
-8.54292e-06
5.76297e-06
-8.70568e-06
4.99032e-06
-8.87373e-06
4.16051e-06
-9.04728e-06
3.26309e-06
-9.22009e-06
2.28327e-06
-9.40413e-06
1.20556e-06
-9.5366e-06
-9.89619e-06
1.67535e-05
-5.83687e-06
1.63935e-05
-5.89502e-06
1.60266e-05
-5.957e-06
1.56524e-05
-6.02636e-06
1.52706e-05
-6.09981e-06
1.48808e-05
-6.17487e-06
1.44824e-05
-6.25171e-06
1.40751e-05
-6.33103e-06
1.36583e-05
-6.41305e-06
1.32315e-05
-6.49772e-06
1.27939e-05
-6.58505e-06
1.23448e-05
-6.67516e-06
1.18835e-05
-6.76816e-06
1.1409e-05
-6.86416e-06
1.09201e-05
-6.96324e-06
1.04157e-05
-7.06549e-06
9.8942e-06
-7.17098e-06
9.35392e-06
-7.27975e-06
8.7928e-06
-7.39179e-06
8.20841e-06
-7.50701e-06
7.59783e-06
-7.62521e-06
6.95757e-06
-7.74602e-06
6.28342e-06
-7.86877e-06
5.57026e-06
-7.99251e-06
4.81192e-06
-8.1154e-06
4.00061e-06
-8.23596e-06
3.12744e-06
-8.34692e-06
2.17956e-06
-8.45626e-06
1.14464e-06
-8.50169e-06
-8.75155e-06
1.65127e-05
-5.47816e-06
1.61484e-05
-5.53068e-06
1.57777e-05
-5.58625e-06
1.54e-05
-5.64875e-06
1.50152e-05
-5.71494e-06
1.46227e-05
-5.78237e-06
1.42221e-05
-5.85112e-06
1.3813e-05
-5.9219e-06
1.33948e-05
-5.99487e-06
1.2967e-05
-6.06992e-06
1.25289e-05
-6.14699e-06
1.20799e-05
-6.22613e-06
1.16191e-05
-6.30735e-06
1.11456e-05
-6.39064e-06
1.06583e-05
-6.47596e-06
1.0156e-05
-6.56323e-06
9.63736e-06
-6.65232e-06
9.10065e-06
-6.74304e-06
8.54397e-06
-6.83511e-06
7.96504e-06
-6.92808e-06
7.36119e-06
-7.02136e-06
6.72922e-06
-7.11405e-06
6.06537e-06
-7.20492e-06
5.36509e-06
-7.29223e-06
4.62299e-06
-7.3733e-06
3.83236e-06
-7.44534e-06
2.98585e-06
-7.50041e-06
2.07241e-06
-7.54282e-06
1.08337e-06
-7.51265e-06
-7.66817e-06
1.62484e-05
-5.11521e-06
1.58802e-05
-5.16254e-06
1.55062e-05
-5.21221e-06
1.51257e-05
-5.26821e-06
1.47382e-05
-5.32751e-06
1.43435e-05
-5.38766e-06
1.39412e-05
-5.44875e-06
1.35307e-05
-5.5114e-06
1.31115e-05
-5.57575e-06
1.26833e-05
-5.64162e-06
1.22452e-05
-5.7089e-06
1.17966e-05
-5.77755e-06
1.13367e-05
-5.84749e-06
1.08647e-05
-5.91862e-06
1.03795e-05
-5.99076e-06
9.87996e-06
-6.06369e-06
9.36475e-06
-6.13711e-06
8.83232e-06
-6.21062e-06
8.28089e-06
-6.28367e-06
7.70837e-06
-6.35556e-06
7.11233e-06
-6.42532e-06