/*--------------------------------*- C++ -*----------------------------------*\
  =========                 |
  \\      /  F ield         | OpenFOAM: The Open Source CFD Toolbox
   \\    /   O peration     | Website:  https://openfoam.org
    \\  /    A nd           | Version:  11
     \\/     M anipulation  |
\*---------------------------------------------------------------------------*/
FoamFile
{
    format      ascii;
    class       volVectorField;
    location    "3";
    object      U;
}
// * * * * * * * * * * * * * * * * * * * * * * * * * * * * * * * * * * * * * //

dimensions      [0 1 -1 0 0 0 0];

internalField   nonuniform List<vector> 
12600
(
(0.41228 6.58251e-05 0)
(0.412159 0.000126296 0)
(0.411946 0.000147554 0)
(0.411682 0.0001553 0)
(0.411413 0.000159776 0)
(0.41115 0.000160075 0)
(0.410896 0.000155842 0)
(0.410656 0.000147502 0)
(0.410441 0.000136104 0)
(0.410259 0.000123474 0)
(0.41012 0.000108753 0)
(0.410032 8.858e-05 0)
(0.410009 5.3136e-05 0)
(0.410065 9.05118e-06 0)
(0.410213 -3.51072e-05 0)
(0.410466 -7.24462e-05 0)
(0.410838 -0.000116896 0)
(0.411346 -0.000166389 0)
(0.412009 -0.000223654 0)
(0.412857 -0.000298567 0)
(0.413934 -0.000395147 0)
(0.415284 -0.000511942 0)
(0.416954 -0.000650524 0)
(0.419004 -0.000814775 0)
(0.421502 -0.00100928 0)
(0.42453 -0.00123484 0)
(0.428173 -0.00150606 0)
(0.432509 -0.00176978 0)
(0.437679 -0.00224529 0)
(0.444346 -0.00199008 0)
(0.412479 9.08026e-05 0)
(0.412556 0.000205697 0)
(0.412645 0.000212116 0)
(0.412669 0.00021613 0)
(0.412683 0.000219156 0)
(0.4127 0.000217299 0)
(0.41272 0.000207539 0)
(0.412745 0.000187022 0)
(0.412784 0.000156425 0)
(0.412843 0.000115037 0)
(0.412932 6.26212e-05 0)
(0.413061 -6.65065e-07 0)
(0.413239 -7.27342e-05 0)
(0.413474 -0.000156013 0)
(0.413778 -0.000256368 0)
(0.414168 -0.000378792 0)
(0.414663 -0.000524474 0)
(0.415289 -0.000695983 0)
(0.416107 -0.000896261 0)
(0.41712 -0.00112807 0)
(0.418314 -0.00139778 0)
(0.419734 -0.00171587 0)
(0.421426 -0.00209369 0)
(0.423441 -0.00254228 0)
(0.425843 -0.00307336 0)
(0.428705 -0.00369421 0)
(0.432116 -0.00442651 0)
(0.436163 -0.00521198 0)
(0.440984 -0.00633035 0)
(0.446463 -0.0064894 0)
(0.412468 4.77794e-05 0)
(0.412502 0.000104249 0)
(0.412549 0.00012753 0)
(0.412582 0.000142551 0)
(0.412599 0.000152664 0)
(0.412611 0.000153314 0)
(0.412625 0.000141771 0)
(0.412643 0.000116152 0)
(0.412671 7.57873e-05 0)
(0.412721 1.96544e-05 0)
(0.412804 -5.35597e-05 0)
(0.412928 -0.000145336 0)
(0.413106 -0.000259343 0)
(0.413349 -0.000397578 0)
(0.413671 -0.00056109 0)
(0.414084 -0.000752638 0)
(0.414603 -0.000980303 0)
(0.415237 -0.00125494 0)
(0.416001 -0.00157817 0)
(0.41692 -0.00194449 0)
(0.41803 -0.00236402 0)
(0.419366 -0.00285926 0)
(0.420968 -0.0034496 0)
(0.422886 -0.00415261 0)
(0.42518 -0.00498806 0)
(0.427932 -0.00597318 0)
(0.431208 -0.00713989 0)
(0.435182 -0.00843962 0)
(0.439757 -0.0101406 0)
(0.445771 -0.0110215 0)
(0.412465 3.06519e-05 0)
(0.412485 8.69358e-05 0)
(0.412518 0.000127824 0)
(0.412544 0.000157313 0)
(0.412559 0.000170911 0)
(0.412568 0.000170791 0)
(0.412577 0.000163731 0)
(0.412592 0.000135009 0)
(0.412617 8.21699e-05 0)
(0.412663 5.29233e-06 0)
(0.412739 -9.81616e-05 0)
(0.412856 -0.000229029 0)
(0.413025 -0.000388725 0)
(0.413256 -0.000579166 0)
(0.413559 -0.000803625 0)
(0.413947 -0.00106702 0)
(0.414432 -0.00137604 0)
(0.415028 -0.00173837 0)
(0.415747 -0.00216049 0)
(0.416613 -0.00264997 0)
(0.417654 -0.00322233 0)
(0.418906 -0.00389949 0)
(0.420407 -0.00470525 0)
(0.422206 -0.0056657 0)
(0.424363 -0.00681098 0)
(0.426963 -0.0081683 0)
(0.430068 -0.00978296 0)
(0.433881 -0.0116119 0)
(0.438263 -0.0139408 0)
(0.444262 -0.0156041 0)
(0.412463 2.25403e-05 0)
(0.412475 6.99844e-05 0)
(0.412496 0.000108926 0)
(0.412514 0.000135953 0)
(0.412526 0.000152093 0)
(0.412533 0.000154982 0)
(0.412539 0.000140042 0)
(0.412551 0.000101573 0)
(0.412574 3.56455e-05 0)
(0.412617 -6.02374e-05 0)
(0.412687 -0.000188111 0)
(0.412795 -0.000350656 0)
(0.41295 -0.000550061 0)
(0.413162 -0.000788849 0)
(0.413441 -0.00107037 0)
(0.413797 -0.0013994 0)
(0.414242 -0.00178287 0)
(0.414787 -0.00222976 0)
(0.415447 -0.0027501 0)
(0.416241 -0.00335622 0)
(0.417194 -0.00406662 0)
(0.418338 -0.00490675 0)
(0.419708 -0.00590704 0)
(0.421353 -0.0071022 0)
(0.423329 -0.00853259 0)
(0.425722 -0.010238 0)
(0.428594 -0.012277 0)
(0.432169 -0.0146293 0)
(0.436271 -0.0175714 0)
(0.442138 -0.0200867 0)
(0.412462 1.76496e-05 0)
(0.412469 5.76741e-05 0)
(0.412483 9.69041e-05 0)
(0.412497 0.00012951 0)
(0.412505 0.000149364 0)
(0.41251 0.000151737 0)
(0.412516 0.00013993 0)
(0.412525 9.8673e-05 0)
(0.412544 2.34215e-05 0)
(0.412581 -8.87746e-05 0)
(0.412644 -0.000240149 0)
(0.412741 -0.000433013 0)
(0.41288 -0.000669443 0)
(0.413071 -0.000951916 0)
(0.413321 -0.00128403 0)
(0.41364 -0.00167113 0)
(0.414037 -0.00212075 0)
(0.414524 -0.00264284 0)
(0.415112 -0.00324992 0)
(0.415817 -0.00395839 0)
(0.416662 -0.00479092 0)
(0.417673 -0.00577733 0)
(0.418883 -0.00695429 0)
(0.420336 -0.00836512 0)
(0.422084 -0.0100611 0)
(0.424214 -0.0120964 0)
(0.426782 -0.0145449 0)
(0.430034 -0.0174151 0)
(0.43376 -0.0209731 0)
(0.439378 -0.0243732 0)
(0.412461 1.4469e-05 0)
(0.412466 4.98841e-05 0)
(0.412476 8.90773e-05 0)
(0.412484 0.000124019 0)
(0.41249 0.000145176 0)
(0.412494 0.000148048 0)
(0.412497 0.000134061 0)
(0.412503 8.64435e-05 0)
(0.412519 3.4255e-08 0)
(0.41255 -0.000128086 0)
(0.412604 -0.000300962 0)
(0.412688 -0.000521071 0)
(0.412809 -0.000790594 0)
(0.412975 -0.00111215 0)
(0.413193 -0.00148953 0)
(0.41347 -0.00192829 0)
(0.413814 -0.0024364 0)
(0.414233 -0.00302475 0)
(0.414738 -0.00370789 0)
(0.415342 -0.00450521 0)
(0.416061 -0.00544273 0)
(0.416918 -0.00655448 0)
(0.41794 -0.00788309 0)
(0.419166 -0.00948044 0)
(0.420644 -0.0114093 0)
(0.422454 -0.0137393 0)
(0.424647 -0.0165625 0)
(0.427486 -0.0199221 0)
(0.430727 -0.0240757 0)
(0.435954 -0.028384 0)
(0.412461 1.23018e-05 0)
(0.412465 4.46019e-05 0)
(0.412471 8.36079e-05 0)
(0.412476 0.000120405 0)
(0.412479 0.000142908 0)
(0.412482 0.000145093 0)
(0.412484 0.000131706 0)
(0.412487 8.03543e-05 0)
(0.412499 -1.42891e-05 0)
(0.412524 -0.00015555 0)
(0.412568 -0.000346504 0)
(0.412639 -0.000589619 0)
(0.412741 -0.000887059 0)
(0.41288 -0.00124141 0)
(0.413062 -0.00165642 0)
(0.413293 -0.00213774 0)
(0.413578 -0.00269362 0)
(0.413924 -0.0033357 0)
(0.414338 -0.0040799 0)
(0.414828 -0.00494782 0)
(0.415407 -0.00596842 0)
(0.416092 -0.00717964 0)
(0.416902 -0.00862984 0)
(0.41787 -0.0103791 0)
(0.419034 -0.0125016 0)
(0.420469 -0.0150836 0)
(0.422215 -0.0182366 0)
(0.42454 -0.0220445 0)
(0.427177 -0.0267599 0)
(0.431831 -0.0319872 0)
(0.412461 1.07524e-05 0)
(0.412463 4.09587e-05 0)
(0.412468 8.00357e-05 0)
(0.412471 0.000118339 0)
(0.412472 0.000141679 0)
(0.412474 0.00014355 0)
(0.412474 0.000130848 0)
(0.412475 7.62173e-05 0)
(0.412482 -2.61965e-05 0)
(0.412501 -0.000179009 0)
(0.412536 -0.000385448 0)
(0.412592 -0.000648043 0)
(0.412673 -0.000968876 0)
(0.412784 -0.00135037 0)
(0.412929 -0.00179609 0)
(0.413111 -0.00231158 0)
(0.413334 -0.00290513 0)
(0.413601 -0.00358872 0)
(0.413917 -0.00437911 0)
(0.414286 -0.00529932 0)
(0.414714 -0.0063804 0)
(0.415211 -0.00766337 0)
(0.415789 -0.00920129 0)
(0.416473 -0.0110614 0)
(0.417287 -0.0133287 0)
(0.418294 -0.0161056 0)
(0.419522 -0.0195248 0)
(0.421231 -0.0237145 0)
(0.423133 -0.028927 0)
(0.426997 -0.0350469 0)
(0.41246 9.61223e-06 0)
(0.412462 3.83827e-05 0)
(0.412465 7.77378e-05 0)
(0.412467 0.000117285 0)
(0.412468 0.000141496 0)
(0.412468 0.000143089 0)
(0.412467 0.000130944 0)
(0.412466 7.41866e-05 0)
(0.41247 -3.42732e-05 0)
(0.412483 -0.000196075 0)
(0.412508 -0.000414594 0)
(0.412549 -0.000692316 0)
(0.412609 -0.0010311 0)
(0.412691 -0.00143306 0)
(0.412797 -0.00190143 0)
(0.412929 -0.00244137 0)
(0.413088 -0.00306092 0)
(0.413274 -0.00377193 0)
(0.413488 -0.00459135 0)
(0.413729 -0.00554276 0)
(0.413999 -0.00665837 0)
(0.414299 -0.00798117 0)
(0.414632 -0.00956767 0)
(0.41501 -0.0114908 0)
(0.415444 -0.0138446 0)
(0.41598 -0.0167466 0)
(0.416624 -0.0203497 0)
(0.417615 -0.0248281 0)
(0.418649 -0.0304376 0)
(0.421468 -0.0373694 0)
(0.41246 8.74893e-06 0)
(0.412462 3.65294e-05 0)
(0.412464 7.62154e-05 0)
(0.412465 0.000116618 0)
(0.412466 0.000141478 0)
(0.412465 0.000143776 0)
(0.412463 0.000132037 0)
(0.412461 7.40671e-05 0)
(0.412462 -3.88606e-05 0)
(0.412469 -0.000207323 0)
(0.412484 -0.000434657 0)
(0.412511 -0.000723288 0)
(0.412549 -0.00107476 0)
(0.412602 -0.00149073 0)
(0.412669 -0.00197389 0)
(0.412751 -0.00252879 0)
(0.412845 -0.00316283 0)
(0.41295 -0.00388726 0)
(0.413061 -0.00471853 0)
(0.413173 -0.00567993 0)
(0.413282 -0.00680362 0)
(0.41338 -0.00813313 0)
(0.413461 -0.00972652 0)
(0.413521 -0.0116601 0)
(0.413555 -0.0140342 0)
(0.413586 -0.0169781 0)
(0.413594 -0.0206624 0)
(0.413774 -0.0253044 0)
(0.413816 -0.0311652 0)
(0.415318 -0.0387513 0)
(0.41246 8.06871e-06 0)
(0.412462 3.51157e-05 0)
(0.412463 7.50877e-05 0)
(0.412464 0.00011601 0)
(0.412465 0.000141915 0)
(0.412464 0.00014473 0)
(0.412462 0.000133642 0)
(0.412459 7.52764e-05 0)
(0.412458 -4.03353e-05 0)
(0.412459 -0.000213001 0)
(0.412466 -0.000445895 0)
(0.412478 -0.000741131 0)
(0.412496 -0.0010999 0)
(0.412521 -0.00152328 0)
(0.41255 -0.0020132 0)
(0.412582 -0.00257337 0)
(0.412613 -0.00321018 0)
(0.412637 -0.00393376 0)
(0.412647 -0.00475933 0)
(0.412633 -0.00570887 0)
(0.412583 -0.00681322 0)
(0.412481 -0.00811472 0)
(0.41231 -0.00967072 0)
(0.412051 -0.0115579 0)
(0.41168 -0.013879 0)
(0.411187 -0.01677 0)
(0.410527 -0.0204134 0)
(0.409825 -0.0250616 0)
(0.408773 -0.0309793 0)
(0.40869 -0.038968 0)
(0.41246 7.50256e-06 0)
(0.412461 3.39056e-05 0)
(0.412463 7.39587e-05 0)
(0.412465 0.000115136 0)
(0.412466 0.000142098 0)
(0.412465 0.000145681 0)
(0.412463 0.000135454 0)
(0.41246 7.73964e-05 0)
(0.412457 -3.9273e-05 0)
(0.412455 -0.000213657 0)
(0.412453 -0.000448831 0)
(0.412452 -0.00074649 0)
(0.412451 -0.00110732 0)
(0.412449 -0.00153169 0)
(0.412442 -0.00202063 0)
(0.412427 -0.00257673 0)
(0.412398 -0.00320502 0)
(0.412345 -0.003914 0)
(0.412259 -0.00471694 0)
(0.412124 -0.00563351 0)
(0.411922 -0.00669184 0)
(0.411629 -0.00793116 0)
(0.411217 -0.00940548 0)
(0.410649 -0.0111882 0)
(0.40988 -0.0133793 0)
(0.408869 -0.0161148 0)
(0.407535 -0.0195797 0)
(0.405915 -0.0240476 0)
(0.403707 -0.0297803 0)
(0.401819 -0.0378168 0)
(0.41246 6.98994e-06 0)
(0.412461 3.27254e-05 0)
(0.412463 7.25934e-05 0)
(0.412465 0.000113748 0)
(0.412468 0.000141695 0)
(0.412468 0.00014631 0)
(0.412467 0.000136933 0)
(0.412465 7.9769e-05 0)
(0.412461 -3.63661e-05 0)
(0.412455 -0.000210098 0)
(0.412446 -0.000444323 0)
(0.412434 -0.000740366 0)
(0.412416 -0.00109824 0)
(0.412389 -0.0015175 0)
(0.412349 -0.00199812 0)
(0.41229 -0.00254134 0)
(0.412205 -0.0031505 0)
(0.412081 -0.00383202 0)
(0.411906 -0.00459652 0)
(0.41166 -0.00546035 0)
(0.411319 -0.00644752 0)
(0.410851 -0.0075922 0)
(0.410216 -0.00894218 0)
(0.409363 -0.0105635 0)
(0.408224 -0.0125478 0)
(0.406723 -0.015022 0)
(0.404743 -0.0181627 0)
(0.402218 -0.0222437 0)
(0.398858 -0.0275119 0)
(0.39504 -0.0351462 0)
(0.41246 6.47668e-06 0)
(0.412461 3.14061e-05 0)
(0.412464 7.07099e-05 0)
(0.412467 0.000111436 0)
(0.412471 0.000140109 0)
(0.412473 0.000146318 0)
(0.412473 0.000137516 0)
(0.412473 8.18567e-05 0)
(0.412469 -3.21945e-05 0)
(0.412461 -0.000203094 0)
(0.412446 -0.000433441 0)
(0.412424 -0.000724074 0)
(0.41239 -0.00107432 0)
(0.412342 -0.00148282 0)
(0.412272 -0.00194837 0)
(0.412174 -0.0024707 0)
(0.412039 -0.0030512 0)
(0.411853 -0.00369375 0)
(0.411599 -0.00440574 0)
(0.411255 -0.0051993 0)
(0.410792 -0.00609303 0)
(0.410172 -0.0071141 0)
(0.409343 -0.00830131 0)
(0.408241 -0.00970913 0)
(0.406778 -0.0114147 0)
(0.404843 -0.0135267 0)
(0.402286 -0.0161991 0)
(0.39893 -0.0196818 0)
(0.394498 -0.0241889 0)
(0.388776 -0.0309063 0)
(0.41246 5.91351e-06 0)
(0.412462 2.98028e-05 0)
(0.412465 6.81031e-05 0)
(0.41247 0.000107929 0)
(0.412476 0.000137223 0)
(0.41248 0.000145229 0)
(0.412482 0.000136532 0)
(0.412483 8.29067e-05 0)
(0.412481 -2.76084e-05 0)
(0.412472 -0.000193631 0)
(0.412453 -0.000417386 0)
(0.412423 -0.000699153 0)
(0.412376 -0.00103752 0)
(0.412309 -0.00143018 0)
(0.412214 -0.00187469 0)
(0.412083 -0.00236914 0)
(0.411904 -0.00291278 0)
(0.411665 -0.00350664 0)
(0.411345 -0.00415438 0)
(0.41092 -0.0048632 0)
(0.410356 -0.00564517 0)
(0.409611 -0.00651878 0)
(0.408626 -0.00751131 0)
(0.407324 -0.00866194 0)
(0.405601 -0.0100272 0)
(0.403317 -0.0116887 0)
(0.400291 -0.0137634 0)
(0.396244 -0.0164515 0)
(0.390913 -0.0199132 0)
(0.383506 -0.0251886 0)
(0.41246 5.2531e-06 0)
(0.412462 2.77543e-05 0)
(0.412466 6.45231e-05 0)
(0.412473 0.000103055 0)
(0.412481 0.000132321 0)
(0.412488 0.000142691 0)
(0.412493 0.000133623 0)
(0.412498 8.22362e-05 0)
(0.412497 -2.3389e-05 0)
(0.412488 -0.000182728 0)
(0.412467 -0.000397479 0)
(0.412431 -0.000667317 0)
(0.412374 -0.000990086 0)
(0.412291 -0.00136252 0)
(0.412175 -0.00178092 0)
(0.412017 -0.00224171 0)
(0.411804 -0.00274186 0)
(0.411521 -0.00327942 0)
(0.41115 -0.00385398 0)
(0.410662 -0.0044673 0)
(0.410023 -0.00512411 0)
(0.409186 -0.005833 0)
(0.408089 -0.00660778 0)
(0.406646 -0.00746922 0)
(0.404744 -0.00844849 0)
(0.402219 -0.00959211 0)
(0.398869 -0.0109683 0)
(0.394337 -0.0127029 0)
(0.388371 -0.0148828 0)
(0.379698 -0.0182534 0)
(0.41246 4.4452e-06 0)
(0.412462 2.51248e-05 0)
(0.412468 5.9818e-05 0)
(0.412477 9.66116e-05 0)
(0.412488 0.000125369 0)
(0.412498 0.000137492 0)
(0.412507 0.000128304 0)
(0.412515 7.94544e-05 0)
(0.412517 -2.02916e-05 0)
(0.412509 -0.000171426 0)
(0.412487 -0.000375099 0)
(0.412447 -0.00063038 0)
(0.412383 -0.000934396 0)
(0.412289 -0.00128297 0)
(0.412157 -0.0016712 0)
(0.411978 -0.00209386 0)
(0.411739 -0.0025457 0)
(0.411425 -0.0030217 0)
(0.411016 -0.00351729 0)
(0.410486 -0.00402858 0)
(0.409798 -0.00455257 0)
(0.408907 -0.00508723 0)
(0.407747 -0.00563172 0)
(0.40623 -0.00618655 0)
(0.404239 -0.00675435 0)
(0.4016 -0.00734131 0)
(0.398101 -0.0079585 0)
(0.393339 -0.00864017 0)
(0.387076 -0.00938413 0)
(0.377737 -0.0105265 0)
(0.412461 3.43401e-06 0)
(0.412463 2.17785e-05 0)
(0.41247 5.36817e-05 0)
(0.412481 8.81607e-05 0)
(0.412495 0.000116168 0)
(0.412509 0.000129414 0)
(0.412522 0.000120214 0)
(0.412535 7.3937e-05 0)
(0.412541 -1.91998e-05 0)
(0.412535 -0.00016085 0)
(0.412514 -0.000351664 0)
(0.412472 -0.000590174 0)
(0.412404 -0.000872868 0)
(0.412302 -0.00119475 0)
(0.412159 -0.0015498 0)
(0.411965 -0.00193127 0)
(0.411709 -0.00233181 0)
(0.411375 -0.00274346 0)
(0.410945 -0.00315764 0)
(0.410393 -0.00356489 0)
(0.409685 -0.00395453 0)
(0.408775 -0.00431388 0)
(0.407603 -0.00462727 0)
(0.406083 -0.00487443 0)
(0.404099 -0.00502848 0)
(0.401481 -0.00505332 0)
(0.398023 -0.00489979 0)
(0.393317 -0.00450473 0)
(0.387141 -0.00376793 0)
(0.377849 -0.00255561 0)
(0.412461 2.14896e-06 0)
(0.412464 1.75614e-05 0)
(0.412472 4.60748e-05 0)
(0.412486 7.78044e-05 0)
(0.412504 0.000104345 0)
(0.412522 0.000117629 0)
(0.41254 0.000108714 0)
(0.412557 6.53086e-05 0)
(0.412568 -2.07409e-05 0)
(0.412566 -0.000151905 0)
(0.412547 -0.000328456 0)
(0.412505 -0.000548472 0)
(0.412435 -0.0008079 0)
(0.412329 -0.00110105 0)
(0.41218 -0.00142097 0)
(0.411978 -0.00175959 0)
(0.411713 -0.00210769 0)
(0.41137 -0.00245469 0)
(0.410934 -0.00278834 0)
(0.410379 -0.00309405 0)
(0.409678 -0.00335399 0)
(0.408787 -0.00354551 0)
(0.407653 -0.00363893 0)
(0.406197 -0.00359427 0)
(0.404315 -0.00335652 0)
(0.401854 -0.00284886 0)
(0.398624 -0.0019639 0)
(0.394259 -0.000536901 0)
(0.388565 0.00159875 0)
(0.380048 0.00504782 0)
(0.412461 5.84027e-07 0)
(0.412465 1.22691e-05 0)
(0.412475 3.66401e-05 0)
(0.412492 6.5016e-05 0)
(0.412513 8.95855e-05 0)
(0.412537 0.000102205 0)
(0.412561 9.33873e-05 0)
(0.412583 5.31815e-05 0)
(0.412598 -2.55388e-05 0)
(0.412601 -0.000145493 0)
(0.412585 -0.000306718 0)
(0.412545 -0.000506942 0)
(0.412476 -0.000741721 0)
(0.412369 -0.00100486 0)
(0.412217 -0.0012887 0)
(0.412013 -0.00158413 0)
(0.411747 -0.00188041 0)
(0.411407 -0.00216483 0)
(0.410977 -0.002422 0)
(0.410439 -0.00263299 0)
(0.409768 -0.0027738 0)
(0.40893 -0.00281315 0)
(0.407878 -0.00270918 0)
(0.406549 -0.00240474 0)
(0.404857 -0.00182041 0)
(0.402676 -0.000843199 0)
(0.399852 0.000682661 0)
(0.396082 0.0030046 0)
(0.391208 0.00635509 0)
(0.384111 0.0117015 0)
(0.412461 -1.60959e-06 0)
(0.412466 6.04849e-06 0)
(0.412479 2.53011e-05 0)
(0.412499 4.96129e-05 0)
(0.412524 7.1454e-05 0)
(0.412553 8.25904e-05 0)
(0.412583 7.40487e-05 0)
(0.41261 3.71802e-05 0)
(0.412631 -3.40719e-05 0)
(0.412638 -0.00014234 0)
(0.412627 -0.000287508 0)
(0.412591 -0.00046706 0)
(0.412524 -0.000676327 0)
(0.412419 -0.000908823 0)
(0.41227 -0.00115644 0)
(0.412069 -0.00140941 0)
(0.411808 -0.00165594 0)
(0.411478 -0.00188173 0)
(0.411068 -0.0020691 0)
(0.410562 -0.00219575 0)
(0.409943 -0.00223295 0)
(0.409185 -0.00214269 0)
(0.408254 -0.00187364 0)
(0.407105 -0.00135522 0)
(0.405674 -0.000489254 0)
(0.403873 0.000863972 0)
(0.401591 0.00289531 0)
(0.398625 0.00590332 0)
(0.394847 0.0101921 0)
(0.389645 0.0169448 0)
(0.412461 -4.43221e-06 0)
(0.412468 -1.8074e-06 0)
(0.412483 1.17169e-05 0)
(0.412507 3.13169e-05 0)
(0.412538 4.98349e-05 0)
(0.412571 5.90064e-05 0)
(0.412606 5.0538e-05 0)
(0.41264 1.7063e-05 0)
(0.412666 -4.66728e-05 0)
(0.412679 -0.00014305 0)
(0.412674 -0.000271781 0)
(0.412642 -0.000430253 0)
(0.412579 -0.000613782 0)
(0.412479 -0.000815841 0)
(0.412335 -0.00102818 0)
(0.412141 -0.00124075 0)
(0.411891 -0.00144123 0)
(0.411579 -0.0016144 0)
(0.411197 -0.0017412 0)
(0.410735 -0.00179722 0)
(0.410184 -0.00175068 0)
(0.409527 -0.00155922 0)
(0.408746 -0.00116536 0)
(0.407815 -0.000489945 0)
(0.406698 0.000578648 0)
(0.405349 0.00219147 0)
(0.403703 0.00456281 0)
(0.401677 0.00802447 0)
(0.399174 0.0129069 0)
(0.396144 0.0204644 0)
(0.412462 -7.70845e-06 0)
(0.41247 -1.19111e-05 0)
(0.412489 -4.664e-06 0)
(0.412518 9.88978e-06 0)
(0.412553 2.45188e-05 0)
(0.412592 3.12426e-05 0)
(0.412632 2.27693e-05 0)
(0.412671 -7.21469e-06 0)
(0.412704 -6.32224e-05 0)
(0.412723 -0.000147316 0)
(0.412723 -0.000259031 0)
(0.412697 -0.000395785 0)
(0.41264 -0.000553107 0)
(0.412545 -0.000724673 0)
(0.412408 -0.000902439 0)
(0.412224 -0.00107656 0)
(0.411989 -0.0012348 0)
(0.4117 -0.00136182 0)
(0.411352 -0.00143815 0)
(0.410944 -0.00143869 0)
(0.41047 -0.00133046 0)
(0.409929 -0.00106941 0)
(0.409315 -0.000595697 0)
(0.408625 0.000174165 0)
(0.407851 0.00135293 0)
(0.406989 0.00309887 0)
(0.406031 0.00563252 0)
(0.405008 0.00928979 0)
(0.403845 0.0144042 0)
(0.403042 0.022144 0)
(0.412462 -1.19611e-05 0)
(0.412473 -2.49287e-05 0)
(0.412497 -2.43812e-05 0)
(0.412532 -1.45979e-05 0)
(0.412571 -4.13862e-06 0)
(0.412615 -7.63188e-07 0)
(0.412661 -1.02979e-05 0)
(0.412707 -3.77131e-05 0)
(0.412745 -8.68158e-05 0)
(0.41277 -0.000159324 0)
(0.412776 -0.000254694 0)
(0.412757 -0.000370604 0)
(0.412705 -0.000503036 0)
(0.412618 -0.000646023 0)
(0.412489 -0.000791941 0)
(0.412317 -0.000931573 0)
(0.4121 -0.00105332 0)
(0.411835 -0.00114246 0)
(0.411526 -0.00118018 0)
(0.411173 -0.00114207 0)
(0.410782 -0.000995969 0)
(0.41036 -0.00069895 0)
(0.409919 -0.000193434 0)
(0.409475 0.000604285 0)
(0.409049 0.00180002 0)
(0.408681 0.00355071 0)
(0.408411 0.00606667 0)
(0.408376 0.00965985 0)
(0.408522 0.0146544 0)
(0.40982 0.0220081 0)
(0.412463 -1.79976e-05 0)
(0.412478 -4.24354e-05 0)
(0.41251 -4.84668e-05 0)
(0.412551 -4.24043e-05 0)
(0.412595 -3.50182e-05 0)
(0.412642 -3.32958e-05 0)
(0.412694 -4.18085e-05 0)
(0.412745 -6.47809e-05 0)
(0.412789 -0.000105718 0)
(0.41282 -0.000165514 0)
(0.412832 -0.000243096 0)
(0.412818 -0.000336601 0)
(0.412773 -0.000442875 0)
(0.412693 -0.000556517 0)
(0.412574 -0.000670775 0)
(0.412414 -0.000777756 0)
(0.412214 -0.000867047 0)
(0.411975 -0.00092525 0)
(0.411704 -0.000935225 0)
(0.411407 -0.000874557 0)
(0.411096 -0.000713573 0)
(0.41079 -0.000412557 0)
(0.410515 8.26769e-05 0)
(0.410306 0.000840833 0)
(0.410211 0.0019661 0)
(0.410308 0.00359784 0)
(0.410683 0.00592359 0)
(0.411557 0.00921228 0)
(0.412902 0.0137675 0)
(0.416035 0.0202479 0)
(0.412465 -2.70173e-05 0)
(0.412488 -6.57782e-05 0)
(0.412532 -7.90677e-05 0)
(0.41258 -7.96842e-05 0)
(0.412629 -7.99499e-05 0)
(0.412681 -8.45075e-05 0)
(0.412737 -9.59362e-05 0)
(0.412793 -0.000117595 0)
(0.412842 -0.000152111 0)
(0.412879 -0.000200864 0)
(0.412897 -0.000262451 0)
(0.412889 -0.000335686 0)
(0.41285 -0.00041901 0)
(0.412777 -0.000506982 0)
(0.412667 -0.000593177 0)
(0.412519 -0.000671868 0)
(0.412335 -0.000734473 0)
(0.412121 -0.000769496 0)
(0.411884 -0.000762436 0)
(0.411639 -0.000694271 0)
(0.411402 -0.000539752 0)
(0.411203 -0.000265289 0)
(0.411075 0.000174129 0)
(0.411074 0.000836418 0)
(0.411274 0.00181005 0)
(0.411782 0.00321389 0)
(0.412719 0.00520529 0)
(0.414372 0.00799401 0)
(0.41674 0.0118488 0)
(0.42137 0.0170708 0)
(0.412469 -4.49104e-05 0)
(0.412506 -8.82771e-05 0)
(0.412563 -9.34765e-05 0)
(0.412617 -9.14518e-05 0)
(0.412669 -9.45069e-05 0)
(0.412725 -0.00010095 0)
(0.412786 -0.000111348 0)
(0.412848 -0.000128048 0)
(0.412903 -0.000156216 0)
(0.412945 -0.000192634 0)
(0.412963 -0.000236543 0)
(0.412964 -0.000287718 0)
(0.412933 -0.000344436 0)
(0.412865 -0.000403917 0)
(0.412764 -0.000462393 0)
(0.412627 -0.00051451 0)
(0.41246 -0.000553732 0)
(0.41227 -0.000571744 0)
(0.412067 -0.000557349 0)
(0.411869 -0.000495519 0)
(0.411699 -0.000366157 0)
(0.411592 -0.000142978 0)
(0.411593 0.000206144 0)
(0.411772 0.000727171 0)
(0.412221 0.00147965 0)
(0.413073 0.00255639 0)
(0.414477 0.00408026 0)
(0.416746 0.00620764 0)
(0.419916 0.00914092 0)
(0.425638 0.0128576 0)
(0.41248 -9.01801e-05 0)
(0.412557 -0.000191512 0)
(0.412658 -0.000185004 0)
(0.412717 -0.000182263 0)
(0.412765 -0.000185186 0)
(0.412816 -0.000191903 0)
(0.412865 -0.000203218 0)
(0.412905 -0.000218627 0)
(0.412933 -0.000238286 0)
(0.412947 -0.000262407 0)
(0.412944 -0.000291834 0)
(0.412918 -0.000325415 0)
(0.412866 -0.000361141 0)
(0.412788 -0.000397761 0)
(0.412681 -0.000429437 0)
(0.412546 -0.000459705 0)
(0.412388 -0.000482194 0)
(0.412214 -0.000490039 0)
(0.412037 -0.000476889 0)
(0.411878 -0.000433449 0)
(0.411767 -0.000347032 0)
(0.411745 -0.000200535 0)
(0.411869 3.0298e-05 0)
(0.412204 0.000374195 0)
(0.412841 0.000871844 0)
(0.413877 0.00158305 0)
(0.415537 0.00257969 0)
(0.418151 0.00395574 0)
(0.421966 0.00587224 0)
(0.427789 0.00794096 0)
(0.412281 -6.34143e-05 0)
(0.412166 -0.000125856 0)
(0.411967 -0.000145299 0)
(0.411725 -0.000151294 0)
(0.411482 -0.000155582 0)
(0.411244 -0.00015887 0)
(0.411002 -0.000162049 0)
(0.410749 -0.000166918 0)
(0.410479 -0.000174909 0)
(0.410188 -0.000186026 0)
(0.40987 -0.000199836 0)
(0.409522 -0.000215464 0)
(0.409139 -0.000231818 0)
(0.40872 -0.000248413 0)
(0.408267 -0.000264516 0)
(0.407784 -0.00027776 0)
(0.407274 -0.00028667 0)
(0.406751 -0.000289968 0)
(0.406229 -0.000285402 0)
(0.405732 -0.000270011 0)
(0.405292 -0.000239492 0)
(0.404957 -0.000184361 0)
(0.404791 -0.000110562 0)
(0.404886 1.32134e-05 0)
(0.405376 0.000205127 0)
(0.406434 0.000470328 0)
(0.408282 0.000839422 0)
(0.411213 0.00132502 0)
(0.415634 0.00208526 0)
(0.423106 0.00250967 0)
(0.447252 -0.00415137 -7.89424e-20)
(0.450181 -0.00620374 -7.92728e-20)
(0.452656 -0.0087155 -1.13055e-18)
(0.454478 -0.011504 -3.26537e-19)
(0.455943 -0.0145231 3.3174e-19)
(0.457311 -0.0177591 0)
(0.458457 -0.0211949 0)
(0.459414 -0.024849 3.45494e-19)
(0.460259 -0.0287543 -3.51848e-19)
(0.461041 -0.0329382 -7.12727e-19)
(0.461773 -0.0374251 7.26515e-19)
(0.462451 -0.0422451 0)
(0.463064 -0.047438 -7.48321e-19)
(0.463601 -0.0530555 7.63953e-19)
(0.464051 -0.0591627 0)
(0.464408 -0.0658402 1.57211e-18)
(0.464663 -0.073187 8.00435e-19)
(0.464805 -0.0813254 8.05506e-19)
(0.464819 -0.0904076 8.26875e-19)
(0.46468 -0.100625 8.27853e-19)
(0.464354 -0.112223 -8.51067e-19)
(0.463794 -0.125517 2.59079e-18)
(0.462925 -0.140925 0)
(0.461662 -0.158983 -1.73974e-18)
(0.459772 -0.180471 8.68807e-19)
(0.457195 -0.206282 -1.75215e-18)
(0.452998 -0.23794 -2.54621e-18)
(0.447178 -0.278395 0)
(0.438781 -0.320667 0)
(0.418629 -0.413989 -2.79554e-19)
(0.450691 -0.00929344 -1.28969e-18)
(0.452325 -0.0115892 0)
(0.453582 -0.0143397 0)
(0.45441 -0.017303 -1.34215e-18)
(0.455344 -0.0204229 1.36265e-18)
(0.455893 -0.0237215 1.38411e-18)
(0.456514 -0.0272247 -3.50219e-19)
(0.457102 -0.0309598 3.56773e-19)
(0.457642 -0.0349485 1.09207e-18)
(0.458141 -0.0392096 1.84835e-18)
(0.458581 -0.0437676 -7.48958e-19)
(0.458936 -0.0486586 1.53588e-18)
(0.459184 -0.05393 7.78598e-19)
(0.459314 -0.0596395 8.02339e-19)
(0.459314 -0.0658557 8.08789e-19)
(0.459172 -0.0726603 1.65809e-18)
(0.458868 -0.080152 0)
(0.458375 -0.088452 -8.54441e-19)
(0.457657 -0.0977106 -8.88593e-19)
(0.456663 -0.108116 0)
(0.455328 -0.119908 9.0488e-19)
(0.453561 -0.133389 9.48866e-19)
(0.451232 -0.148955 -1.91704e-18)
(0.448175 -0.167109 0)
(0.44406 -0.188565 9.57018e-19)
(0.438697 -0.214094 1.02082e-18)
(0.430854 -0.245237 -2.02182e-18)
(0.420973 -0.283362 9.23612e-19)
(0.40595 -0.326385 -9.68695e-19)
(0.38072 -0.409131 3.92938e-19)
(0.449308 -0.0140726 1.31401e-18)
(0.450204 -0.0163373 0)
(0.450904 -0.0190569 -1.68951e-19)
(0.451545 -0.0220163 2.92198e-18)
(0.452127 -0.025151 -1.04488e-18)
(0.452686 -0.0284648 -2.12584e-18)
(0.453223 -0.0319942 1.81002e-18)
(0.453687 -0.0357556 -3.66796e-19)
(0.45405 -0.0397602 -1.11603e-18)
(0.454305 -0.0440314 -3.67195e-19)
(0.454443 -0.0486053 3.88346e-19)
(0.45445 -0.0535257 -2.36637e-18)
(0.454315 -0.058842 1.61496e-18)
(0.454028 -0.0646103 -2.46499e-18)
(0.453573 -0.0708961 0)
(0.452923 -0.0777786 -1.71007e-18)
(0.452046 -0.0853543 0)
(0.450897 -0.0937422 0)
(0.449419 -0.103089 1.82732e-18)
(0.44754 -0.113577 0)
(0.445163 -0.125434 0)
(0.442158 -0.138948 -1.95714e-18)
(0.438343 -0.154486 2.00173e-18)
(0.433483 -0.172511 0)
(0.427164 -0.193665 0)
(0.419068 -0.218622 -2.12303e-18)
(0.407799 -0.2488 9.36989e-19)
(0.393965 -0.28471 -5.97417e-19)
(0.372471 -0.327527 -5.78165e-19)
(0.342847 -0.39986 0)
(0.447634 -0.0190662 -4.19925e-20)
(0.448233 -0.0214073 -4.26333e-20)
(0.448677 -0.0241681 1.30708e-18)
(0.449129 -0.0271428 -2.82558e-18)
(0.449547 -0.0302855 1.79719e-19)
(0.449875 -0.033606 3.65351e-19)
(0.4501 -0.0371324 -3.5992e-19)
(0.450214 -0.0408872 0)
(0.450211 -0.0448929 1.94198e-18)
(0.450084 -0.0491795 -3.5532e-18)
(0.449827 -0.0537831 1.6217e-18)
(0.449424 -0.0587436 8.22959e-19)
(0.448858 -0.0641051 -2.53796e-18)
(0.448105 -0.0699205 0)
(0.447133 -0.0762538 0)
(0.445905 -0.0831833 1.82529e-18)
(0.444373 -0.0908036 1.87418e-18)
(0.442479 -0.0992298 9.51801e-19)
(0.44015 -0.108602 -7.44136e-22)
(0.437288 -0.119091 -1.00741e-18)
(0.433768 -0.130909 0)
(0.429422 -0.144319 0)
(0.424022 -0.159654 -1.15122e-18)
(0.417268 -0.177323 -3.48123e-18)
(0.408682 -0.197882 0)
(0.397833 -0.221894 -1.30797e-18)
(0.383228 -0.250583 2.43588e-18)
(0.365546 -0.283979 -4.72164e-18)
(0.337993 -0.324821 6.90706e-19)
(0.305324 -0.386611 0)
(0.44525 -0.023888 0)
(0.44554 -0.0262403 1.40826e-18)
(0.445658 -0.028978 -1.24582e-18)
(0.445831 -0.0319272 1.26788e-18)
(0.44597 -0.0350539 1.8515e-19)
(0.445993 -0.0383725 -1.88817e-19)
(0.445893 -0.0419061 -1.53329e-18)
(0.445678 -0.0456754 0)
(0.445341 -0.0497015 1.87544e-20)
(0.444866 -0.0540109 1.63158e-18)
(0.444233 -0.0586355 -2.08783e-18)
(0.443419 -0.0636128 2.16178e-18)
(0.442398 -0.068987 2.18846e-18)
(0.441138 -0.0748112 -4.51392e-19)
(0.4396 -0.0811489 2.8012e-18)
(0.437738 -0.0880756 -1.86754e-18)
(0.435495 -0.095681 -1.96568e-18)
(0.432798 -0.104072 -1.01042e-18)
(0.429556 -0.113378 0)
(0.425649 -0.123756 0)
(0.420925 -0.135396 0)
(0.415183 -0.148533 1.16158e-18)
(0.408155 -0.163455 3.62881e-18)
(0.39949 -0.180512 1.20404e-18)
(0.388661 -0.200164 2.63436e-18)
(0.375141 -0.222863 -1.54567e-18)
(0.357421 -0.24961 3.01642e-18)
(0.336097 -0.280128 -2.44729e-19)
(0.303305 -0.31778 2.61927e-18)
(0.268639 -0.369434 4.54066e-18)
(0.442182 -0.0285104 -1.42327e-18)
(0.442177 -0.0308794 -1.43939e-18)
(0.441982 -0.0336143 -1.48117e-18)
(0.441877 -0.0365608 0)
(0.441741 -0.0396888 0)
(0.441467 -0.0430094 -1.57357e-18)
(0.441044 -0.0465415 0)
(0.440486 -0.0503038 1.23647e-18)
(0.439782 -0.0543179 -2.92702e-18)
(0.438909 -0.0586107 1.72538e-18)
(0.437841 -0.0632146 1.33068e-18)
(0.436553 -0.068167 -3.60368e-18)
(0.435014 -0.0735113 -8.54571e-22)
(0.433187 -0.0792979 -1.44725e-18)
(0.431025 -0.0855859 4.1983e-20)
(0.428474 -0.0924446 -1.99816e-18)
(0.425462 -0.0999557 -5.23846e-20)
(0.421904 -0.108217 2.19031e-18)
(0.41769 -0.117343 -1.15197e-18)
(0.412683 -0.127473 -1.16022e-18)
(0.406705 -0.138774 2.46839e-18)
(0.39953 -0.151443 0)
(0.390856 -0.165721 -2.59965e-18)
(0.380294 -0.181893 0)
(0.367287 -0.200315 -3.03186e-18)
(0.351228 -0.221331 3.04786e-18)
(0.33066 -0.245691 2.20686e-19)
(0.305994 -0.272934 3.48314e-18)
(0.268961 -0.306384 -4.73703e-18)
(0.233113 -0.348459 1.52674e-18)
(0.438381 -0.0328487 1.40938e-18)
(0.438071 -0.0352246 -4.67326e-20)
(0.437548 -0.0379433 1.80224e-18)
(0.437139 -0.0408671 5.88555e-19)
(0.436698 -0.0439694 0)
(0.436093 -0.0472604 1.61505e-18)
(0.435312 -0.0507584 1.25379e-18)
(0.434373 -0.0544824 -2.11695e-18)
(0.433263 -0.0584539 8.52623e-19)
(0.431955 -0.0626991 -8.73561e-19)
(0.430419 -0.0672482 -1.82541e-18)
(0.428624 -0.0721357 1.87648e-18)
(0.426534 -0.0774012 -4.97664e-19)
(0.424105 -0.0830905 1.48859e-18)
(0.421282 -0.0892569 -4.81767e-19)
(0.418 -0.0959628 -5.36357e-19)
(0.414178 -0.103281 3.33167e-18)
(0.409717 -0.111297 -3.46064e-18)
(0.404496 -0.12011 2.37627e-18)
(0.398358 -0.129838 6.50521e-19)
(0.39111 -0.140617 -1.93593e-18)
(0.382503 -0.152608 1.41779e-18)
(0.372212 -0.165999 0)
(0.359824 -0.181004 -7.82421e-19)
(0.344766 -0.19788 4.06126e-18)
(0.326381 -0.216858 0)
(0.303311 -0.238432 -6.71487e-18)
(0.275719 -0.262057 1.05243e-18)
(0.235563 -0.290574 0)
(0.199025 -0.323837 -5.04442e-18)
(0.43379 -0.036768 -7.59802e-19)
(0.433162 -0.0391374 -9.6656e-20)
(0.432296 -0.0418214 -5.98344e-19)
(0.431564 -0.0447001 -9.04198e-19)
(0.430797 -0.0477514 2.06894e-19)
(0.429839 -0.0509856 -2.11531e-19)
(0.428679 -0.0544199 -8.61778e-19)