/*--------------------------------*- C++ -*----------------------------------*\
  =========                 |
  \\      /  F ield         | OpenFOAM: The Open Source CFD Toolbox
   \\    /   O peration     | Website:  https://openfoam.org
    \\  /    A nd           | Version:  11
     \\/     M anipulation  |
\*---------------------------------------------------------------------------*/
FoamFile
{
    format      ascii;
    class       volVectorField;
    location    "3";
    object      U;
}
// * * * * * * * * * * * * * * * * * * * * * * * * * * * * * * * * * * * * * //

dimensions      [0 1 -1 0 0 0 0];

internalField   nonuniform List<vector> 
12600
(
(0.399657 0.000105581 0)
(0.399401 0.000177213 0)
(0.399012 0.00018332 0)
(0.398577 0.00018328 0)
(0.398157 0.000184723 0)
(0.397759 0.000184055 0)
(0.397379 0.000180975 0)
(0.397019 0.000175791 0)
(0.396687 0.000168923 0)
(0.396391 0.000159532 0)
(0.396141 0.000147159 0)
(0.39595 0.000131367 0)
(0.395831 0.00011325 0)
(0.395799 8.85592e-05 0)
(0.395875 5.7781e-05 0)
(0.396084 1.44895e-05 0)
(0.396457 -3.867e-05 0)
(0.397033 -9.98988e-05 0)
(0.39786 -0.00017649 0)
(0.398996 -0.000270286 0)
(0.400511 -0.000386226 0)
(0.402497 -0.000534231 0)
(0.405058 -0.000715746 0)
(0.408322 -0.000933964 0)
(0.412464 -0.00119907 0)
(0.417704 -0.00152238 0)
(0.424316 -0.00193221 0)
(0.432554 -0.00237988 0)
(0.442821 -0.00319304 0)
(0.457209 -0.00289885 0)
(0.400035 0.000149818 0)
(0.40018 0.000262958 0)
(0.400353 0.000239161 0)
(0.400442 0.000223855 0)
(0.400531 0.00021624 0)
(0.40064 0.00020611 0)
(0.400765 0.000191167 0)
(0.400909 0.000170723 0)
(0.401078 0.000144051 0)
(0.401279 0.000112667 0)
(0.401522 7.384e-05 0)
(0.401815 2.50967e-05 0)
(0.402172 -3.46541e-05 0)
(0.402607 -0.000108143 0)
(0.403134 -0.000197856 0)
(0.403775 -0.000306521 0)
(0.40455 -0.000439022 0)
(0.405495 -0.000601836 0)
(0.406636 -0.000801734 0)
(0.407985 -0.00105003 0)
(0.409696 -0.00135983 0)
(0.411711 -0.00174081 0)
(0.414249 -0.00220999 0)
(0.417401 -0.00279606 0)
(0.421319 -0.00353048 0)
(0.426202 -0.00444403 0)
(0.432277 -0.00557417 0)
(0.439826 -0.00690753 0)
(0.449183 -0.00878198 0)
(0.460687 -0.0096659 0)
(0.400023 7.51493e-05 0)
(0.400107 0.000128291 0)
(0.400219 0.000114606 0)
(0.400317 0.000104142 0)
(0.40041 9.81525e-05 0)
(0.400514 8.53219e-05 0)
(0.400633 6.46866e-05 0)
(0.400768 3.61287e-05 0)
(0.400924 -1.29423e-06 0)
(0.401109 -5.13252e-05 0)
(0.401332 -0.000114311 0)
(0.401603 -0.000191185 0)
(0.401934 -0.000284742 0)
(0.402339 -0.000398866 0)
(0.402834 -0.000537963 0)
(0.403441 -0.00070749 0)
(0.404184 -0.000915579 0)
(0.405091 -0.00117047 0)
(0.406206 -0.00147861 0)
(0.407575 -0.00186422 0)
(0.409254 -0.00234335 0)
(0.411319 -0.00292584 0)
(0.413865 -0.00365407 0)
(0.416998 -0.00457822 0)
(0.420848 -0.00573972 0)
(0.425605 -0.00717986 0)
(0.431468 -0.0089605 0)
(0.438832 -0.011102 0)
(0.447689 -0.013952 0)
(0.459785 -0.0162096 0)
(0.400015 4.36428e-05 0)
(0.400075 9.74418e-05 0)
(0.400169 0.000106595 0)
(0.400263 9.70189e-05 0)
(0.400352 8.49328e-05 0)
(0.400451 6.68187e-05 0)
(0.400565 4.01402e-05 0)
(0.400695 2.94734e-06 0)
(0.400847 -4.66733e-05 0)
(0.401026 -0.00011114 0)
(0.401243 -0.000193196 0)
(0.401505 -0.000295919 0)
(0.401825 -0.000422709 0)
(0.402216 -0.000578239 0)
(0.402695 -0.000768726 0)
(0.403281 -0.0010019 0)
(0.403998 -0.00128738 0)
(0.404874 -0.00163649 0)
(0.405949 -0.0020635 0)
(0.407268 -0.00259224 0)
(0.408885 -0.00324676 0)
(0.410868 -0.0040569 0)
(0.413308 -0.00506919 0)
(0.416314 -0.00633222 0)
(0.420014 -0.0078998 0)
(0.424589 -0.00984069 0)
(0.430221 -0.0122579 0)
(0.437321 -0.0151967 0)
(0.44583 -0.0190594 0)
(0.457653 -0.0226376 0)
(0.40001 2.44957e-05 0)
(0.400054 5.87878e-05 0)
(0.400131 5.96394e-05 0)
(0.400216 4.19594e-05 0)
(0.400302 2.03455e-05 0)
(0.400395 -6.45407e-06 0)
(0.400504 -4.41638e-05 0)
(0.400631 -9.29808e-05 0)
(0.400777 -0.000156836 0)
(0.400949 -0.000238901 0)
(0.401157 -0.000342705 0)
(0.401409 -0.000472427 0)
(0.401715 -0.0006325 0)
(0.40209 -0.000828518 0)
(0.402547 -0.00106791 0)
(0.403107 -0.00136007 0)
(0.40379 -0.00171704 0)
(0.404626 -0.00215416 0)
(0.405649 -0.00269044 0)
(0.406902 -0.0033526 0)
(0.408437 -0.00417259 0)
(0.410318 -0.00518641 0)
(0.412631 -0.00644337 0)
(0.415478 -0.00800782 0)
(0.418978 -0.00995803 0)
(0.423307 -0.0123854 0)
(0.428632 -0.0154147 0)
(0.435374 -0.0191284 0)
(0.443419 -0.0239336 0)
(0.454801 -0.0288778 0)
(0.400008 1.08814e-05 0)
(0.400041 2.68541e-05 0)
(0.400105 2.29723e-05 0)
(0.400183 4.11437e-06 0)
(0.400265 -2.02637e-05 0)
(0.400355 -5.03474e-05 0)
(0.400458 -9.05937e-05 0)
(0.400578 -0.000146843 0)
(0.400717 -0.00022123 0)
(0.400881 -0.000317278 0)
(0.401078 -0.000439442 0)
(0.401317 -0.000592634 0)
(0.401607 -0.000782156 0)
(0.40196 -0.00101463 0)
(0.402392 -0.00129888 0)
(0.402919 -0.00164626 0)
(0.403562 -0.00207132 0)
(0.404347 -0.00259238 0)
(0.405306 -0.00323224 0)
(0.406479 -0.00402103 0)
(0.407915 -0.00499571 0)
(0.409673 -0.00620053 0)
(0.41183 -0.00769514 0)
(0.41448 -0.00955621 0)
(0.417736 -0.0118752 0)
(0.421764 -0.014761 0)
(0.426715 -0.0183637 0)
(0.433005 -0.022811 0)
(0.440474 -0.028514 0)
(0.451247 -0.0347826 0)
(0.400006 6.95074e-07 0)
(0.400033 1.1324e-06 0)
(0.400087 -9.63155e-06 0)
(0.400157 -3.26525e-05 0)
(0.400234 -6.30824e-05 0)
(0.400318 -0.000100574 0)
(0.400415 -0.000149544 0)
(0.400528 -0.000215613 0)
(0.400658 -0.000302482 0)
(0.400813 -0.0004143 0)
(0.400997 -0.000555924 0)
(0.40122 -0.00073288 0)
(0.401491 -0.000951497 0)
(0.40182 -0.00121955 0)
(0.402221 -0.00154706 0)
(0.40271 -0.001947 0)
(0.403306 -0.0024359 0)
(0.404032 -0.00303471 0)
(0.404917 -0.00376972 0)
(0.405998 -0.00467464 0)
(0.407319 -0.00579159 0)
(0.408932 -0.00717241 0)
(0.410908 -0.00888411 0)
(0.413331 -0.011012 0)
(0.416304 -0.013662 0)
(0.41998 -0.016964 0)
(0.424488 -0.0210931 0)
(0.430233 -0.0262211 0)
(0.437018 -0.0327558 0)
(0.447015 -0.0402888 0)
(0.400005 -7.21764e-06 0)
(0.400027 -2.01657e-05 0)
(0.400074 -3.90557e-05 0)
(0.400136 -6.70666e-05 0)
(0.400207 -0.000102483 0)
(0.400286 -0.000145685 0)
(0.400376 -0.000201069 0)
(0.400481 -0.000274472 0)
(0.400602 -0.000370813 0)
(0.400745 -0.000495008 0)
(0.400916 -0.000652542 0)
(0.401121 -0.000849633 0)
(0.40137 -0.00109344 0)
(0.401672 -0.00139264 0)
(0.402038 -0.00175833 0)
(0.402484 -0.0022049 0)
(0.403026 -0.00275081 0)
(0.403685 -0.00341944 0)
(0.404488 -0.0042401 0)
(0.405465 -0.00524987 0)
(0.406655 -0.00649521 0)
(0.408106 -0.00803389 0)
(0.409878 -0.00993983 0)
(0.412046 -0.0123076 0)
(0.414699 -0.0152565 0)
(0.417972 -0.0189345 0)
(0.421976 -0.0235382 0)
(0.427089 -0.0292821 0)
(0.433088 -0.036572 0)
(0.442132 -0.0452915 0)
(0.400004 -1.36707e-05 0)
(0.400023 -3.80626e-05 0)
(0.400063 -6.50457e-05 0)
(0.400118 -9.83975e-05 0)
(0.400183 -0.000138631 0)
(0.400256 -0.00018727 0)
(0.400339 -0.000248933 0)
(0.400435 -0.000329767 0)
(0.400546 -0.000435599 0)
(0.400677 -0.000572037 0)
(0.400832 -0.00074506 0)
(0.401018 -0.000961398 0)
(0.401242 -0.00122885 0)
(0.401513 -0.00155689 0)
(0.401842 -0.00195762 0)
(0.40224 -0.00244669 0)
(0.402723 -0.0030442 0)
(0.403308 -0.00377554 0)
(0.404019 -0.00467253 0)
(0.404882 -0.00577513 0)
(0.40593 -0.00713347 0)
(0.407203 -0.00881033 0)
(0.408751 -0.0108858 0)
(0.410638 -0.0134621 0)
(0.412938 -0.0166694 0)
(0.415767 -0.0206715 0)
(0.419211 -0.0256846 0)
(0.423613 -0.0319639 0)
(0.428729 -0.0399138 0)
(0.436637 -0.0497119 0)
(0.400004 -1.91893e-05 0)
(0.40002 -5.35055e-05 0)
(0.400054 -8.80044e-05 0)
(0.400103 -0.000126697 0)
(0.400162 -0.000171598 0)
(0.400228 -0.000225273 0)
(0.400303 -0.000292654 0)
(0.40039 -0.000380153 0)
(0.40049 -0.000494209 0)
(0.400607 -0.00064105 0)
(0.400745 -0.000827175 0)
(0.40091 -0.00105981 0)
(0.401108 -0.00134732 0)
(0.401347 -0.00169991 0)
(0.401634 -0.00213051 0)
(0.401981 -0.00265587 0)
(0.4024 -0.00329741 0)
(0.402906 -0.00408221 0)
(0.403518 -0.00504414 0)
(0.404258 -0.00622559 0)
(0.405152 -0.00767966 0)
(0.406234 -0.00947308 0)
(0.407542 -0.0116907 0)
(0.409127 -0.014441 0)
(0.411047 -0.017863 0)
(0.413395 -0.0221333 0)
(0.416231 -0.027485 0)
(0.419851 -0.0342091 0)
(0.423998 -0.0427083 0)
(0.430591 -0.0534446 0)
(0.400003 -2.38774e-05 0)
(0.400017 -6.67526e-05 0)
(0.400047 -0.000108165 0)
(0.40009 -0.000152074 0)
(0.400142 -0.000201363 0)
(0.400201 -0.000259491 0)
(0.400269 -0.00033183 0)
(0.400345 -0.000425107 0)
(0.400434 -0.000546251 0)
(0.400537 -0.000702037 0)
(0.400657 -0.000899427 0)
(0.4008 -0.00114606 0)
(0.40097 -0.00145077 0)
(0.401173 -0.00182429 0)
(0.401416 -0.00228027 0)
(0.401709 -0.00283629 0)
(0.40206 -0.00351485 0)
(0.402482 -0.00434432 0)
(0.402989 -0.00536014 0)
(0.403598 -0.0066065 0)
(0.404331 -0.00813867 0)
(0.40521 -0.0100262 0)
(0.406265 -0.0123573 0)
(0.407532 -0.015245 0)
(0.409051 -0.0188345 0)
(0.410889 -0.0233119 0)
(0.41308 -0.0289227 0)
(0.415858 -0.0359877 0)
(0.418964 -0.0449062 0)
(0.424075 -0.0564032 0)
(0.400003 -2.78729e-05 0)
(0.400014 -7.81378e-05 0)
(0.40004 -0.000125718 0)
(0.400078 -0.000174441 0)
(0.400123 -0.000227751 0)
(0.400176 -0.000289805 0)
(0.400235 -0.000366399 0)
(0.400302 -0.000464555 0)
(0.400378 -0.000591588 0)
(0.400466 -0.000754701 0)
(0.400567 -0.000961232 0)
(0.400686 -0.00121915 0)
(0.400827 -0.00153763 0)
(0.400993 -0.00192785 0)
(0.401191 -0.00240398 0)
(0.401426 -0.00298424 0)
(0.401706 -0.0036919 0)
(0.40204 -0.00455625 0)
(0.402438 -0.0056138 0)
(0.402912 -0.00690993 0)
(0.403475 -0.0085013 0)
(0.404144 -0.0104591 0)
(0.404937 -0.0128736 0)
(0.405874 -0.01586 0)
(0.406978 -0.0195673 0)
(0.408286 -0.0241868 0)
(0.409806 -0.0299716 0)
(0.411699 -0.0372638 0)
(0.41371 -0.0464561 0)
(0.417197 -0.0584999 0)
(0.400002 -3.12672e-05 0)
(0.400012 -8.78756e-05 0)
(0.400034 -0.000140881 0)
(0.400066 -0.000193935 0)
(0.400106 -0.000250791 0)
(0.400151 -0.000316139 0)
(0.400202 -0.000396191 0)
(0.400258 -0.000498241 0)
(0.400322 -0.000629871 0)
(0.400394 -0.000798589 0)
(0.400477 -0.00101203 0)
(0.400571 -0.00127843 0)
(0.400681 -0.00160722 0)
(0.40081 -0.00200988 0)
(0.40096 -0.00250093 0)
(0.401136 -0.003099 0)
(0.401343 -0.00382783 0)
(0.401586 -0.00471727 0)
(0.401871 -0.00580438 0)
(0.402206 -0.0071351 0)
(0.402596 -0.00876662 0)
(0.40305 -0.0107706 0)
(0.403575 -0.0132378 0)
(0.404176 -0.0162838 0)
(0.404856 -0.0200577 0)
(0.405625 -0.0247522 0)
(0.40646 -0.0306218 0)
(0.407442 -0.0380197 0)
(0.408327 -0.047326 0)
(0.410084 -0.0596687 0)
(0.400002 -3.41299e-05 0)
(0.40001 -9.61394e-05 0)
(0.400029 -0.000153822 0)
(0.400056 -0.000210624 0)
(0.40009 -0.000270484 0)
(0.400128 -0.000338492 0)
(0.40017 -0.000421191 0)
(0.400216 -0.000526081 0)
(0.400267 -0.000660929 0)
(0.400323 -0.000833467 0)
(0.400386 -0.00105154 0)
(0.400456 -0.00132355 0)
(0.400534 -0.0016591 0)
(0.400624 -0.0020698 0)
(0.400725 -0.00257036 0)
(0.400841 -0.0031796 0)
(0.400973 -0.00392145 0)
(0.401124 -0.00482591 0)
(0.401295 -0.00593011 0)
(0.401488 -0.00727994 0)
(0.401704 -0.00893227 0)
(0.401942 -0.0109582 0)
(0.402196 -0.0134472 0)
(0.40246 -0.0165131 0)
(0.402717 -0.0203023 0)
(0.402946 -0.025004 0)
(0.403096 -0.0308673 0)
(0.403164 -0.0382451 0)
(0.402918 -0.0474969 0)
(0.402892 -0.0598642 0)
(0.400002 -3.65167e-05 0)
(0.400008 -0.00010307 0)
(0.400024 -0.000164705 0)
(0.400047 -0.000224645 0)
(0.400074 -0.000286911 0)
(0.400105 -0.000356878 0)
(0.400139 -0.000441349 0)
(0.400175 -0.000547978 0)
(0.400213 -0.000684639 0)
(0.400253 -0.000859179 0)
(0.400296 -0.00107956 0)
(0.40034 -0.00135426 0)
(0.400388 -0.00169293 0)
(0.400437 -0.00210722 0)
(0.40049 -0.00261183 0)
(0.400545 -0.00322556 0)
(0.400602 -0.00397224 0)
(0.400659 -0.00488166 0)
(0.400716 -0.00599056 0)
(0.400768 -0.00734414 0)
(0.400809 -0.00899819 0)
(0.400831 -0.011022 0)
(0.400819 -0.0135026 0)
(0.400749 -0.0165497 0)
(0.400589 -0.0203039 0)
(0.40029 -0.0249462 0)
(0.39977 -0.0307134 0)
(0.398943 -0.0379454 0)
(0.397592 -0.0469716 0)
(0.395789 -0.059074 0)
(0.400001 -3.84781e-05 0)
(0.400007 -0.000108804 0)
(0.40002 -0.000173701 0)
(0.400038 -0.000236135 0)
(0.40006 -0.000300152 0)
(0.400084 -0.000371343 0)
(0.40011 -0.000456703 0)
(0.400135 -0.000563955 0)
(0.400161 -0.000700989 0)
(0.400185 -0.000875678 0)
(0.400207 -0.00109601 0)
(0.400227 -0.00137046 0)
(0.400242 -0.00170862 0)
(0.400253 -0.00212203 0)
(0.400256 -0.00262524 0)
(0.40025 -0.0032368 0)
(0.400232 -0.00398018 0)
(0.400197 -0.00488459 0)
(0.40014 -0.00598596 0)
(0.400053 -0.00732822 0)
(0.399922 -0.00896533 0)
(0.399732 -0.0109639 0)
(0.399458 -0.0134068 0)
(0.399065 -0.0163979 0)
(0.398502 -0.020069 0)
(0.397694 -0.0245884 0)
(0.396534 -0.0301738 0)
(0.394856 -0.0371394 0)
(0.392455 -0.045774 0)
(0.388954 -0.057322 0)
(0.400001 -4.00666e-05 0)
(0.400005 -0.000113482 0)
(0.400016 -0.000180989 0)
(0.40003 -0.000245258 0)
(0.400047 -0.000310336 0)
(0.400065 -0.00038199 0)
(0.400082 -0.000467334 0)
(0.400098 -0.000574074 0)
(0.40011 -0.000710028 0)
(0.400119 -0.000883012 0)
(0.400121 -0.00110096 0)
(0.400116 -0.00137223 0)
(0.4001 -0.00170626 0)
(0.400071 -0.00211436 0)
(0.400026 -0.00261078 0)
(0.399961 -0.00321362 0)
(0.399869 -0.00394571 0)
(0.399743 -0.00483539 0)
(0.399575 -0.00591732 0)
(0.399351 -0.00723369 0)
(0.399053 -0.00883594 0)
(0.398658 -0.010787 0)
(0.398132 -0.0131647 0)
(0.397429 -0.016065 0)
(0.396483 -0.0196084 0)
(0.395196 -0.0239466 0)
(0.39344 -0.0292719 0)
(0.390975 -0.0358611 0)
(0.387613 -0.0439516 0)
(0.382564 -0.0546735 0)
(0.400001 -4.13413e-05 0)
(0.400004 -0.000117264 0)
(0.400012 -0.000186779 0)
(0.400024 -0.000252211 0)
(0.400036 -0.000317621 0)
(0.400048 -0.000388954 0)
(0.400057 -0.000473373 0)
(0.400062 -0.000578467 0)
(0.400063 -0.000711893 0)
(0.400056 -0.000881332 0)
(0.400039 -0.00109457 0)
(0.400009 -0.00135979 0)
(0.399963 -0.00168614 0)
(0.399896 -0.00208461 0)
(0.399803 -0.00256897 0)
(0.399679 -0.00315669 0)
(0.399515 -0.00386976 0)
(0.399302 -0.0047353 0)
(0.399025 -0.00578637 0)
(0.398669 -0.00706296 0)
(0.39821 -0.0086134 0)
(0.397619 -0.0104963 0)
(0.396855 -0.0127831 0)
(0.39586 -0.015561 0)
(0.394557 -0.0189367 0)
(0.392829 -0.0230422 0)
(0.390531 -0.0280394 0)
(0.387367 -0.0341574 0)
(0.383159 -0.041574 0)
(0.376779 -0.0512347 0)
(0.400001 -4.23747e-05 0)
(0.400003 -0.000120345 0)
(0.40001 -0.000191314 0)
(0.400019 -0.000257217 0)
(0.400027 -0.000322196 0)
(0.400032 -0.00039241 0)
(0.400034 -0.000474999 0)
(0.40003 -0.000577323 0)
(0.400019 -0.000706796 0)
(0.399997 -0.00087089 0)
(0.399961 -0.00107717 0)
(0.399907 -0.00133351 0)
(0.399831 -0.00164874 0)
(0.399728 -0.00203337 0)
(0.39959 -0.00250058 0)
(0.399409 -0.00306705 0)
(0.399176 -0.00375365 0)
(0.398877 -0.0045861 0)
(0.398498 -0.0055955 0)
(0.398016 -0.00681924 0)
(0.397404 -0.00830211 0)
(0.396628 -0.0100978 0)
(0.395639 -0.0122707 0)
(0.394374 -0.0148979 0)
(0.392745 -0.0180714 0)
(0.390621 -0.0219011 0)
(0.387845 -0.0265148 0)
(0.384084 -0.0320868 0)
(0.379168 -0.0387294 0)
(0.371733 -0.0471483 0)
(0.400001 -4.32599e-05 0)
(0.400003 -0.000122969 0)
(0.400008 -0.000194887 0)
(0.400015 -0.00026053 0)
(0.400019 -0.000324278 0)
(0.40002 -0.000392576 0)
(0.400014 -0.000472442 0)
(0.400001 -0.000570885 0)
(0.399979 -0.000695002 0)
(0.399943 -0.000852006 0)
(0.399889 -0.00104915 0)
(0.399813 -0.00129395 0)
(0.399708 -0.00159475 0)
(0.399569 -0.00196152 0)
(0.399387 -0.00240671 0)
(0.399153 -0.00294605 0)
(0.398854 -0.00359915 0)
(0.398475 -0.00439004 0)
(0.397997 -0.00534763 0)
(0.397397 -0.00650642 0)
(0.396642 -0.00790728 0)
(0.395693 -0.00959857 0)
(0.394498 -0.0116372 0)
(0.392986 -0.0140897 0)
(0.391064 -0.0170324 0)
(0.388594 -0.0205522 0)
(0.38541 -0.0247416 0)
(0.381164 -0.0297161 0)
(0.375695 -0.0355207 0)
(0.367517 -0.0425855 0)
(0.400001 -4.41228e-05 0)
(0.400003 -0.000125454 0)
(0.400008 -0.00019785 0)
(0.400014 -0.000262428 0)
(0.400015 -0.000324106 0)
(0.40001 -0.000389708 0)
(0.399998 -0.000465984 0)
(0.399977 -0.000559468 0)
(0.399944 -0.000676885 0)
(0.399894 -0.000825109 0)
(0.399823 -0.00101101 0)
(0.399726 -0.00124167 0)
(0.399595 -0.00152491 0)
(0.399422 -0.00187005 0)
(0.399199 -0.0022887 0)
(0.398914 -0.00279548 0)
(0.398553 -0.00340856 0)
(0.398099 -0.00415009 0)
(0.39753 -0.00504659 0)
(0.396819 -0.00612942 0)
(0.395932 -0.00743531 0)
(0.394825 -0.00900708 0)
(0.393442 -0.010894 0)
(0.391709 -0.0131519 0)
(0.38953 -0.0158415 0)
(0.386763 -0.0190269 0)
(0.383245 -0.0227662 0)
(0.37863 -0.0271162 0)
(0.372768 -0.0320578 0)
(0.364173 -0.0377332 0)
(0.400001 -4.51413e-05 0)
(0.400004 -0.000128234 0)
(0.40001 -0.000200629 0)
(0.400015 -0.000263209 0)
(0.400014 -0.000321917 0)
(0.400004 -0.000384072 0)
(0.399986 -0.000455951 0)
(0.399958 -0.000543442 0)
(0.399914 -0.000652867 0)
(0.399852 -0.000790743 0)
(0.399766 -0.000963449 0)
(0.399648 -0.00117751 0)
(0.399492 -0.00144016 0)
(0.399289 -0.00175998 0)
(0.399028 -0.00214766 0)
(0.398696 -0.00261661 0)
(0.398277 -0.00318344 0)
(0.397753 -0.00386826 0)
(0.3971 -0.00469506 0)
(0.396288 -0.0056919 0)
(0.39528 -0.00689129 0)
(0.39403 -0.00833043 0)
(0.392479 -0.0100511 0)
(0.390552 -0.0120987 0)
(0.388151 -0.0145192 0)
(0.385139 -0.0173556 0)
(0.381359 -0.0206341 0)
(0.376487 -0.0243573 0)
(0.370387 -0.0284501 0)
(0.361691 -0.0327801 0)
(0.400001 -4.6583e-05 0)
(0.400006 -0.000131898 0)
(0.400014 -0.000203721 0)
(0.40002 -0.000263205 0)
(0.400016 -0.000318029 0)
(0.400003 -0.000375948 0)
(0.39998 -0.000442534 0)
(0.399944 -0.000523024 0)
(0.399892 -0.000623361 0)
(0.399819 -0.000749618 0)
(0.399718 -0.000907562 0)
(0.399582 -0.00110309 0)
(0.399403 -0.00134276 0)
(0.399172 -0.0016343 0)
(0.398875 -0.00198742 0)
(0.3985 -0.00241424 0)
(0.398029 -0.00292964 0)
(0.397442 -0.00355156 0)
(0.396712 -0.00430128 0)
(0.395809 -0.00520349 0)
(0.394693 -0.00628645 0)
(0.393315 -0.00758187 0)
(0.391617 -0.00912431 0)
(0.389522 -0.0109495 0)
(0.386935 -0.0130904 0)
(0.383726 -0.0155709 0)
(0.379749 -0.0183907 0)
(0.374723 -0.0215066 0)
(0.368527 -0.0248001 0)
(0.360007 -0.027902 0)
(0.400002 -4.88835e-05 0)
(0.400009 -0.00013726 0)
(0.400022 -0.000207586 0)
(0.400029 -0.000262721 0)
(0.400025 -0.000313018 0)
(0.400008 -0.0003661 0)
(0.39998 -0.000426341 0)
(0.399938 -0.000498425 0)
(0.399878 -0.000588013 0)
(0.399794 -0.000700662 0)
(0.39968 -0.00084146 0)
(0.399528 -0.00101571 0)
(0.399329 -0.00122926 0)
(0.399072 -0.00148894 0)
(0.398744 -0.00180332 0)
(0.39833 -0.00218317 0)
(0.397813 -0.00264163 0)
(0.397169 -0.00319445 0)
(0.396371 -0.00386015 0)
(0.395386 -0.00466001 0)
(0.394175 -0.00561807 0)
(0.392686 -0.00676084 0)
(0.390861 -0.00811622 0)
(0.388623 -0.00971136 0)
(0.385883 -0.0115678 0)
(0.382522 -0.0136942 0)
(0.378409 -0.0160699 0)
(0.373313 -0.0186173 0)
(0.367137 -0.021191 0)
(0.359012 -0.023245 0)
(0.400003 -5.28106e-05 0)
(0.400015 -0.000145592 0)
(0.400035 -0.000212527 0)
(0.400045 -0.000261339 0)
(0.400039 -0.000306576 0)
(0.400019 -0.000355121 0)
(0.399988 -0.000409612 0)
(0.399941 -0.000473942 0)
(0.399874 -0.000553267 0)
(0.399782 -0.000652494 0)
(0.399656 -0.000775937 0)
(0.39949 -0.000928261 0)
(0.399272 -0.0011145 0)
(0.398993 -0.0013407 0)
(0.398638 -0.00161433 0)
(0.39819 -0.00194449 0)
(0.397631 -0.00234234 0)
(0.396938 -0.00282139 0)
(0.396081 -0.00339742 0)
(0.395026 -0.00408836 0)
(0.393732 -0.00491419 0)
(0.392149 -0.00589646 0)
(0.390216 -0.0070571 0)
(0.387861 -0.00841588 0)
(0.384998 -0.00998539 0)
(0.381523 -0.0117627 0)
(0.377321 -0.0137143 0)
(0.37222 -0.0157413 0)
(0.366147 -0.0176921 0)
(0.358559 -0.0189185 0)
(0.400005 -5.96766e-05 0)
(0.400027 -0.000159034 0)
(0.400056 -0.000220124 0)
(0.40007 -0.000259543 0)
(0.400062 -0.000296264 0)
(0.400039 -0.000336054 0)
(0.400005 -0.000380614 0)
(0.399954 -0.000433598 0)
(0.399881 -0.000499542 0)
(0.399781 -0.000582393 0)
(0.399646 -0.000685509 0)
(0.399467 -0.00081312 0)
(0.399235 -0.000968861 0)
(0.398936 -0.00115779 0)
(0.398557 -0.0013866 0)
(0.398081 -0.00166307 0)
(0.397488 -0.00199633 0)
(0.396753 -0.00239739 0)
(0.395846 -0.00287914 0)
(0.394732 -0.00345618 0)
(0.39337 -0.00414464 0)
(0.391707 -0.00496158 0)
(0.389687 -0.00592368 0)
(0.387238 -0.0070447 0)
(0.384281 -0.00833066 0)
(0.380725 -0.00977109 0)
(0.376475 -0.011327 0)
(0.371416 -0.0128904 0)
(0.365498 -0.0143284 0)
(0.358511 -0.0149739 0)
(0.400009 -7.1316e-05 0)
(0.400046 -0.000178406 0)
(0.400091 -0.000234303 0)
(0.40011 -0.000270334 0)
(0.400101 -0.000305161 0)
(0.400076 -0.000340974 0)
(0.400039 -0.000379025 0)
(0.399985 -0.000423107 0)
(0.399907 -0.000477212 0)
(0.399801 -0.000544622 0)
(0.399658 -0.000627402 0)
(0.399469 -0.000729978 0)
(0.399224 -0.000855172 0)
(0.398911 -0.00100658 0)
(0.398513 -0.00118923 0)
(0.398013 -0.00140935 0)
(0.397392 -0.00167445 0)
(0.396624 -0.00199334 0)
(0.395677 -0.00237613 0)
(0.394518 -0.00283416 0)
(0.393102 -0.00337982 0)
(0.391379 -0.004026 0)
(0.389293 -0.00478489 0)
(0.386776 -0.00566556 0)
(0.383757 -0.0066699 0)
(0.380157 -0.00778375 0)
(0.375901 -0.00896971 0)
(0.370925 -0.010119 0)
(0.365204 -0.0111429 0)
(0.358835 -0.0114469 0)
(0.400017 -9.52579e-05 0)
(0.400077 -0.000186424 0)
(0.400139 -0.000214037 0)
(0.40016 -0.000235468 0)
(0.400151 -0.000261148 0)
(0.400126 -0.000287491 0)
(0.400088 -0.000315548 0)
(0.400031 -0.000348783 0)
(0.39995 -0.000389693 0)
(0.39984 -0.000440095 0)
(0.399691 -0.00050247 0)
(0.399494 -0.000578233 0)
(0.39924 -0.000670377 0)
(0.398914 -0.00078235 0)
(0.398502 -0.00091772 0)
(0.397985 -0.00108089 0)
(0.397342 -0.00127721 0)
(0.396548 -0.0015129 0)
(0.395572 -0.00179516 0)
(0.394378 -0.00213221 0)
(0.392924 -0.00253305 0)
(0.39116 -0.00300692 0)
(0.389032 -0.00356231 0)
(0.386477 -0.00420504 0)
(0.383432 -0.00493534 0)
(0.379831 -0.00573967 0)
(0.375625 -0.00658867 0)
(0.370769 -0.00737631 0)
(0.365299 -0.00807297 0)
(0.359316 -0.00811789 0)
(0.400026 -0.000162651 0)
(0.400174 -0.000309502 0)
(0.400254 -0.000299287 0)
(0.40025 -0.000303504 0)
(0.400228 -0.000317995 0)
(0.400195 -0.00033371 0)
(0.400145 -0.000350545 0)
(0.400071 -0.000370785 0)
(0.399967 -0.000396426 0)
(0.399829 -0.000429226 0)
(0.399647 -0.000464769 0)
(0.399414 -0.000516511 0)
(0.399117 -0.000572195 0)
(0.398743 -0.000642318 0)
(0.398277 -0.000727189 0)
(0.397701 -0.000829407 0)
(0.396992 -0.000952971 0)
(0.396124 -0.00110225 0)
(0.395067 -0.00128193 0)
(0.393783 -0.00149726 0)
(0.392233 -0.00175406 0)
(0.390366 -0.00205843 0)
(0.388128 -0.00241594 0)
(0.38546 -0.00283034 0)
(0.382296 -0.00330146 0)
(0.378575 -0.00381879 0)
(0.37425 -0.00436401 0)
(0.369269 -0.00484625 0)
(0.363805 -0.00531411 0)
(0.356917 -0.00487109 0)
(0.399647 -0.000112708 0)
(0.399356 -0.000187291 0)
(0.398906 -0.000201497 0)
(0.398382 -0.00020923 0)
(0.397846 -0.000218408 0)
(0.397299 -0.000226513 0)
(0.396734 -0.000234088 0)
(0.396143 -0.00024242 0)
(0.395521 -0.00025205 0)
(0.39486 -0.000263351 0)
(0.394154 -0.000278065 0)
(0.39339 -0.000294881 0)
(0.392556 -0.000315244 0)
(0.391636 -0.000340801 0)
(0.390613 -0.000372295 0)
(0.389465 -0.000410431 0)
(0.388165 -0.000456258 0)
(0.386682 -0.000511263 0)
(0.384977 -0.00057741 0)
(0.383005 -0.000657041 0)
(0.380715 -0.000752705 0)
(0.378044 -0.000866989 0)
(0.374924 -0.00100228 0)
(0.371277 -0.00116023 0)
(0.367026 -0.00134091 0)
(0.3621 -0.00153971 0)
(0.356449 -0.00175157 0)
(0.350078 -0.00192817 0)
(0.343187 -0.00217794 0)
(0.333417 -0.00150345 0)
(0.46341 -0.00679056 9.48541e-21)
(0.469472 -0.0104704 -1.20472e-17)
(0.474754 -0.0145755 1.21213e-17)
(0.478914 -0.0190778 6.10034e-18)
(0.482471 -0.0239291 4.61295e-18)
(0.485705 -0.0291265 9.32075e-18)
(0.488693 -0.0347147 4.68886e-18)
(0.491495 -0.0407538 1.26484e-17)
(0.494178 -0.0472906 6.39596e-18)
(0.496784 -0.0543558 3.21865e-18)
(0.499321 -0.0619765 -3.26074e-18)
(0.501774 -0.0701859 6.56586e-18)
(0.504125 -0.0790275 3.35214e-18)
(0.506357 -0.088557 3.37514e-18)
(0.508463 -0.0988444 6.81696e-18)
(0.51044 -0.109976 3.46643e-18)
(0.512289 -0.122056 1.04559e-17)
(0.514012 -0.135214 0)
(0.515614 -0.149607 0)
(0.517099 -0.165432 3.58071e-18)
(0.518475 -0.182934 -3.33001e-20)
(0.519755 -0.202422 3.67715e-18)
(0.520949 -0.22429 0)
(0.522082 -0.249053 7.3885e-18)
(0.523192 -0.277328 3.70578e-18)
(0.524099 -0.31027 -3.76929e-18)
(0.526026 -0.347349 3.69791e-18)
(0.523548 -0.398813 3.72088e-18)
(0.5349 -0.432572 1.08739e-17)
(0.505911 -0.554427 -3.47563e-18)
(0.4696 -0.0142227 -6.05937e-18)
(0.473208 -0.017819 6.86499e-18)
(0.476092 -0.0221695 -6.9257e-18)
(0.478387 -0.0269032 0)
(0.48053 -0.031943 -6.29057e-18)
(0.482704 -0.037336 -6.33779e-18)
(0.484894 -0.043146 -1.60093e-18)
(0.487071 -0.0494094 -1.13359e-17)
(0.48922 -0.0561415 -6.53567e-18)
(0.491315 -0.0633579 -6.63353e-18)
(0.493316 -0.0710867 3.34257e-18)
(0.495186 -0.0793692 -3.3898e-18)
(0.496903 -0.0882573 -6.8322e-18)
(0.498454 -0.097813 -6.91333e-18)
(0.499831 -0.108109 -6.99722e-18)
(0.501025 -0.119234 -7.08369e-18)
(0.502025 -0.131291 -1.43997e-17)
(0.502818 -0.144407 3.63931e-18)
(0.503386 -0.15874 -3.70121e-18)
(0.503708 -0.17448 -1.12529e-17)
(0.50376 -0.191869 2.08745e-20)
(0.503513 -0.211205 -4.86469e-20)
(0.50292 -0.232868 -3.04485e-20)
(0.501945 -0.257342 -1.18368e-17)
(0.500482 -0.285232 -7.9762e-18)
(0.498415 -0.317495 -3.94232e-18)
(0.496088 -0.354248 8.56224e-20)
(0.489894 -0.402148 -1.14995e-19)
(0.494028 -0.439672 -1.18023e-17)
(0.460024 -0.550901 0)
(0.467389 -0.0211394 0)
(0.469763 -0.0247595 0)
(0.471822 -0.0291766 0)
(0.473799 -0.0340081 -7.94181e-19)
(0.47581 -0.0391496 7.2243e-18)
(0.477837 -0.0446287 -1.62252e-18)
(0.479809 -0.0504847 1.64382e-18)
(0.481674 -0.0567397 6.6318e-18)
(0.483411 -0.0634165 -1.67839e-18)
(0.485001 -0.07055 8.48916e-18)
(0.486429 -0.0781852 3.43888e-18)
(0.487683 -0.0863713 -3.49011e-18)
(0.488752 -0.0951616 3.52783e-18)
(0.489627 -0.104616 -3.58333e-18)
(0.49029 -0.114805 -7.28279e-18)
(0.49072 -0.125813 7.38739e-18)
(0.490891 -0.137743 7.43687e-18)
(0.490771 -0.15072 0)
(0.490323 -0.164898 0)
(0.489502 -0.180462 7.76424e-18)
(0.488251 -0.197643 0)
(0.486502 -0.216729 1.20723e-17)
(0.484153 -0.238081 4.08949e-18)
(0.481104 -0.262147 8.20914e-18)
(0.477135 -0.289518 1.24742e-17)
(0.472119 -0.320977 4.30041e-18)
(0.465788 -0.357054 0)
(0.456042 -0.401932 1.71806e-17)
(0.452112 -0.442166 0)
(0.415045 -0.542098 8.51486e-18)
(0.464936 -0.0283494 0)
(0.466816 -0.0321399 0)
(0.468443 -0.0366243 0)
(0.470114 -0.0414676 -6.51209e-18)
(0.471778 -0.0465953 0)
(0.47334 -0.0520433 0)
(0.474762 -0.0578573 0)
(0.476043 -0.0640674 6.83293e-18)
(0.477183 -0.0707021 0)
(0.47817 -0.0777955 0)
(0.478991 -0.0853859 0)
(0.479626 -0.0935148 -7.21131e-18)
(0.480053 -0.10223 -7.31644e-18)
(0.480248 -0.111589 -3.69665e-18)
(0.48018 -0.121662 -4.75079e-20)
(0.479816 -0.132532 -7.59341e-18)
(0.479116 -0.144301 8.34617e-21)
(0.478036 -0.15709 1.18612e-17)
(0.476521 -0.171045 4.00079e-18)
(0.474501 -0.186343 -4.08082e-18)
(0.471891 -0.203202 -4.1391e-18)
(0.468583 -0.221888 -4.16016e-18)
(0.46443 -0.242738 -4.28456e-18)
(0.459272 -0.266156 1.32011e-17)
(0.452795 -0.292695 0)
(0.444852 -0.322982 -1.36074e-17)
(0.434704 -0.357754 -4.62483e-18)
(0.421455 -0.399608 2.56945e-19)
(0.409774 -0.440372 -1.42426e-17)
(0.370892 -0.529037 5.11344e-19)
(0.461613 -0.0351753 0)
(0.462988 -0.0389983 6.50393e-18)
(0.464096 -0.0434473 -8.21112e-19)
(0.46532 -0.048252 1.41414e-17)
(0.466541 -0.0533604 0)
(0.467623 -0.0587997 0)
(0.468546 -0.0646021 6.92782e-18)
(0.469327 -0.070789 -6.98954e-18)
(0.469957 -0.0773825 0)
(0.470414 -0.0844127 0)
(0.470671 -0.091916 0)
(0.470703 -0.0999349 7.39926e-18)
(0.470482 -0.108519 7.51358e-18)
(0.469978 -0.117727 -3.82727e-18)
(0.469157 -0.127627 1.16551e-17)
(0.467976 -0.138301 0)
(0.466387 -0.149844 8.09962e-18)
(0.464329 -0.162369 -1.23217e-17)
(0.46173 -0.176013 -4.18635e-18)
(0.458497 -0.190941 0)
(0.454518 -0.207353 0)
(0.449651 -0.225491 0)
(0.443708 -0.245659 0)
(0.436476 -0.268217 -4.57258e-18)
(0.42757 -0.293658 -4.74891e-18)
(0.416807 -0.322479 4.76924e-18)
(0.403105 -0.355515 4.97682e-18)
(0.386498 -0.394189 -9.99827e-18)
(0.367627 -0.434144 1.0223e-17)
(0.32794 -0.511808 -1.01981e-17)
(0.457515 -0.0416132 -6.56614e-18)
(0.458427 -0.0454763 -6.21408e-18)
(0.459056 -0.049925 -1.26103e-18)
(0.45986 -0.0547196 -5.09907e-18)
(0.460665 -0.0598115 -9.94875e-22)
(0.461297 -0.0652185 -2.62511e-18)
(0.461739 -0.0709665 3.64863e-20)
(0.462016 -0.0770769 -7.22272e-18)
(0.462116 -0.0835747 -5.50532e-18)
(0.462012 -0.0904915 7.44963e-18)
(0.461673 -0.0978646 0)
(0.461074 -0.105736 9.61355e-18)
(0.460185 -0.114152 -9.78101e-18)
(0.458969 -0.123168 -7.96995e-18)
(0.457383 -0.132847 1.21573e-17)
(0.455375 -0.143265 -1.23928e-17)
(0.452884 -0.15451 -4.16247e-18)
(0.449835 -0.166687 -4.37151e-18)
(0.446139 -0.179921 -4.37185e-18)
(0.441685 -0.194361 1.34656e-17)
(0.436336 -0.210186 0)
(0.42992 -0.227611 4.67638e-18)
(0.422215 -0.246901 -9.59192e-18)
(0.412963 -0.268367 9.93586e-18)
(0.401729 -0.292433 5.06144e-18)
(0.388282 -0.319483 1.04999e-17)
(0.37132 -0.350348 0)
(0.351544 -0.385604 1.11769e-17)
(0.326276 -0.423577 0)
(0.286588 -0.490558 -1.1859e-17)
(0.452659 -0.0475967 6.69077e-18)
(0.453122 -0.0514761 3.40366e-18)
(0.453283 -0.0558958 -3.45277e-18)
(0.453658 -0.0606412 2.62892e-18)
(0.454032 -0.0656709 7.58778e-22)
(0.454203 -0.0710014 6.7864e-22)
(0.454155 -0.0766574 -6.37093e-18)
(0.453919 -0.0826605 1.82392e-18)
(0.453487 -0.0890349 1.12852e-17)
(0.452823 -0.0958102 -9.55704e-18)
(0.451895 -0.10302 1.94862e-18)
(0.450672 -0.110704 -9.89254e-18)
(0.449118 -0.118904 8.05255e-18)
(0.44719 -0.127671 8.20481e-18)
(0.444837 -0.137065 -4.14669e-18)
(0.441998 -0.147154 8.53589e-18)
(0.438602 -0.158018 0)
(0.434563 -0.169752 4.43208e-18)
(0.429777 -0.182467 4.58172e-18)
(0.424115 -0.196294 -9.33142e-18)
(0.41742 -0.211387 0)
(0.409496 -0.227932 -4.94079e-18)
(0.400093 -0.246151 3.70053e-21)
(0.388917 -0.266302 -1.0379e-17)
(0.3755 -0.288733 1.08e-17)
(0.359562 -0.313729 -1.66489e-17)
(0.339684 -0.342044 0)
(0.317002 -0.37367 -1.17809e-17)
(0.286276 -0.408727 6.28817e-20)
(0.24726 -0.465495 1.28086e-17)
(0.447066 -0.0530212 3.43566e-18)
(0.447091 -0.0568937 -3.0369e-18)
(0.446798 -0.0612594 3.08266e-18)
(0.446746 -0.0659292 -7.17114e-18)
(0.446693 -0.0708694 -3.64986e-18)
(0.446408 -0.0760956 -9.24265e-19)
(0.445878 -0.0816295 3.77006e-18)
(0.445138 -0.087491 8.6004e-18)