/*--------------------------------*- C++ -*----------------------------------*\
  =========                 |
  \\      /  F ield         | OpenFOAM: The Open Source CFD Toolbox
   \\    /   O peration     | Website:  https://openfoam.org
    \\  /    A nd           | Version:  11
     \\/     M anipulation  |
\*---------------------------------------------------------------------------*/
FoamFile
{
    format      ascii;
    class       volVectorField;
    location    "3";
    object      U;
}
// * * * * * * * * * * * * * * * * * * * * * * * * * * * * * * * * * * * * * //

dimensions      [0 1 -1 0 0 0 0];

internalField   nonuniform List<vector> 
12600
(
(0.412113 0.000106857 0)
(0.411843 0.00018134 0)
(0.41143 0.000191321 0)
(0.410959 0.000194146 0)
(0.410492 0.000198324 0)
(0.410033 0.000201338 0)
(0.409577 0.000202983 0)
(0.409122 0.000203904 0)
(0.40867 0.000204285 0)
(0.408223 0.000204061 0)
(0.407784 0.000203174 0)
(0.407354 0.00020156 0)
(0.406935 0.000199152 0)
(0.406531 0.00019587 0)
(0.406143 0.000191572 0)
(0.405777 0.000186055 0)
(0.405436 0.000178928 0)
(0.405128 0.000169932 0)
(0.404857 0.00015894 0)
(0.404635 0.000145284 0)
(0.404473 0.000128663 0)
(0.404385 0.000109623 0)
(0.404387 8.30284e-05 0)
(0.4045 4.96355e-05 0)
(0.404753 5.33421e-06 0)
(0.405178 -4.78527e-05 0)
(0.405823 -0.000114803 0)
(0.406746 -0.000200051 0)
(0.408132 -0.00033907 0)
(0.40889 -0.000879788 0)
(0.412492 0.000153809 0)
(0.412639 0.000280705 0)
(0.412777 0.000262364 0)
(0.412829 0.000254993 0)
(0.412874 0.000258398 0)
(0.412925 0.000259075 0)
(0.412979 0.00025697 0)
(0.413035 0.000253548 0)
(0.413093 0.00024897 0)
(0.413157 0.000243157 0)
(0.413227 0.000236052 0)
(0.413307 0.000227477 0)
(0.413398 0.000217168 0)
(0.413502 0.000204815 0)
(0.413621 0.000189943 0)
(0.41376 0.000171478 0)
(0.413923 0.000148876 0)
(0.414116 0.00012236 0)
(0.414344 8.89342e-05 0)
(0.414616 4.80633e-05 0)
(0.414942 -1.9371e-06 0)
(0.415335 -6.34126e-05 0)
(0.41581 -0.000138885 0)
(0.416383 -0.000231866 0)
(0.41708 -0.000346351 0)
(0.417918 -0.000489574 0)
(0.418968 -0.000667223 0)
(0.420113 -0.000919798 0)
(0.421821 -0.00120004 0)
(0.422275 -0.00212236 0)
(0.41248 8.34869e-05 0)
(0.412555 0.000149819 0)
(0.412648 0.000154895 0)
(0.412716 0.000157514 0)
(0.412768 0.000164235 0)
(0.41282 0.000167328 0)
(0.412875 0.00016606 0)
(0.412931 0.000162595 0)
(0.41299 0.000157049 0)
(0.413053 0.000149239 0)
(0.413123 0.000139198 0)
(0.413202 0.000126704 0)
(0.413291 0.000111401 0)
(0.413394 9.28332e-05 0)
(0.413512 7.05648e-05 0)
(0.413647 4.31182e-05 0)
(0.413804 9.7559e-06 0)
(0.413988 -3.30028e-05 0)
(0.414204 -8.65669e-05 0)
(0.41446 -0.00015101 0)
(0.414766 -0.000230174 0)
(0.415135 -0.00032747 0)
(0.415581 -0.000447231 0)
(0.41612 -0.000594566 0)
(0.416776 -0.000775318 0)
(0.41757 -0.000999936 0)
(0.418539 -0.00127397 0)
(0.419691 -0.00163634 0)
(0.421061 -0.00208123 0)
(0.422639 -0.00247356 0)
(0.412473 5.42985e-05 0)
(0.412523 0.000128841 0)
(0.412598 0.000155716 0)
(0.412662 0.000165434 0)
(0.412713 0.000173359 0)
(0.412762 0.000180191 0)
(0.412815 0.000179107 0)
(0.41287 0.000175175 0)
(0.412927 0.000168313 0)
(0.412988 0.000158129 0)
(0.413057 0.000144325 0)
(0.413134 0.000126715 0)
(0.413221 0.000104961 0)
(0.413321 7.85556e-05 0)
(0.413436 4.68105e-05 0)
(0.413567 9.37476e-06 0)
(0.413719 -3.60432e-05 0)
(0.413897 -9.27008e-05 0)
(0.414106 -0.00016257 0)
(0.414355 -0.000249637 0)
(0.414651 -0.000356963 0)
(0.415008 -0.000488973 0)
(0.415439 -0.000651246 0)
(0.41596 -0.000850798 0)
(0.416592 -0.00109613 0)
(0.417358 -0.00139893 0)
(0.418286 -0.00177086 0)
(0.419407 -0.00222964 0)
(0.420739 -0.00278787 0)
(0.422413 -0.00322594 0)
(0.412468 3.81947e-05 0)
(0.412503 9.75311e-05 0)
(0.412561 0.000122459 0)
(0.412619 0.000128511 0)
(0.412668 0.000131669 0)
(0.412715 0.000133323 0)
(0.412766 0.000131125 0)
(0.412819 0.000124508 0)
(0.412875 0.000113583 0)
(0.412935 9.87596e-05 0)
(0.413002 8.03916e-05 0)
(0.413077 5.73623e-05 0)
(0.413161 2.97472e-05 0)
(0.413258 -3.16746e-06 0)
(0.413369 -4.32838e-05 0)
(0.413496 -9.09594e-05 0)
(0.413642 -0.000149244 0)
(0.413813 -0.000220524 0)
(0.414015 -0.000308633 0)
(0.414253 -0.000417739 0)
(0.414537 -0.000552188 0)
(0.414879 -0.000717697 0)
(0.41529 -0.000921201 0)
(0.415787 -0.00117119 0)
(0.416388 -0.00147798 0)
(0.417119 -0.00185458 0)
(0.418002 -0.00231581 0)
(0.419082 -0.00287331 0)
(0.420361 -0.00356001 0)
(0.422045 -0.00419807 0)
(0.412466 2.72137e-05 0)
(0.412491 7.29199e-05 0)
(0.412538 9.71091e-05 0)
(0.412589 0.000105951 0)
(0.412636 0.000110675 0)
(0.412682 0.000114028 0)
(0.412731 0.000113307 0)
(0.412782 0.00010738 0)
(0.412837 9.64884e-05 0)
(0.412895 8.06543e-05 0)
(0.41296 5.95843e-05 0)
(0.413032 3.30555e-05 0)
(0.413114 9.13409e-07 0)
(0.413207 -3.72597e-05 0)
(0.413312 -8.32408e-05 0)
(0.413434 -0.000139286 0)
(0.413574 -0.000207592 0)
(0.413737 -0.000291541 0)
(0.413928 -0.000395578 0)
(0.414153 -0.000524739 0)
(0.414422 -0.000684479 0)
(0.414744 -0.000881311 0)
(0.415131 -0.00112321 0)
(0.415599 -0.00142014 0)
(0.416165 -0.00178443 0)
(0.416853 -0.00223097 0)
(0.417684 -0.00277806 0)
(0.418707 -0.0034382 0)
(0.419921 -0.00425787 0)
(0.421557 -0.00508282 0)
(0.412464 1.95306e-05 0)
(0.412483 5.40606e-05 0)
(0.412522 7.52652e-05 0)
(0.412567 8.42025e-05 0)
(0.412612 8.78678e-05 0)
(0.412656 8.90803e-05 0)
(0.412702 8.61774e-05 0)
(0.412751 7.78152e-05 0)
(0.412803 6.37801e-05 0)
(0.41286 4.40442e-05 0)
(0.412922 1.8492e-05 0)
(0.412991 -1.32566e-05 0)
(0.413069 -5.15833e-05 0)
(0.413158 -9.70867e-05 0)
(0.413258 -0.000150902 0)
(0.413373 -0.000215924 0)
(0.413505 -0.000295233 0)
(0.413658 -0.000392692 0)
(0.413837 -0.000513093 0)
(0.414048 -0.000661951 0)
(0.414299 -0.00084558 0)
(0.414598 -0.00107162 0)
(0.414959 -0.00134939 0)
(0.415393 -0.00169034 0)
(0.415917 -0.00210862 0)
(0.416554 -0.00262118 0)
(0.417325 -0.00324936 0)
(0.418278 -0.00401044 0)
(0.419413 -0.00495462 0)
(0.420961 -0.00597233 0)
(0.412463 1.37849e-05 0)
(0.412479 3.89559e-05 0)
(0.41251 5.58518e-05 0)
(0.412551 6.35698e-05 0)
(0.412592 6.61313e-05 0)
(0.412634 6.59663e-05 0)
(0.412678 6.20975e-05 0)
(0.412725 5.2915e-05 0)
(0.412776 3.76649e-05 0)
(0.41283 1.61033e-05 0)
(0.41289 -1.19454e-05 0)
(0.412956 -4.67209e-05 0)
(0.41303 -8.86981e-05 0)
(0.413113 -0.000138808 0)
(0.413207 -0.000198515 0)
(0.413315 -0.000270596 0)
(0.413438 -0.000358518 0)
(0.41358 -0.000466664 0)
(0.413745 -0.000600424 0)
(0.41394 -0.000766078 0)
(0.41417 -0.000970828 0)
(0.414444 -0.00122318 0)
(0.414773 -0.00153341 0)
(0.415169 -0.0019142 0)
(0.415647 -0.00238138 0)
(0.416227 -0.00295416 0)
(0.416929 -0.00365711 0)
(0.417799 -0.00451325 0)
(0.418837 -0.00557557 0)
(0.420271 -0.00677546 0)
(0.412463 9.23887e-06 0)
(0.412475 2.65e-05 0)
(0.412502 3.87466e-05 0)
(0.412538 4.45424e-05 0)
(0.412577 4.59021e-05 0)
(0.412617 4.44313e-05 0)
(0.412659 3.92919e-05 0)
(0.412704 2.87267e-05 0)
(0.412752 1.16187e-05 0)
(0.412803 -1.24687e-05 0)
(0.41286 -4.37628e-05 0)
(0.412922 -8.24758e-05 0)
(0.412992 -0.000129052 0)
(0.41307 -0.000184471 0)
(0.413157 -0.000250432 0)
(0.413256 -0.000329817 0)
(0.413369 -0.000426525 0)
(0.413499 -0.000545428 0)
(0.413649 -0.000692369 0)
(0.413825 -0.000874119 0)
(0.414033 -0.00109851 0)
(0.41428 -0.00137483 0)
(0.414575 -0.00171436 0)
(0.414928 -0.00213102 0)
(0.415354 -0.00264231 0)
(0.41587 -0.00326969 0)
(0.416494 -0.00404072 0)
(0.41727 -0.00498461 0)
(0.418195 -0.0061552 0)
(0.419488 -0.00752789 0)
(0.412462 5.52171e-06 0)
(0.412473 1.5984e-05 0)
(0.412496 2.36225e-05 0)
(0.412528 2.70301e-05 0)
(0.412564 2.69104e-05 0)
(0.412602 2.40257e-05 0)
(0.412642 1.74852e-05 0)
(0.412685 5.5111e-06 0)
(0.41273 -1.3231e-05 0)
(0.412779 -3.93666e-05 0)
(0.412833 -7.31611e-05 0)
(0.412891 -0.000114862 0)
(0.412956 -0.00016494 0)
(0.413028 -0.00022443 0)
(0.413108 -0.000295234 0)
(0.413198 -0.000380406 0)
(0.4133 -0.000484139 0)
(0.413417 -0.000611676 0)
(0.413551 -0.000769288 0)
(0.413707 -0.00096427 0)
(0.413891 -0.00120507 0)
(0.414108 -0.00150167 0)
(0.414365 -0.00186617 0)
(0.414673 -0.00231357 0)
(0.415042 -0.00286276 0)
(0.415488 -0.00353728 0)
(0.416026 -0.00436747 0)
(0.416696 -0.00538841 0)
(0.417494 -0.00665492 0)
(0.418622 -0.00818314 0)
(0.412462 2.33628e-06 0)
(0.412471 6.92171e-06 0)
(0.412492 1.01477e-05 0)
(0.412521 1.08863e-05 0)
(0.412554 9.07561e-06 0)
(0.41259 4.74664e-06 0)
(0.412627 -3.16517e-06 0)
(0.412668 -1.6473e-05 0)
(0.412711 -3.6693e-05 0)
(0.412757 -6.46481e-05 0)
(0.412807 -0.000100694 0)
(0.412862 -0.000145094 0)
(0.412921 -0.000198341 0)
(0.412986 -0.000261535 0)
(0.413059 -0.000336716 0)
(0.41314 -0.000427095 0)
(0.41323 -0.000537102 0)
(0.413333 -0.000672305 0)
(0.41345 -0.000839336 0)
(0.413585 -0.00104589 0)
(0.413743 -0.00130086 0)
(0.413927 -0.0016148 0)
(0.414145 -0.00200048 0)
(0.414404 -0.00247378 0)
(0.414712 -0.00305483 0)
(0.415083 -0.00376898 0)
(0.415529 -0.00464898 0)
(0.416083 -0.00573526 0)
(0.41674 -0.00708302 0)
(0.417679 -0.00874767 0)
(0.412462 -4.99378e-07 0)
(0.41247 -1.09634e-06 0)
(0.412489 -1.9433e-06 0)
(0.412515 -3.98262e-06 0)
(0.412546 -7.65366e-06 0)
(0.412579 -1.34513e-05 0)
(0.412615 -2.26896e-05 0)
(0.412653 -3.72648e-05 0)
(0.412694 -5.88313e-05 0)
(0.412737 -8.83614e-05 0)
(0.412784 -0.000126291 0)
(0.412834 -0.0001729 0)
(0.412888 -0.000228704 0)
(0.412946 -0.000294851 0)
(0.413011 -0.000373485 0)
(0.413081 -0.000467957 0)
(0.41316 -0.000582887 0)
(0.413248 -0.000724083 0)
(0.413347 -0.000898452 0)
(0.41346 -0.00111401 0)
(0.41359 -0.00138003 0)
(0.413741 -0.00170747 0)
(0.413918 -0.00210964 0)
(0.414125 -0.00260311 0)
(0.41437 -0.00320893 0)
(0.414662 -0.00395388 0)
(0.415009 -0.00487264 0)
(0.415438 -0.00601002 0)
(0.415942 -0.0074215 0)
(0.416672 -0.00919723 0)
(0.412462 -2.95869e-06 0)
(0.412469 -8.26381e-06 0)
(0.412486 -1.29997e-05 0)
(0.41251 -1.77934e-05 0)
(0.412539 -2.33523e-05 0)
(0.412571 -3.06118e-05 0)
(0.412604 -4.11237e-05 0)
(0.412641 -5.68677e-05 0)
(0.412679 -7.95964e-05 0)
(0.412719 -0.000110407 0)
(0.412762 -0.000149818 0)
(0.412807 -0.000198137 0)
(0.412856 -0.0002559 0)
(0.412908 -0.0003243 0)
(0.412963 -0.000405556 0)
(0.413024 -0.000503129 0)
(0.41309 -0.000621779 0)
(0.413162 -0.000767488 0)
(0.413243 -0.000947368 0)
(0.413333 -0.00116965 0)
(0.413435 -0.00144386 0)
(0.413551 -0.00178124 0)
(0.413684 -0.00219543 0)
(0.413838 -0.00270345 0)
(0.414017 -0.00332696 0)
(0.414227 -0.00409371 0)
(0.414472 -0.00503969 0)
(0.41477 -0.00621295 0)
(0.415113 -0.00766874 0)
(0.415614 -0.00952641 0)
(0.412462 -5.20531e-06 0)
(0.412468 -1.47951e-05 0)
(0.412484 -2.31708e-05 0)
(0.412506 -3.06879e-05 0)
(0.412533 -3.81552e-05 0)
(0.412563 -4.68356e-05 0)
(0.412595 -5.85258e-05 0)
(0.412629 -7.53e-05 0)
(0.412665 -9.89771e-05 0)
(0.412703 -0.000130751 0)
(0.412742 -0.000171222 0)
(0.412782 -0.000220739 0)
(0.412825 -0.000279853 0)
(0.41287 -0.000349783 0)
(0.412917 -0.000432791 0)
(0.412967 -0.00053241 0)
(0.41302 -0.000653486 0)
(0.413077 -0.000802106 0)
(0.413138 -0.000985496 0)
(0.413205 -0.00121201 0)
(0.413278 -0.00149131 0)
(0.413358 -0.00183476 0)
(0.413448 -0.00225616 0)
(0.413548 -0.00277272 0)
(0.413659 -0.00340637 0)
(0.413785 -0.0041853 0)
(0.413925 -0.00514607 0)
(0.414087 -0.0063386 0)
(0.414263 -0.00781726 0)
(0.414523 -0.00972308 0)
(0.412461 -7.28789e-06 0)
(0.412468 -2.08727e-05 0)
(0.412482 -3.26785e-05 0)
(0.412503 -4.28125e-05 0)
(0.412529 -5.21477e-05 0)
(0.412558 -6.21945e-05 0)
(0.412588 -7.4952e-05 0)
(0.41262 -9.25842e-05 0)
(0.412653 -0.000116969 0)
(0.412688 -0.000149382 0)
(0.412723 -0.000190495 0)
(0.412759 -0.000240688 0)
(0.412796 -0.000300521 0)
(0.412833 -0.000371225 0)
(0.412872 -0.000455089 0)
(0.412911 -0.000555676 0)
(0.412951 -0.000677868 0)
(0.412992 -0.000827786 0)
(0.413034 -0.00101269 0)
(0.413077 -0.00124096 0)
(0.413121 -0.00152226 0)
(0.413166 -0.00186795 0)
(0.413211 -0.0022918 0)
(0.413256 -0.00281093 0)
(0.4133 -0.00344716 0)
(0.41334 -0.00422857 0)
(0.413375 -0.00519151 0)
(0.413401 -0.00638621 0)
(0.413407 -0.00786534 0)
(0.41342 -0.00978271 0)
(0.412461 -9.25505e-06 0)
(0.412467 -2.66209e-05 0)
(0.412481 -4.16982e-05 0)
(0.412502 -5.43483e-05 0)
(0.412526 -6.54682e-05 0)
(0.412553 -7.6773e-05 0)
(0.412582 -9.045e-05 0)
(0.412612 -0.00010875 0)
(0.412643 -0.000133594 0)
(0.412675 -0.000166313 0)
(0.412706 -0.000207634 0)
(0.412738 -0.000257964 0)
(0.412769 -0.000317872 0)
(0.412799 -0.000388592 0)
(0.412829 -0.000472413 0)
(0.412857 -0.00057289 0)
(0.412884 -0.000694883 0)
(0.412909 -0.000844481 0)
(0.412932 -0.00102889 0)
(0.412951 -0.00125643 0)
(0.412966 -0.00153665 0)
(0.412975 -0.00188075 0)
(0.412976 -0.00230226 0)
(0.412967 -0.00281796 0)
(0.412943 -0.00344921 0)
(0.4129 -0.00422339 0)
(0.412829 -0.00517581 0)
(0.41272 -0.00635547 0)
(0.412559 -0.00781227 0)
(0.412325 -0.00970302 0)
(0.412461 -1.11586e-05 0)
(0.412467 -3.21841e-05 0)
(0.412481 -5.0408e-05 0)
(0.412501 -6.54358e-05 0)
(0.412524 -7.82011e-05 0)
(0.41255 -9.06345e-05 0)
(0.412578 -0.000105093 0)
(0.412606 -0.000123879 0)
(0.412635 -0.000148923 0)
(0.412663 -0.000181596 0)
(0.412691 -0.000222674 0)
(0.412718 -0.000272593 0)
(0.412743 -0.000331926 0)
(0.412767 -0.000401898 0)
(0.412788 -0.000484774 0)
(0.412805 -0.000584063 0)
(0.41282 -0.000704553 0)
(0.412829 -0.000852231 0)
(0.412832 -0.00103418 0)
(0.412828 -0.00125853 0)
(0.412815 -0.00153462 0)
(0.412788 -0.00187335 0)
(0.412746 -0.00228783 0)
(0.412684 -0.00279427 0)
(0.412594 -0.00341316 0)
(0.412469 -0.0041707 0)
(0.412296 -0.00510036 0)
(0.412056 -0.00624832 0)
(0.411733 -0.00766071 0)
(0.411264 -0.00948725 0)
(0.412461 -1.30541e-05 0)
(0.412467 -3.77104e-05 0)
(0.412481 -5.89993e-05 0)
(0.4125 -7.62576e-05 0)
(0.412524 -9.04973e-05 0)
(0.412549 -0.000103899 0)
(0.412575 -0.000118973 0)
(0.412602 -0.000138031 0)
(0.412628 -0.000162993 0)
(0.412654 -0.000195258 0)
(0.412679 -0.000235645 0)
(0.412701 -0.000284612 0)
(0.412721 -0.000342729 0)
(0.412737 -0.000411202 0)
(0.412749 -0.000492248 0)
(0.412757 -0.000589294 0)
(0.412758 -0.000707001 0)
(0.412752 -0.00085119 0)
(0.412737 -0.00102873 0)
(0.41271 -0.0012475 0)
(0.412668 -0.0015165 0)
(0.412608 -0.00184619 0)
(0.412524 -0.0022491 0)
(0.412409 -0.00274064 0)
(0.412256 -0.00334013 0)
(0.412052 -0.00407208 0)
(0.411782 -0.00496744 0)
(0.411419 -0.00606819 0)
(0.410944 -0.00741571 0)
(0.410256 -0.00914317 0)
(0.412461 -1.50067e-05 0)
(0.412468 -4.33746e-05 0)
(0.412482 -6.76868e-05 0)
(0.412502 -8.69923e-05 0)
(0.412525 -0.00010248 0)
(0.412549 -0.000116662 0)
(0.412574 -0.000132178 0)
(0.412599 -0.000151291 0)
(0.412624 -0.000175881 0)
(0.412648 -0.000207373 0)
(0.412669 -0.000246621 0)
(0.412687 -0.000294096 0)
(0.412701 -0.000350362 0)
(0.412711 -0.000416595 0)
(0.412715 -0.000494946 0)
(0.412712 -0.000588719 0)
(0.412701 -0.000702404 0)
(0.41268 -0.000841591 0)
(0.412647 -0.00101287 0)
(0.412598 -0.00122376 0)
(0.412529 -0.00148284 0)
(0.412436 -0.00180002 0)
(0.412311 -0.0021871 0)
(0.412148 -0.00265847 0)
(0.411934 -0.00323203 0)
(0.411656 -0.00393021 0)
(0.411295 -0.00478086 0)
(0.410817 -0.00582066 0)
(0.410203 -0.00708548 0)
(0.409322 -0.00868407 0)
(0.412462 -1.70991e-05 0)
(0.412468 -4.93911e-05 0)
(0.412483 -7.67135e-05 0)
(0.412504 -9.78301e-05 0)
(0.412527 -0.000114291 0)
(0.412551 -0.000129048 0)
(0.412576 -0.000144815 0)
(0.4126 -0.000163738 0)
(0.412623 -0.00018765 0)
(0.412644 -0.000218007 0)
(0.412662 -0.000255688 0)
(0.412675 -0.00030116 0)
(0.412684 -0.000354967 0)
(0.412688 -0.000418246 0)
(0.412684 -0.000493059 0)
(0.412671 -0.000582553 0)
(0.412649 -0.000690996 0)
(0.412614 -0.00082369 0)
(0.412563 -0.000986867 0)
(0.412493 -0.00118762 0)
(0.412399 -0.00143401 0)
(0.412274 -0.0017353 0)
(0.412111 -0.00210243 0)
(0.411901 -0.00254862 0)
(0.411631 -0.00309015 0)
(0.411284 -0.00374708 0)
(0.410839 -0.00454381 0)
(0.410259 -0.00551102 0)
(0.409522 -0.00667863 0)
(0.408478 -0.00812543 0)
(0.412462 -1.94436e-05 0)
(0.412469 -5.60401e-05 0)
(0.412486 -8.63703e-05 0)
(0.412508 -0.000108969 0)
(0.412532 -0.000126067 0)
(0.412556 -0.000141181 0)
(0.41258 -0.000157003 0)
(0.412603 -0.000175476 0)
(0.412624 -0.000198385 0)
(0.412643 -0.000227229 0)
(0.412658 -0.000262904 0)
(0.412668 -0.000305868 0)
(0.412672 -0.000356651 0)
(0.412669 -0.000416342 0)
(0.412657 -0.00048689 0)
(0.412636 -0.000571252 0)
(0.412602 -0.000673426 0)
(0.412554 -0.000798373 0)
(0.412487 -0.000951908 0)
(0.412397 -0.00114063 0)
(0.412279 -0.00137199 0)
(0.412125 -0.0016545 0)
(0.411926 -0.00199815 0)
(0.411673 -0.00241489 0)
(0.411351 -0.00291919 0)
(0.41094 -0.00352859 0)
(0.41042 -0.00426387 0)
(0.40975 -0.00514945 0)
(0.408907 -0.00620933 0)
(0.407735 -0.0074898 0)
(0.412462 -2.22018e-05 0)
(0.412471 -6.37054e-05 0)
(0.41249 -9.70046e-05 0)
(0.412515 -0.000120603 0)
(0.41254 -0.000137927 0)
(0.412564 -0.000153174 0)
(0.412587 -0.000168854 0)
(0.412609 -0.000186635 0)
(0.412629 -0.000208264 0)
(0.412646 -0.000235255 0)
(0.412658 -0.000268475 0)
(0.412664 -0.000308357 0)
(0.412664 -0.000355412 0)
(0.412655 -0.000410688 0)
(0.412636 -0.00047601 0)
(0.412606 -0.000554118 0)
(0.412562 -0.000648705 0)
(0.412501 -0.000764337 0)
(0.412419 -0.000906356 0)
(0.412311 -0.0010808 0)
(0.41217 -0.00129447 0)
(0.411989 -0.00155508 0)
(0.411758 -0.0018716 0)
(0.411465 -0.0022546 0)
(0.411096 -0.00271672 0)
(0.410629 -0.00327293 0)
(0.410043 -0.00394042 0)
(0.409295 -0.00473759 0)
(0.408364 -0.00568322 0)
(0.407098 -0.00679159 0)
(0.412463 -2.5622e-05 0)
(0.412474 -7.29212e-05 0)
(0.412497 -0.00010902 0)
(0.412525 -0.000132941 0)
(0.412551 -0.000150036 0)
(0.412575 -0.000165143 0)
(0.412597 -0.000180358 0)
(0.412619 -0.000197113 0)
(0.412638 -0.000217219 0)
(0.412653 -0.000242215 0)
(0.412662 -0.000272894 0)
(0.412666 -0.000309624 0)
(0.412661 -0.000352886 0)
(0.412647 -0.000403644 0)
(0.412622 -0.000463563 0)
(0.412584 -0.000535135 0)
(0.412531 -0.000621697 0)
(0.412458 -0.000727383 0)
(0.412362 -0.000857012 0)
(0.412237 -0.001016 0)
(0.412076 -0.0012104 0)
(0.411871 -0.00144711 0)
(0.41161 -0.00173398 0)
(0.411282 -0.00208019 0)
(0.41087 -0.00249653 0)
(0.410354 -0.00299537 0)
(0.40971 -0.0035906 0)
(0.408898 -0.00429511 0)
(0.407895 -0.00512386 0)
(0.406568 -0.0060626 0)
(0.412463 -3.01171e-05 0)
(0.412478 -8.44364e-05 0)
(0.412507 -0.000122789 0)
(0.412539 -0.000146142 0)
(0.412566 -0.000162728 0)
(0.41259 -0.000177565 0)
(0.412613 -0.000191908 0)
(0.412634 -0.000206953 0)
(0.412652 -0.000224642 0)
(0.412665 -0.00024656 0)
(0.412672 -0.000273456 0)
(0.412672 -0.000305682 0)
(0.412664 -0.000343721 0)
(0.412645 -0.000388465 0)
(0.412614 -0.000441426 0)
(0.41257 -0.000504835 0)
(0.412508 -0.000581645 0)
(0.412425 -0.000675516 0)
(0.412317 -0.000790694 0)
(0.412177 -0.000931907 0)
(0.411997 -0.00110447 0)
(0.41177 -0.00131441 0)
(0.411483 -0.00156847 0)
(0.411124 -0.00187441 0)
(0.410675 -0.0022412 0)
(0.410116 -0.00267882 0)
(0.409423 -0.00319822 0)
(0.408559 -0.00380759 0)
(0.407499 -0.00452014 0)
(0.406136 -0.00529959 0)
(0.412465 -3.64347e-05 0)
(0.412485 -9.94015e-05 0)
(0.412522 -0.000138508 0)
(0.412558 -0.000159789 0)
(0.412587 -0.000175684 0)
(0.412611 -0.000190764 0)
(0.412634 -0.000205054 0)
(0.412656 -0.000219558 0)
(0.412673 -0.00023625 0)
(0.412685 -0.000256546 0)
(0.41269 -0.000281019 0)
(0.412688 -0.000309985 0)
(0.412676 -0.000343908 0)
(0.412653 -0.000383598 0)
(0.412617 -0.000430372 0)
(0.412566 -0.000486163 0)
(0.412497 -0.000553525 0)
(0.412405 -0.000635621 0)
(0.412286 -0.000736112 0)
(0.412133 -0.000859028 0)
(0.411938 -0.00100891 0)
(0.411691 -0.00119088 0)
(0.411382 -0.00141058 0)
(0.410996 -0.00167438 0)
(0.410516 -0.00198943 0)
(0.409921 -0.0023632 0)
(0.409187 -0.00280416 0)
(0.408281 -0.00331661 0)
(0.407176 -0.00391515 0)
(0.405793 -0.00454965 0)
(0.412467 -4.59224e-05 0)
(0.412497 -0.00011986 0)
(0.412545 -0.000157367 0)
(0.412586 -0.000173841 0)
(0.412616 -0.000186221 0)
(0.41264 -0.000198101 0)
(0.412663 -0.000208814 0)
(0.412684 -0.000219487 0)
(0.412701 -0.000232071 0)
(0.412712 -0.000247836 0)
(0.412715 -0.000267204 0)
(0.412711 -0.000290443 0)
(0.412696 -0.000317966 0)
(0.41267 -0.000350502 0)
(0.412629 -0.000389193 0)
(0.412573 -0.000435631 0)
(0.412497 -0.000491898 0)
(0.412398 -0.000560601 0)
(0.412269 -0.000644702 0)
(0.412105 -0.000747401 0)
(0.411897 -0.000872548 0)
(0.411635 -0.00102437 0)
(0.411306 -0.00120728 0)
(0.410898 -0.00142642 0)
(0.410392 -0.00168761 0)
(0.409769 -0.00199599 0)
(0.409003 -0.00235768 0)
(0.408062 -0.0027723 0)
(0.406924 -0.0032619 0)
(0.405519 -0.00376496 0)
(0.412471 -6.03956e-05 0)
(0.412517 -0.000146736 0)
(0.412581 -0.00018354 0)
(0.412629 -0.0002012 0)
(0.412659 -0.00021659 0)
(0.412683 -0.00022996 0)
(0.412707 -0.000240774 0)
(0.412728 -0.000251073 0)
(0.412744 -0.000262762 0)
(0.412754 -0.000276614 0)
(0.412757 -0.000292969 0)
(0.41275 -0.000312155 0)
(0.412733 -0.000334609 0)
(0.412703 -0.000360957 0)
(0.412659 -0.000392139 0)
(0.412599 -0.000429441 0)
(0.412517 -0.000474483 0)
(0.412412 -0.000529413 0)
(0.412276 -0.00059674 0)
(0.412103 -0.000678706 0)
(0.411884 -0.000778254 0)
(0.411609 -0.000899034 0)
(0.411265 -0.0010443 0)
(0.410839 -0.00121742 0)
(0.410313 -0.0014225 0)
(0.409667 -0.00166277 0)
(0.408879 -0.00194267 0)
(0.407911 -0.00225555 0)
(0.406748 -0.0026337 0)
(0.405302 -0.00301983 0)
(0.412479 -8.78857e-05 0)
(0.412549 -0.000162866 0)
(0.41263 -0.000176277 0)
(0.412681 -0.000184511 0)
(0.412712 -0.000195617 0)
(0.412738 -0.000205294 0)
(0.412763 -0.000212878 0)
(0.412785 -0.000220188 0)
(0.412801 -0.000228247 0)
(0.41281 -0.000238255 0)
(0.412812 -0.000250092 0)
(0.412804 -0.000264076 0)
(0.412785 -0.000280567 0)
(0.412754 -0.00030012 0)
(0.412707 -0.000323483 0)
(0.412643 -0.000351612 0)
(0.412558 -0.000385688 0)
(0.412448 -0.000426978 0)
(0.412306 -0.000476985 0)
(0.412126 -0.000537868 0)
(0.411899 -0.000611664 0)
(0.411613 -0.000700317 0)
(0.411258 -0.000806597 0)
(0.410819 -0.00093358 0)
(0.410279 -0.00108398 0)
(0.409617 -0.00125876 0)
(0.408814 -0.00145954 0)
(0.407824 -0.00167027 0)
(0.40665 -0.00192732 0)
(0.405066 -0.00209652 0)
(0.41249 -0.000156688 0)
(0.412638 -0.000290668 0)
(0.412754 -0.000274983 0)
(0.412787 -0.000271192 0)
(0.41281 -0.000276916 0)
(0.412835 -0.000282055 0)
(0.412857 -0.000285537 0)
(0.412873 -0.000289154 0)
(0.412881 -0.000293651 0)
(0.412882 -0.000299049 0)
(0.412875 -0.000305478 0)
(0.412858 -0.00031319 0)
(0.41283 -0.000322511 0)
(0.412788 -0.000333893 0)
(0.412729 -0.00034793 0)
(0.412651 -0.000364935 0)
(0.412549 -0.000385421 0)
(0.412419 -0.000410959 0)
(0.412253 -0.000442995 0)
(0.412045 -0.000479905 0)
(0.411785 -0.000524867 0)
(0.411464 -0.000580771 0)
(0.411069 -0.000647157 0)
(0.410584 -0.000725241 0)
(0.409995 -0.000816772 0)
(0.409282 -0.00092278 0)
(0.408424 -0.00104415 0)
(0.407386 -0.00115724 0)
(0.406142 -0.00130719 0)
(0.403817 -0.000936704 0)
(0.412111 -0.000108348 0)
(0.411833 -0.00018349 0)
(0.411407 -0.000195105 0)
(0.410918 -0.000199367 0)
(0.410428 -0.000205059 0)
(0.409941 -0.00020946 0)
(0.409451 -0.000212773 0)
(0.408955 -0.000215859 0)
(0.408451 -0.000218978 0)
(0.40794 -0.000222249 0)
(0.40742 -0.000225779 0)
(0.40689 -0.000229689 0)
(0.406348 -0.000234064 0)
(0.405792 -0.000238998 0)
(0.405218 -0.000244615 0)
(0.404624 -0.000251159 0)
(0.404005 -0.000258959 0)
(0.403355 -0.000268089 0)
(0.402667 -0.000278703 0)
(0.401935 -0.000291924 0)
(0.401147 -0.000308047 0)
(0.400293 -0.000327038 0)
(0.399359 -0.000349816 0)
(0.398329 -0.000377668 0)
(0.397186 -0.000411229 0)
(0.395912 -0.000448665 0)
(0.394487 -0.000494467 0)
(0.392911 -0.000514431 0)
(0.391237 -0.000621944 0)
(0.387978 -2.63849e-05 0)
(0.414662 -0.00187224 -1.12888e-18)
(0.419938 -0.00250966 -8.63086e-21)
(0.423717 -0.00295339 1.15696e-18)
(0.425659 -0.00354393 2.31797e-18)
(0.42674 -0.00432322 1.17947e-18)
(0.427496 -0.00526517 -1.1699e-18)
(0.428107 -0.00634734 1.18719e-18)
(0.428648 -0.00756606 0)
(0.429168 -0.00892026 1.1975e-18)
(0.429693 -0.0104081 -8.23103e-21)
(0.430223 -0.0120341 8.3971e-20)
(0.430755 -0.0138125 0)
(0.431284 -0.015766 -1.39963e-18)
(0.431816 -0.0179246 0)
(0.432355 -0.0203259 0)
(0.43291 -0.0230184 -1.52606e-18)
(0.433488 -0.0260654 -1.45229e-18)
(0.434101 -0.029551 -8.38832e-22)
(0.434757 -0.0335878 1.42711e-18)
(0.435472 -0.0383303 2.10805e-19)
(0.436263 -0.0439907 -1.93198e-18)
(0.437149 -0.0508851 2.2123e-19)
(0.438163 -0.0594044 -1.13982e-19)
(0.439322 -0.0704594 1.69075e-18)
(0.440743 -0.0842344 2.28625e-19)
(0.44224 -0.105401 -1.15277e-19)
(0.444713 -0.128022 0)
(0.446349 -0.182332 -1.21285e-18)
(0.453001 -0.217785 -1.26565e-18)
(0.454871 -0.406795 0)
(0.423944 -0.00249977 1.13223e-18)
(0.425606 -0.00281709 -2.66389e-20)
(0.426539 -0.00343788 2.36302e-20)
(0.426628 -0.00428278 -1.17377e-18)
(0.42675 -0.0052706 -3.7463e-20)
(0.427045 -0.0063649 1.262e-18)
(0.427457 -0.00756218 1.17729e-18)
(0.427917 -0.00886732 1.599e-19)
(0.428396 -0.0102838 -8.19599e-20)
(0.428879 -0.0118188 1.33397e-18)
(0.429353 -0.0134876 1.46206e-18)
(0.429814 -0.0153124 1.32345e-18)
(0.430263 -0.0173193 1.53836e-18)
(0.430706 -0.0195394 1.39495e-18)
(0.431147 -0.0220116 1.52914e-18)
(0.431589 -0.0247865 3.22423e-18)
(0.432035 -0.02793 1.51833e-18)
(0.432488 -0.0315295 -1.77076e-18)
(0.432951 -0.0357015 1.82534e-18)
(0.433425 -0.0406044 -1.09138e-19)
(0.433909 -0.0464574 1.13385e-19)
(0.434403 -0.0535756 1.87923e-18)
(0.434886 -0.0623865 0)
(0.435351 -0.073698 -1.20049e-19)
(0.435724 -0.0880371 2.13975e-18)
(0.435854 -0.109119 0)
(0.435956 -0.133265 2.01871e-18)
(0.434166 -0.185656 -1.64245e-18)
(0.434232 -0.224147 -3.89524e-20)
(0.426141 -0.405291 -4.59344e-19)
(0.423623 -0.00277582 -8.82515e-21)
(0.424302 -0.00332348 -8.90569e-21)
(0.424846 -0.00428429 -1.15225e-18)
(0.425247 -0.00536662 -3.73373e-20)
(0.425676 -0.00646269 3.82858e-20)
(0.426195 -0.00758974 -3.89377e-20)
(0.426718 -0.00878723 -1.23292e-18)
(0.427192 -0.0100801 0)
(0.427624 -0.0114842 0)
(0.428028 -0.0130151 0)
(0.428412 -0.0146905 -1.39816e-18)
(0.42878 -0.0165308 -7.62793e-20)
(0.429133 -0.01856 -1.28774e-18)
(0.429474 -0.0208086 -1.51382e-18)
(0.4298 -0.0233168 -1.65455e-18)
(0.430111 -0.0261364 -1.60211e-18)
(0.430404 -0.0293353 1.2745e-19)
(0.430675 -0.0330023 1.59369e-18)
(0.430918 -0.0372559 -1.64409e-18)
(0.431121 -0.0422563 -1.14512e-19)
(0.431265 -0.0482255 0)
(0.431324 -0.0554763 -4.0195e-18)
(0.43124 -0.0644595 1.26157e-19)
(0.430939 -0.075892 -2.10445e-18)
(0.430269 -0.0906095 9.0089e-20)
(0.428874 -0.111334 0)
(0.42676 -0.136945 -4.37687e-18)
(0.42132 -0.186414 3.83881e-18)
(0.415189 -0.22933 -2.08589e-18)
(0.39626 -0.400028 4.75417e-19)
(0.42356 -0.00403645 0)
(0.424093 -0.00478647 -1.19066e-18)
(0.424573 -0.00572841 7.26234e-23)
(0.424967 -0.00670381 1.90826e-20)
(0.425338 -0.00769697 0)
(0.425715 -0.00876534 0)
(0.426077 -0.0099464 -1.30739e-18)
(0.426413 -0.011248 0)
(0.426733 -0.0126725 8.52695e-20)
(0.427045 -0.0142283 -1.75247e-19)
(0.427344 -0.0159303 3.295e-22)
(0.427626 -0.0177983 -1.37898e-18)
(0.427885 -0.0198577 9.49003e-20)
(0.428118 -0.0221414 1.4781e-18)
(0.428321 -0.0246912 1.007e-19)
(0.42849 -0.0275607 1.57357e-18)
(0.428616 -0.0308189 -1.70699e-18)
(0.428688 -0.0345558 -1.79418e-18)
(0.42869 -0.0388912 0)
(0.428599 -0.0439869 1.80852e-18)
(0.428376 -0.0500658 1.23764e-19)
(0.427965 -0.0574408 2.15054e-18)
(0.427271 -0.0665653 -1.33223e-19)
(0.426162 -0.078122 2.16323e-18)
(0.424358 -0.0930598 -2.22791e-18)
(0.421441 -0.113564 0)
(0.416862 -0.140021 2.37814e-18)
(0.408 -0.186906 -2.1725e-18)
(0.395248 -0.232877 2.13948e-18)
(0.366413 -0.391816 4.14696e-20)
(0.423183 -0.00514028 0)
(0.423564 -0.00585956 1.1867e-18)
(0.423888 -0.00672888 0)
(0.424201 -0.00768055 0)
(0.424516 -0.00870577 0)
(0.424832 -0.00982557 0)
(0.425139 -0.0110509 1.32588e-18)
(0.425426 -0.0123824 4.25599e-20)
(0.425693 -0.0138256 -4.38005e-20)
(0.425937 -0.0153952 0)
(0.426154 -0.017111 0)
(0.42634 -0.0189959 9.48613e-20)
(0.42649 -0.021077 -2.60662e-22)
(0.426602 -0.023388 -1.70517e-18)
(0.426667 -0.025971 0)
(0.426677 -0.02888 -1.70998e-18)
(0.426619 -0.0321845 0)
(0.426472 -0.0359751 1.94694e-18)
(0.426211 -0.0403722 -2.39734e-19)
(0.425797 -0.0455376 -1.8468e-18)
(0.425174 -0.0516933 1.051e-18)
(0.424257 -0.0591495 0)
(0.422908 -0.0683551 0)
(0.420939 -0.0799674 0)
(0.417951 -0.0949772 1.25787e-18)
(0.413445 -0.11521 -1.31542e-18)
(0.406326 -0.142043 0)
(0.39412 -0.186334 -1.37642e-18)
(0.374647 -0.234495 -1.44427e-18)
(0.33621 -0.380709 7.99538e-19)
(0.422648 -0.00614225 5.84624e-19)
(0.422938 -0.00689345 6.16399e-19)
(0.423174 -0.00778043 6.40275e-19)
(0.423438 -0.00875295 5.95835e-19)
(0.42371 -0.00979813 7.11215e-19)
(0.423964 -0.010926 6.24995e-19)
(0.424193 -0.0121492 6.83584e-19)
(0.424396 -0.0134772 -7.01708e-19)
(0.424573 -0.0149218 4.47713e-20)
(0.424721 -0.0164989 6.49378e-19)
(0.424836 -0.0182274 7.63617e-19)
(0.424914 -0.0201288 7.38308e-19)
(0.424948 -0.0222296 1.00919e-19)
(0.424929 -0.0245632 -8.39426e-19)
(0.424846 -0.0271724 1.07651e-19)
(0.424685 -0.0301113 -2.23142e-19)
(0.424426 -0.0334499 -8.18871e-19)
(0.424042 -0.0372788 -9.71966e-19)
(0.423497 -0.0417177 0)
(0.422736 -0.0469271 -1.30602e-19)
(0.421684 -0.0531262 2.92409e-20)
(0.420228 -0.0606198 1.42678e-19)
(0.418188 -0.0698467 1.07052e-18)
(0.415314 -0.0814407 2.3637e-19)
(0.4111 -0.0963845 -2.02181e-20)
(0.404957 -0.116269 1.45004e-18)
(0.395264 -0.143024 -9.19642e-20)
(0.379801 -0.184728 1.44017e-18)
(0.353593 -0.234018 1.60298e-18)
(0.306472 -0.366702 -9.38827e-19)
(0.421984 -0.00711325 -6.00941e-19)
(0.422199 -0.00787675 -6.04752e-19)
(0.422356 -0.00876262 -6.38672e-19)
(0.422553 -0.00973253 2.52502e-20)
(0.42276 -0.010779 -1.30338e-18)
(0.42294 -0.0119111 -6.75832e-19)
(0.423088 -0.0131407 -1.48046e-18)
(0.423209 -0.0144778 8.20468e-20)
(0.423301 -0.0159331 -4.60291e-20)
(0.423359 -0.017521 -1.51538e-18)
(0.423376 -0.0192598 9.83791e-21)
(0.423343 -0.0211714 -7.50015e-19)
(0.423253 -0.0232832 7.86489e-19)
(0.423094 -0.0256295 -1.3319e-20)
(0.422851 -0.028253 1.11546e-19)
(0.422505 -0.0312081 -1.15756e-19)
(0.42203 -0.0345639 9.53985e-19)
(0.421391 -0.0384103 9.93035e-19)
(0.420541 -0.0428653 1.31118e-19)
(0.419411 -0.0480863 8.36519e-19)
(0.417904 -0.0542876 -9.18948e-19)