/*--------------------------------*- C++ -*----------------------------------*\
  =========                 |
  \\      /  F ield         | OpenFOAM: The Open Source CFD Toolbox
   \\    /   O peration     | Website:  https://openfoam.org
    \\  /    A nd           | Version:  11
     \\/     M anipulation  |
\*---------------------------------------------------------------------------*/
FoamFile
{
    format      ascii;
    class       surfaceScalarField;
    location    "0.7";
    object      phi;
}
// * * * * * * * * * * * * * * * * * * * * * * * * * * * * * * * * * * * * * //

dimensions      [0 3 -1 0 0 0 0];

internalField   nonuniform List<scalar> 
24840
(
1.53199e-05
1.34026e-08
1.53029e-05
1.70251e-08
1.52875e-05
1.5364e-08
1.52734e-05
1.41609e-08
1.52602e-05
1.31821e-08
1.52483e-05
1.18683e-08
1.52384e-05
9.97333e-09
1.5231e-05
7.3432e-09
1.52275e-05
3.484e-09
1.52288e-05
-1.29839e-09
1.52345e-05
-5.62423e-09
1.52426e-05
-8.11523e-09
1.525e-05
-7.48358e-09
1.52557e-05
-5.69163e-09
1.52626e-05
-6.8942e-09
1.52758e-05
-1.31349e-08
1.5301e-05
-2.52706e-08
1.53442e-05
-4.32041e-08
1.5411e-05
-6.6787e-08
1.55042e-05
-9.31709e-08
1.56258e-05
-1.2164e-07
1.57801e-05
-1.54227e-07
1.59715e-05
-1.91401e-07
1.62057e-05
-2.34191e-07
1.64905e-05
-2.84811e-07
1.68363e-05
-3.45837e-07
1.72568e-05
-4.20456e-07
1.77612e-05
-5.04467e-07
1.83921e-05
-6.30856e-07
-6.21979e-07
1.90141e-05
1.53397e-05
7.04078e-09
1.53443e-05
1.24051e-08
1.53491e-05
1.06e-08
1.53542e-05
9.00398e-09
1.53601e-05
7.32723e-09
1.53667e-05
5.25084e-09
1.53739e-05
2.80597e-09
1.53815e-05
-2.50387e-10
1.53896e-05
-4.64755e-09
1.53987e-05
-1.03787e-08
1.54092e-05
-1.61767e-08
1.54234e-05
-2.22406e-08
1.54475e-05
-3.15852e-08
1.54864e-05
-4.46334e-08
1.55358e-05
-5.63428e-08
1.55883e-05
-6.55874e-08
1.56431e-05
-8.01179e-08
1.57036e-05
-1.03664e-07
1.57721e-05
-1.35321e-07
1.58553e-05
-1.76372e-07
1.59611e-05
-2.27441e-07
1.6094e-05
-2.87088e-07
1.6259e-05
-3.56364e-07
1.64627e-05
-4.37926e-07
1.67135e-05
-5.35561e-07
1.70211e-05
-6.53528e-07
1.73981e-05
-7.97388e-07
1.78581e-05
-9.64527e-07
1.84208e-05
-1.19354e-06
-1.3208e-06
1.91196e-05
1.53365e-05
3.88564e-09
1.53407e-05
8.20109e-09
1.53444e-05
6.90822e-09
1.53489e-05
4.50672e-09
1.53543e-05
1.90662e-09
1.53607e-05
-1.16887e-09
1.53685e-05
-5.00951e-09
1.53783e-05
-9.97282e-09
1.53897e-05
-1.60868e-08
1.54021e-05
-2.27765e-08
1.54152e-05
-2.92785e-08
1.54294e-05
-3.64922e-08
1.54455e-05
-4.76191e-08
1.54659e-05
-6.50677e-08
1.54959e-05
-8.62882e-08
1.55394e-05
-1.09096e-07
1.55965e-05
-1.37215e-07
1.56655e-05
-1.72683e-07
1.57465e-05
-2.16384e-07
1.58407e-05
-2.70557e-07
1.59513e-05
-3.37957e-07
1.6084e-05
-4.19827e-07
1.62457e-05
-5.18078e-07
1.64441e-05
-6.36295e-07
1.66879e-05
-7.79398e-07
1.69874e-05
-9.53013e-07
1.73551e-05
-1.16507e-06
1.78057e-05
-1.41519e-06
1.83574e-05
-1.74521e-06
-2.00552e-06
1.90421e-05
1.53352e-05
2.01423e-09
1.53389e-05
4.48517e-09
1.53426e-05
3.19946e-09
1.53468e-05
3.50073e-10
1.53519e-05
-3.20321e-09
1.5358e-05
-7.25492e-09
1.53653e-05
-1.23619e-08
1.53742e-05
-1.88356e-08
1.53847e-05
-2.66215e-08
1.53972e-05
-3.52327e-08
1.54123e-05
-4.44124e-08
1.5431e-05
-5.52117e-08
1.54533e-05
-6.99203e-08
1.54788e-05
-9.05674e-08
1.55091e-05
-1.1654e-07
1.55473e-05
-1.4734e-07
1.55956e-05
-1.85437e-07
1.56555e-05
-2.32586e-07
1.5729e-05
-2.89925e-07
1.58182e-05
-3.59723e-07
1.59255e-05
-4.45299e-07
1.60552e-05
-5.49505e-07
1.62128e-05
-6.75715e-07
1.64055e-05
-8.28923e-07
1.66416e-05
-1.01557e-06
1.69316e-05
-1.24296e-06
1.72877e-05
-1.52117e-06
1.77255e-05
-1.85297e-06
1.82607e-05
-2.28046e-06
-2.67444e-06
1.89296e-05
1.53346e-05
7.53139e-10
1.53376e-05
1.49177e-09
1.5341e-05
-1.84017e-10
1.53449e-05
-3.60944e-09
1.53497e-05
-7.98071e-09
1.53556e-05
-1.31576e-08
1.53629e-05
-1.96238e-08
1.53716e-05
-2.75806e-08
1.53818e-05
-3.67962e-08
1.53936e-05
-4.70068e-08
1.54078e-05
-5.861e-08
1.54256e-05
-7.30068e-08
1.54478e-05
-9.21335e-08
1.54746e-05
-1.17392e-07
1.55067e-05
-1.48614e-07
1.55453e-05
-1.85973e-07
1.55917e-05
-2.31833e-07
1.56477e-05
-2.88573e-07
1.57158e-05
-3.58057e-07
1.57989e-05
-4.42786e-07
1.58998e-05
-5.46255e-07
1.60226e-05
-6.72314e-07
1.61726e-05
-8.25635e-07
1.63562e-05
-1.01251e-06
1.65815e-05
-1.24089e-06
1.68584e-05
-1.51989e-06
1.71989e-05
-1.86169e-06
1.76187e-05
-2.27274e-06
1.81325e-05
-2.79429e-06
-3.32004e-06
1.87781e-05
1.53343e-05
-1.71204e-10
1.53367e-05
-9.3568e-10
1.53398e-05
-3.31857e-09
1.53436e-05
-7.36035e-09
1.53481e-05
-1.25244e-08
1.53537e-05
-1.87279e-08
1.53604e-05
-2.63631e-08
1.53685e-05
-3.5694e-08
1.53784e-05
-4.66122e-08
1.53903e-05
-5.89825e-08
1.5405e-05
-7.32855e-08
1.54228e-05
-9.085e-08
1.54441e-05
-1.13381e-07
1.54689e-05
-1.42244e-07
1.54984e-05
-1.78025e-07
1.5534e-05
-2.21607e-07
1.55774e-05
-2.75242e-07
1.56302e-05
-3.4138e-07
1.56944e-05
-4.22264e-07
1.57724e-05
-5.20786e-07
1.58671e-05
-6.40938e-07
1.59823e-05
-7.8754e-07
1.61231e-05
-9.66437e-07
1.62957e-05
-1.1851e-06
1.65077e-05
-1.45285e-06
1.67684e-05
-1.78063e-06
1.70894e-05
-2.18271e-06
1.74862e-05
-2.66948e-06
1.7973e-05
-3.28111e-06
-3.93617e-06
1.85891e-05
1.53341e-05
-9.10434e-10
1.53361e-05
-2.94824e-09
1.53389e-05
-6.15796e-09
1.53424e-05
-1.08389e-08
1.53466e-05
-1.6769e-08
1.53519e-05
-2.39354e-08
1.53582e-05
-3.2665e-08
1.53657e-05
-4.32483e-08
1.53748e-05
-5.57097e-08
1.53859e-05
-7.00756e-08
1.53995e-05
-8.6897e-08
1.54161e-05
-1.0742e-07
1.54359e-05
-1.33226e-07
1.54594e-05
-1.65743e-07
1.54874e-05
-2.06013e-07
1.55211e-05
-2.55315e-07
1.55618e-05
-3.15885e-07
1.56107e-05
-3.90348e-07
1.56699e-05
-4.81435e-07
1.57417e-05
-5.92545e-07
1.58289e-05
-7.28176e-07
1.59353e-05
-8.93903e-07
1.60654e-05
-1.09655e-06
1.62249e-05
-1.34466e-06
1.6421e-05
-1.64892e-06
1.66624e-05
-2.02203e-06
1.69601e-05
-2.48035e-06
1.73289e-05
-3.0383e-06
1.77829e-05
-3.73512e-06
-4.51584e-06
1.83626e-05
1.53339e-05
-1.51519e-09
1.53356e-05
-4.64935e-09
1.53382e-05
-8.69115e-09
1.53414e-05
-1.40286e-08
1.53453e-05
-2.06844e-08
1.53501e-05
-2.87486e-08
1.53559e-05
-3.85182e-08
1.5363e-05
-5.02585e-08
1.53713e-05
-6.40806e-08
1.53814e-05
-8.02008e-08
1.53939e-05
-9.93108e-08
1.54091e-05
-1.22619e-07
1.54274e-05
-1.51554e-07
1.54492e-05
-1.87508e-07
1.5475e-05
-2.31813e-07
1.55058e-05
-2.86135e-07
1.55428e-05
-3.52869e-07
1.55873e-05
-4.34841e-07
1.5641e-05
-5.35162e-07
1.57061e-05
-6.57667e-07
1.57853e-05
-8.07333e-07
1.58818e-05
-9.90402e-07
1.59998e-05
-1.21457e-06
1.61445e-05
-1.48939e-06
1.63224e-05
-1.82679e-06
1.65415e-05
-2.24115e-06
1.6812e-05
-2.75088e-06
1.71481e-05
-3.37439e-06
1.75632e-05
-4.15025e-06
-5.05107e-06
1.80985e-05
1.53338e-05
-2.01627e-09
1.53353e-05
-6.10345e-09
1.53375e-05
-1.09295e-08
1.53404e-05
-1.6921e-08
1.5344e-05
-2.42613e-08
1.53484e-05
-3.3127e-08
1.53537e-05
-4.38082e-08
1.536e-05
-5.65904e-08
1.53676e-05
-7.16996e-08
1.53769e-05
-8.94718e-08
1.53882e-05
-1.10609e-07
1.54018e-05
-1.36252e-07
1.54181e-05
-1.67821e-07
1.54374e-05
-2.06828e-07
1.54604e-05
-2.54851e-07
1.54881e-05
-3.1377e-07
1.55213e-05
-3.86051e-07
1.55611e-05
-4.74669e-07
1.5609e-05
-5.83081e-07
1.56669e-05
-7.15566e-07
1.57372e-05
-8.77581e-07
1.58227e-05
-1.07596e-06
1.59273e-05
-1.31913e-06
1.60554e-05
-1.61756e-06
1.62129e-05
-1.98427e-06
1.6407e-05
-2.43521e-06
1.66468e-05
-2.99071e-06
1.69454e-05
-3.67304e-06
1.73156e-05
-4.52036e-06
-5.53317e-06
1.77977e-05
1.53338e-05
-2.43841e-09
1.5335e-05
-7.35158e-09
1.5337e-05
-1.28927e-08
1.53395e-05
-1.95028e-08
1.53428e-05
-2.74649e-08
1.53467e-05
-3.70394e-08
1.53514e-05
-4.85409e-08
1.53571e-05
-6.22633e-08
1.53638e-05
-7.84769e-08
1.5372e-05
-9.76023e-08
1.53818e-05
-1.20419e-07
1.53936e-05
-1.48098e-07
1.54079e-05
-1.82059e-07
1.54249e-05
-2.23843e-07
1.54452e-05
-2.75141e-07
1.54694e-05
-3.37989e-07
1.54983e-05
-4.14968e-07
1.55329e-05
-5.0923e-07
1.55743e-05
-6.24541e-07
1.56243e-05
-7.65557e-07
1.56849e-05
-9.38146e-07
1.57586e-05
-1.14963e-06
1.58485e-05
-1.40906e-06
1.59586e-05
-1.72766e-06
1.60938e-05
-2.11945e-06
1.62603e-05
-2.60171e-06
1.64661e-05
-3.19655e-06
1.67229e-05
-3.9298e-06
1.70419e-05
-4.83939e-06
-5.95307e-06
1.74618e-05
1.53337e-05
-2.79695e-09
1.53348e-05
-8.41952e-09
1.53365e-05
-1.45948e-08
1.53387e-05
-2.17671e-08
1.53415e-05
-3.02847e-08
1.5345e-05
-4.04717e-08
1.53491e-05
-5.26669e-08
1.5354e-05
-6.71833e-08
1.53599e-05
-8.43427e-08
1.53669e-05
-1.04628e-07
1.53753e-05
-1.28846e-07
1.53854e-05
-1.58175e-07
1.53974e-05
-1.94071e-07
1.54117e-05
-2.38159e-07
1.54288e-05
-2.92237e-07
1.54493e-05
-3.58416e-07
1.54736e-05
-4.39332e-07
1.55027e-05
-5.38258e-07
1.55373e-05
-6.59211e-07
1.5579e-05
-8.07182e-07
1.56292e-05
-9.88401e-07
1.56902e-05
-1.2106e-06
1.57644e-05
-1.48331e-06
1.58552e-05
-1.81839e-06
1.59663e-05
-2.23064e-06
1.61031e-05
-2.73847e-06
1.6272e-05
-3.36548e-06
1.64829e-05
-4.14061e-06
1.67451e-05
-5.10165e-06
-6.30176e-06
1.70938e-05
1.53336e-05
-3.10032e-09
1.53345e-05
-9.32504e-09
1.5336e-05
-1.60493e-08
1.53379e-05
-2.37137e-08
1.53404e-05
-3.27061e-08
1.53433e-05
-4.33987e-08
1.53468e-05
-5.61626e-08
1.53509e-05
-7.13313e-08
1.53558e-05
-8.92486e-08
1.53616e-05
-1.10432e-07
1.53685e-05
-1.35732e-07
1.53767e-05
-1.66365e-07
1.53865e-05
-2.03826e-07
1.53981e-05
-2.49788e-07
1.5412e-05
-3.06093e-07
1.54284e-05
-3.74892e-07
1.5448e-05
-4.58862e-07
1.54711e-05
-5.61378e-07
1.54985e-05
-6.8666e-07
1.55313e-05
-8.39958e-07
1.55707e-05
-1.02779e-06
1.56183e-05
-1.25818e-06
1.5676e-05
-1.54105e-06
1.57463e-05
-1.88868e-06
1.58321e-05
-2.31648e-06
1.59374e-05
-2.8437e-06
1.60669e-05
-3.49505e-06
1.62283e-05
-4.302e-06
1.64287e-05
-5.30204e-06
-6.57081e-06
1.66978e-05
1.53336e-05
-3.35369e-09
1.53343e-05
-1.00817e-08
1.53356e-05
-1.72677e-08
1.53372e-05
-2.53439e-08
1.53392e-05
-3.4722e-08
1.53416e-05
-4.58094e-08
1.53445e-05
-5.90051e-08
1.53478e-05
-7.46646e-08
1.53517e-05
-9.31515e-08
1.53563e-05
-1.15003e-07
1.53616e-05
-1.41089e-07
1.53679e-05
-1.72657e-07
1.53753e-05
-2.11249e-07
1.53841e-05
-2.58583e-07
1.53946e-05
-3.16525e-07
1.54069e-05
-3.87226e-07
1.54214e-05
-4.73362e-07
1.54384e-05
-5.78371e-07
1.54583e-05
-7.06617e-07
1.54819e-05
-8.63546e-07
1.551e-05
-1.05588e-06
1.55437e-05
-1.29186e-06
1.55843e-05
-1.58163e-06
1.56333e-05
-1.93774e-06
1.56928e-05
-2.37596e-06
1.57652e-05
-2.91604e-06
1.58535e-05
-3.58339e-06
1.59627e-05
-4.41121e-06
1.60971e-05
-5.43643e-06
-6.75298e-06
1.62793e-05
1.53335e-05
-3.56091e-09
1.53342e-05
-1.07003e-08
1.53352e-05
-1.82609e-08
1.53365e-05
-2.66624e-08
1.53381e-05
-3.63299e-08
1.534e-05
-4.76968e-08
1.53421e-05
-6.11851e-08
1.53446e-05
-7.71661e-08
1.53475e-05
-9.60151e-08
1.53508e-05
-1.18283e-07
1.53546e-05
-1.44859e-07
1.53589e-05
-1.77017e-07
1.5364e-05
-2.16329e-07
1.53699e-05
-2.64534e-07
1.53769e-05
-3.23493e-07
1.5385e-05
-3.95327e-07
1.53943e-05
-4.82691e-07
1.5405e-05
-5.89048e-07
1.54173e-05
-7.18855e-07
1.54314e-05
-8.77683e-07
1.54479e-05
-1.07238e-06
1.54673e-05
-1.31128e-06
1.54903e-05
-1.60462e-06
1.55176e-05
-1.96505e-06
1.55501e-05
-2.40843e-06
1.55887e-05
-2.95465e-06
1.56346e-05
-3.62929e-06
1.56898e-05
-4.46645e-06
1.57554e-05
-5.50195e-06
-6.84288e-06
1.58453e-05
1.53335e-05
-3.7254e-09
1.5334e-05
-1.11908e-08
1.53348e-05
-1.90403e-08
1.53358e-05
-2.7677e-08
1.5337e-05
-3.75314e-08
1.53383e-05
-4.90561e-08
1.53398e-05
-6.2692e-08
1.53415e-05
-7.88224e-08
1.53433e-05
-9.78299e-08
1.53453e-05
-1.20271e-07
1.53475e-05
-1.47046e-07
1.53499e-05
-1.79443e-07
1.53526e-05
-2.19048e-07
1.53557e-05
-2.67602e-07
1.53592e-05
-3.26938e-07
1.53629e-05
-3.99123e-07
1.5367e-05
-4.86764e-07
1.53713e-05
-5.93314e-07
1.53757e-05
-7.23265e-07
1.53803e-05
-8.82244e-07
1.5385e-05
-1.07713e-06
1.539e-05
-1.31627e-06
1.53952e-05
-1.60985e-06
1.54006e-05
-1.9704e-06
1.54058e-05
-2.41363e-06
1.54103e-05
-2.9592e-06
1.54133e-05
-3.6323e-06
1.54139e-05
-4.46697e-06
1.54092e-05
-5.49726e-06
-6.83757e-06
1.54039e-05
1.53335e-05
-3.85062e-09
1.53338e-05
-1.15633e-08
1.53344e-05
-1.96186e-08
1.53351e-05
-2.83985e-08
1.53359e-05
-3.83334e-08
1.53368e-05
-4.98909e-08
1.53376e-05
-6.35255e-08
1.53384e-05
-7.96291e-08
1.53392e-05
-9.8588e-08
1.53399e-05
-1.20961e-07
1.53405e-05
-1.47651e-07
1.5341e-05
-1.79945e-07
1.53413e-05
-2.19423e-07
1.53415e-05
-2.67804e-07
1.53415e-05
-3.2687e-07
1.5341e-05
-3.98613e-07
1.53398e-05
-4.85568e-07
1.53376e-05
-5.91143e-07
1.53341e-05
-7.19814e-07
1.53291e-05
-8.77193e-07
1.53221e-05
-1.07012e-06
1.53126e-05
-1.30683e-06
1.53001e-05
-1.59733e-06
1.52836e-05
-1.95387e-06
1.52617e-05
-2.3917e-06
1.52324e-05
-2.92992e-06
1.51928e-05
-3.59275e-06
1.51391e-05
-4.41322e-06
1.50646e-05
-5.42281e-06
-6.73706e-06
1.49641e-05
1.53334e-05
-3.94055e-09
1.53337e-05
-1.18292e-08
1.53341e-05
-2.00106e-08
1.53345e-05
-2.88406e-08
1.53349e-05
-3.87478e-08
1.53353e-05
-5.02109e-08
1.53354e-05
-6.36924e-08
1.53354e-05
-7.95887e-08
1.53351e-05
-9.82927e-08
1.53345e-05
-1.20367e-07
1.53335e-05
-1.46704e-07
1.53322e-05
-1.78568e-07
1.53303e-05
-2.17504e-07
1.53276e-05
-2.65183e-07
1.53241e-05
-3.23321e-07
1.53193e-05
-3.93824e-07
1.53129e-05
-4.79132e-07
1.53043e-05
-5.82574e-07
1.5293e-05
-7.08556e-07
1.52784e-05
-8.62613e-07
1.52598e-05
-1.05146e-06
1.52361e-05
-1.28313e-06
1.52061e-05
-1.56732e-06
1.5168e-05
-1.91581e-06
1.51195e-05
-2.34319e-06
1.50572e-05
-2.86759e-06
1.49762e-05
-3.51179e-06
1.48698e-05
-4.30681e-06
1.47279e-05
-5.28086e-06
-6.54451e-06
1.45353e-05
1.53334e-05
-4.00003e-09
1.53336e-05
-1.20023e-08
1.53338e-05
-2.02347e-08
1.5334e-05
-2.90211e-08
1.5334e-05
-3.87894e-08
1.53338e-05
-5.00285e-08
1.53333e-05
-6.32045e-08
1.53325e-05
-7.87171e-08
1.53311e-05
-9.69677e-08
1.53293e-05
-1.18519e-07
1.53268e-05
-1.44243e-07
1.53236e-05
-1.75356e-07
1.53195e-05
-2.13342e-07
1.53141e-05
-2.59801e-07
1.53071e-05
-3.16367e-07
1.52981e-05
-3.84845e-07
1.52866e-05
-4.67565e-07
1.52717e-05
-5.67738e-07
1.52528e-05
-6.8965e-07
1.52289e-05
-8.38699e-07
1.51989e-05
-1.0214e-06
1.51612e-05
-1.24551e-06
1.51142e-05
-1.52028e-06
1.50553e-05
-1.85689e-06
1.49811e-05
-2.269e-06
1.4887e-05
-2.77352e-06
1.47665e-05
-3.39127e-06
1.46102e-05
-4.15052e-06
1.44049e-05
-5.0755e-06
-6.26629e-06
1.41266e-05
1.53334e-05
-4.03544e-09
1.53335e-05
-1.20996e-08
1.53335e-05
-2.0313e-08
1.53335e-05
-2.89614e-08
1.53332e-05
-3.84773e-08
1.53325e-05
-4.93637e-08
1.53314e-05
-6.2085e-08
1.53297e-05
-7.7039e-08
1.53274e-05
-9.46363e-08
1.53243e-05
-1.15443e-07
1.53204e-05
-1.40302e-07
1.53154e-05
-1.70364e-07
1.5309e-05
-2.07019e-07
1.5301e-05
-2.51768e-07
1.52908e-05
-3.06143e-07
1.52778e-05
-3.71836e-07
1.52613e-05
-4.51043e-07
1.52403e-05
-5.46828e-07
1.5214e-05
-6.63321e-07
1.51811e-05
-8.05729e-07
1.514e-05
-9.80313e-07
1.50889e-05
-1.19446e-06
1.50255e-05
-1.45688e-06
1.49466e-05
-1.77799e-06
1.4848e-05
-2.17039e-06
1.47239e-05
-2.64945e-06
1.45664e-05
-3.23376e-06
1.4364e-05
-3.94811e-06
1.41009e-05
-4.81238e-06
-5.91162e-06
1.37462e-05
1.53334e-05
-4.0552e-09
1.53334e-05
-1.21434e-08
1.53334e-05
-2.02725e-08
1.53331e-05
-2.86861e-08
1.53324e-05
-3.78371e-08
1.53313e-05
-4.82427e-08
1.53296e-05
-6.03521e-08
1.53271e-05
-7.45661e-08
1.53238e-05
-9.13299e-08
1.53196e-05
-1.11218e-07
1.53143e-05
-1.35009e-07
1.53077e-05
-1.63732e-07
1.52993e-05
-1.98658e-07
1.52887e-05
-2.41186e-07
1.52753e-05
-2.92753e-07
1.52584e-05
-3.54928e-07
1.52371e-05
-4.29744e-07
1.52104e-05
-5.20083e-07
1.51769e-05
-6.29875e-07
1.51353e-05
-7.64094e-07
1.50837e-05
-9.28693e-07
1.50198e-05
-1.13061e-06
1.49409e-05
-1.37796e-06
1.48432e-05
-1.68026e-06
1.47217e-05
-2.0489e-06
1.45698e-05
-2.49755e-06
1.43784e-05
-3.04234e-06
1.41344e-05
-3.70417e-06
1.38205e-05
-4.49844e-06
-5.49195e-06
1.34008e-05
1.53333e-05
-4.07066e-09
1.53334e-05
-1.21626e-08
1.53332e-05
-2.01474e-08
1.53328e-05
-2.82238e-08
1.53318e-05
-3.68873e-08
1.53303e-05
-4.66876e-08
1.5328e-05
-5.80554e-08
1.53248e-05
-7.13782e-08
1.53206e-05
-8.71238e-08
1.53152e-05
-1.0588e-07
1.53086e-05
-1.28367e-07
1.53004e-05
-1.55483e-07
1.529e-05
-1.88349e-07
1.52771e-05
-2.28237e-07
1.52608e-05
-2.76458e-07
1.52403e-05
-3.34423e-07
1.52145e-05
-4.03977e-07
1.51823e-05
-4.87814e-07
1.5142e-05
-5.89662e-07
1.50922e-05
-7.14231e-07
1.50306e-05
-8.67112e-07
1.49547e-05
-1.05474e-06
1.48613e-05
-1.28451e-06
1.4746e-05
-1.56503e-06
1.46035e-05
-1.90631e-06
1.44262e-05
-2.32027e-06
1.42043e-05
-2.82048e-06
1.39239e-05
-3.42381e-06
1.35669e-05
-4.14137e-06
-5.02009e-06
1.3095e-05
1.53334e-05
-4.09742e-09
1.53334e-05
-1.22018e-08
1.53332e-05
-1.99769e-08
1.53326e-05
-2.75992e-08
1.53314e-05
-3.56724e-08
1.53295e-05
-4.47597e-08
1.53266e-05
-5.52163e-08
1.53227e-05
-6.74395e-08
1.53176e-05
-8.20013e-08
1.53112e-05
-9.95225e-08
1.53034e-05
-1.20589e-07
1.52938e-05
-1.45876e-07
1.52818e-05
-1.76315e-07
1.52666e-05
-2.13066e-07
1.52475e-05
-2.57354e-07
1.52235e-05
-3.10441e-07
1.51935e-05
-3.73957e-07
1.51561e-05
-4.5037e-07
1.51096e-05
-5.43162e-07
1.50521e-05
-6.56745e-07
1.49813e-05
-7.96309e-07
1.48943e-05
-9.67737e-07
1.47875e-05
-1.17769e-06
1.46562e-05
-1.43376e-06
1.44945e-05
-1.74459e-06
1.42944e-05
-2.12024e-06
1.40458e-05
-2.57186e-06
1.37344e-05
-3.11238e-06
1.33422e-05
-3.74917e-06
-4.50926e-06
1.28313e-05
1.53334e-05
-4.15991e-09
1.53335e-05
-1.23187e-08
1.53333e-05
-1.98103e-08
1.53326e-05
-2.6841e-08
1.53311e-05
-3.41974e-08
1.53288e-05
-4.24744e-08
1.53256e-05
-5.19599e-08
1.53211e-05
-6.29966e-08
1.53153e-05
-7.61553e-08
1.53079e-05
-9.21089e-08
1.52987e-05
-1.11459e-07
1.52876e-05
-1.34743e-07
1.52739e-05
-1.62623e-07
1.52568e-05
-1.95988e-07
1.52354e-05
-2.35877e-07
1.52083e-05
-2.83412e-07
1.51744e-05
-3.40065e-07
1.51322e-05
-4.0813e-07
1.50799e-05
-4.90838e-07
1.50154e-05
-5.92247e-07
1.49361e-05
-7.17077e-07
1.4839e-05
-8.70609e-07
1.47201e-05
-1.05876e-06
1.45744e-05
-1.28809e-06
1.43956e-05
-1.56581e-06
1.41756e-05
-1.90021e-06
1.3904e-05
-2.30022e-06
1.35667e-05
-2.77514e-06
1.31471e-05
-3.32954e-06
-3.97201e-06
1.26098e-05
1.53335e-05
-4.29847e-09
1.53337e-05
-1.25964e-08
1.53336e-05
-1.9691e-08
1.53328e-05
-2.598e-08
1.53311e-05
-3.25376e-08
1.53285e-05
-3.9899e-08
1.53248e-05
-4.82128e-08
1.53196e-05
-5.78419e-08
1.5313e-05
-6.94807e-08
1.53047e-05
-8.38374e-08
1.52946e-05
-1.01398e-07
1.52824e-05
-1.22483e-07
1.52672e-05
-1.47484e-07
1.52483e-05
-1.77041e-07
1.52244e-05
-2.12033e-07
1.51945e-05
-2.53461e-07
1.51571e-05
-3.02632e-07
1.51106e-05
-3.61643e-07
1.50531e-05
-4.33403e-07
1.49824e-05
-5.21559e-07
1.48957e-05
-6.30339e-07
1.47895e-05
-7.64431e-07
1.46598e-05
-9.29044e-07
1.45014e-05
-1.12968e-06
1.43077e-05
-1.37212e-06
1.40704e-05
-1.66294e-06
1.37794e-05
-2.00916e-06
1.34212e-05
-2.41698e-06
1.2981e-05
-2.88936e-06
-3.41934e-06
1.24284e-05
1.53336e-05
-4.58674e-09
1.53342e-05
-1.31567e-08
1.53341e-05
-1.96521e-08
1.53332e-05
-2.50304e-08
1.53314e-05
-3.07032e-08
1.53285e-05
-3.70843e-08
1.53246e-05
-4.42208e-08
1.53191e-05
-5.24162e-08
1.5312e-05
-6.23351e-08
1.53029e-05
-7.47362e-08
1.52916e-05
-9.01648e-08
1.5278e-05
-1.08807e-07
1.52612e-05
-1.30703e-07
1.52403e-05
-1.56155e-07
1.52142e-05
-1.85901e-07
1.51815e-05
-2.20829e-07
1.5141e-05
-2.62056e-07
1.50908e-05
-3.11468e-07
1.5029e-05
-3.71591e-07
1.4953e-05
-4.45612e-07
1.48599e-05
-5.37217e-07
1.4746e-05
-6.505e-07
1.4607e-05
-7.90061e-07
1.44377e-05
-9.60365e-07
1.42312e-05
-1.16569e-06
1.39794e-05
-1.41109e-06
1.36723e-05
-1.70204e-06
1.32975e-05
-2.0422e-06
1.28426e-05
-2.43442e-06
-2.86001e-06
1.22832e-05
1.53339e-05
-5.16183e-09
1.53349e-05
-1.41786e-08
1.5335e-05
-1.97033e-08
1.5334e-05
-2.40216e-08
1.5332e-05
-2.87297e-08
1.5329e-05
-3.40449e-08
1.53247e-05
-3.99623e-08
1.53189e-05
-4.65951e-08
1.53109e-05
-5.43688e-08
1.53003e-05
-6.4123e-08
1.52871e-05
-7.69346e-08
1.52716e-05
-9.33543e-08
1.52538e-05
-1.12935e-07
1.52326e-05
-1.34874e-07
1.52058e-05
-1.59111e-07
1.51714e-05
-1.8646e-07
1.51278e-05
-2.18472e-07
1.50738e-05
-2.5743e-07
1.50077e-05
-3.05513e-07
1.49272e-05
-3.65084e-07
1.48288e-05
-4.38865e-07
1.47086e-05
-5.30236e-07
1.45619e-05
-6.43437e-07
1.43836e-05
-7.8201e-07
1.41667e-05
-9.48757e-07
1.39029e-05
-1.14737e-06
1.35831e-05
-1.38219e-06
1.31957e-05
-1.65485e-06
1.27313e-05
-1.96993e-06
-2.29983e-06
1.21711e-05
1.53345e-05
-6.28095e-09
1.53361e-05
-1.58717e-08
1.53363e-05
-1.98241e-08
1.53353e-05
-2.30428e-08
1.53333e-05
-2.67463e-08
1.53301e-05
-3.08904e-08
1.53256e-05
-3.5417e-08
1.53193e-05
-4.02773e-08
1.53107e-05
-4.58089e-08
1.52995e-05
-5.29294e-08
1.52855e-05
-6.29468e-08
1.52686e-05
-7.63654e-08
1.52479e-05
-9.23099e-08
1.52226e-05
-1.09585e-07
1.51918e-05
-1.28233e-07
1.51544e-05
-1.49128e-07
1.51095e-05
-1.73507e-07
1.50551e-05
-2.03042e-07
1.49885e-05
-2.38959e-07
1.49064e-05
-2.82976e-07
1.48048e-05
-3.37272e-07
1.46796e-05
-4.05036e-07
1.45268e-05
-4.90628e-07
1.43414e-05
-5.96552e-07
1.41165e-05
-7.23928e-07
1.38444e-05
-8.75242e-07
1.35161e-05
-1.05387e-06
1.31207e-05
-1.25951e-06
1.26517e-05
-1.50094e-06
-1.73986e-06
1.20918e-05
1.53356e-05
-8.53652e-09
1.53378e-05
-1.81126e-08
1.5338e-05
-1.99849e-08
1.53371e-05
-2.22023e-08
1.53351e-05
-2.4739e-08
1.53319e-05
-2.76623e-08
1.53274e-05
-3.08677e-08
1.53213e-05
-3.41726e-08
1.53131e-05
-3.76585e-08
1.53015e-05
-4.13326e-08
1.52846e-05
-4.59933e-08
1.52612e-05
-5.30359e-08
1.52327e-05
-6.37962e-08
1.52018e-05
-7.86243e-08
1.51703e-05
-9.67818e-08
1.51369e-05
-1.15751e-07
1.50976e-05
-1.34191e-07
1.50477e-05
-1.53124e-07
1.49827e-05
-1.73967e-07
1.48991e-05
-1.99328e-07
1.47937e-05
-2.31909e-07
1.4664e-05
-2.75306e-07
1.4507e-05
-3.33678e-07
1.43176e-05
-4.07164e-07
1.40885e-05
-4.94837e-07
1.38118e-05
-5.98515e-07
1.34785e-05
-7.20594e-07
1.30779e-05
-8.58893e-07
1.26044e-05
-1.02738e-06
-1.16777e-06
1.20323e-05
1.53395e-05
-1.46688e-08
1.53415e-05
-2.01855e-08
1.53412e-05
-1.9634e-08
1.53397e-05
-2.06878e-08
1.53369e-05
-2.19966e-08
1.53326e-05
-2.33663e-08
1.53264e-05
-2.46148e-08
1.53176e-05
-2.54289e-08
1.53058e-05
-2.58596e-08
1.52908e-05
-2.62758e-08
1.52731e-05
-2.83438e-08
1.52539e-05
-3.38465e-08
1.52334e-05
-4.3218e-08
1.52101e-05
-5.53384e-08
1.51817e-05
-6.84135e-08
1.51454e-05
-7.94859e-08
1.50988e-05
-8.75849e-08
1.50398e-05
-9.40566e-08
1.49665e-05
-1.00715e-07
1.48774e-05
-1.10205e-07
1.47704e-05
-1.24941e-07
1.4641e-05
-1.45913e-07
1.44805e-05
-1.73191e-07
1.42823e-05
-2.0892e-07
1.40418e-05
-2.54364e-07
1.37521e-05
-3.08795e-07
1.34038e-05
-3.72255e-07
1.29885e-05
-4.43572e-07
1.24921e-05
-5.31041e-07
-5.46558e-07
1.18709e-05
1.53187e-05
1.52985e-05
1.52788e-05
1.52582e-05
1.52362e-05
1.52128e-05
1.51882e-05
1.51628e-05
1.51369e-05
1.51106e-05
1.50823e-05
1.50484e-05
1.50052e-05
1.49499e-05
1.48815e-05
1.4802e-05
1.47144e-05
1.46203e-05
1.45196e-05
1.44094e-05
1.42845e-05
1.41386e-05
1.39654e-05
1.37564e-05
1.35021e-05
1.31933e-05
1.2821e-05
1.23775e-05
1.18464e-05
1.12999e-05
1.87318e-05
-8.7502e-06
9.03243e-06
1.84873e-05
-8.9313e-06
9.1758e-06
1.82125e-05
-9.1156e-06
9.39047e-06
1.79073e-05
-9.29505e-06
9.60018e-06
1.75759e-05
-9.47689e-06
9.80831e-06
1.72227e-05
-9.66487e-06
1.00181e-05
1.68504e-05
-9.86042e-06
1.02327e-05
1.64606e-05
-1.00646e-05
1.04544e-05
1.6054e-05
-1.02783e-05
1.06848e-05
1.56307e-05
-1.05021e-05
1.09255e-05
1.51899e-05
-1.07366e-05
1.11774e-05
1.47307e-05
-1.09822e-05
1.14414e-05
1.4252e-05
-1.12397e-05
1.17183e-05
1.37528e-05
-1.15103e-05
1.20094e-05
1.32321e-05
-1.17955e-05
1.23163e-05
1.26885e-05
-1.20974e-05
1.2641e-05
1.21207e-05
-1.24184e-05
1.29862e-05
1.15267e-05
-1.27613e-05
1.33553e-05
1.09041e-05
-1.31295e-05
1.37521e-05
1.02498e-05
-1.35275e-05
1.41817e-05
9.55997e-06
-1.39604e-05
1.46502e-05
8.82942e-06
-1.44347e-05
1.51653e-05
8.05146e-06
-1.49585e-05
1.57364e-05
7.21741e-06
-1.55419e-05
1.6376e-05
6.31465e-06
-1.61973e-05
1.71001e-05
5.32999e-06
-1.69415e-05
1.79262e-05
4.24086e-06
-1.77936e-05
1.88827e-05
2.98418e-06
-1.87972e-05
2.00539e-05
1.66164e-06
-1.98509e-05
2.11735e-05
-2.15385e-05
2.32002e-05
1.88498e-05
-8.48031e-06
1.85471e-05
-8.62865e-06
1.82176e-05
-8.7861e-06
1.78702e-05
-8.94767e-06
1.75089e-05
-9.11553e-06
1.71351e-05
-9.29113e-06
1.67493e-05
-9.47461e-06
1.63508e-05
-9.6661e-06
1.59385e-05
-9.86595e-06
1.55109e-05
-1.00745e-05
1.50667e-05
-1.02924e-05
1.46047e-05
-1.05202e-05
1.41239e-05
-1.07589e-05
1.36236e-05
-1.10099e-05
1.31025e-05
-1.12745e-05
1.25595e-05
-1.15545e-05
1.19931e-05
-1.18519e-05
1.14011e-05
-1.21693e-05
1.07811e-05
-1.25095e-05
1.01299e-05
-1.28764e-05
9.44366e-06
-1.32741e-05
8.7171e-06
-1.37082e-05
7.94366e-06
-1.4185e-05
7.11472e-06
-1.4713e-05
6.21897e-06
-1.53016e-05
5.24185e-06
-1.59644e-05
4.16235e-06
-1.67141e-05
2.9465e-06
-1.75814e-05
1.61581e-06
-1.85203e-05
-1.99227e-05
1.87331e-05
-8.1713e-06
1.84076e-05
-8.30318e-06
1.80675e-05
-8.44591e-06
1.77165e-05
-8.59674e-06
1.73555e-05
-8.75453e-06
1.69832e-05
-8.91881e-06
1.65982e-05
-9.08961e-06
1.61994e-05
-9.26727e-06
1.57857e-05
-9.45227e-06
1.53563e-05
-9.64519e-06
1.49106e-05
-9.84667e-06
1.44479e-05
-1.00575e-05
1.39675e-05
-1.02785e-05
1.34685e-05
-1.05109e-05
1.29498e-05
-1.07557e-05
1.24099e-05
-1.10146e-05
1.18472e-05
-1.12891e-05
1.12594e-05
-1.15815e-05
1.06441e-05
-1.18943e-05
9.99805e-06
-1.22303e-05
9.31719e-06
-1.25932e-05
8.59641e-06
-1.29874e-05
7.82917e-06
-1.34178e-05
7.0071e-06
-1.38909e-05
6.11932e-06
-1.44138e-05
5.15165e-06
-1.49967e-05
4.08542e-06
-1.56479e-05
2.89342e-06
-1.63894e-05
1.56969e-06
-1.71965e-05
-1.8353e-05
1.86081e-05
-7.84977e-06
1.82754e-05
-7.97048e-06
1.79306e-05
-8.10112e-06
1.75749e-05
-8.24101e-06
1.72081e-05
-8.38773e-06
1.68292e-05
-8.53993e-06
1.64374e-05
-8.69783e-06
1.60323e-05
-8.86211e-06
1.56133e-05
-9.03331e-06
1.518e-05
-9.21188e-06
1.47317e-05
-9.39836e-06
1.42676e-05
-9.59338e-06
1.37868e-05
-9.79771e-06
1.32881e-05
-1.00122e-05
1.27704e-05
-1.0238e-05
1.22322e-05
-1.04763e-05
1.16717e-05
-1.07286e-05
1.10867e-05
-1.09966e-05
1.04748e-05
-1.12823e-05
9.83265e-06
-1.15882e-05
9.15629e-06
-1.19169e-05
8.4407e-06
-1.22718e-05
7.67957e-06
-1.26567e-05
6.8649e-06
-1.30762e-05
5.98642e-06
-1.35353e-05
5.03104e-06
-1.40413e-05
3.98167e-06
-1.45985e-05
2.81613e-06
-1.52238e-05
1.51567e-06
-1.58961e-05
-1.68373e-05
1.84461e-05
-7.51779e-06
1.81044e-05
-7.62873e-06
1.77517e-05
-7.74847e-06
1.73886e-05
-7.8779e-06
1.7015e-05
-8.01407e-06
1.66301e-05
-8.15508e-06
1.62335e-05
-8.30119e-06
1.58245e-05
-8.45318e-06
1.54028e-05
-8.61152e-06
1.49674e-05
-8.77654e-06
1.45178e-05
-8.94869e-06
1.40529e-05
-9.12854e-06
1.3572e-05
-9.31675e-06
1.30738e-05
-9.51411e-06
1.25573e-05
-9.72148e-06
1.20208e-05
-9.9399e-06
1.14627e-05
-1.01705e-05
1.08809e-05
-1.04147e-05
1.02727e-05
-1.06741e-05
9.63493e-06
-1.09504e-05
8.96375e-06
-1.12457e-05
8.25431e-06
-1.15623e-05
7.50057e-06
-1.19029e-05
6.69502e-06
-1.22707e-05
5.82813e-06
-1.26684e-05
4.88795e-06
-1.31012e-05
3.85896e-06
-1.35695e-05
2.72188e-06
-1.40868e-05
1.45401e-06
-1.46282e-05
-1.53833e-05
1.82483e-05
-7.17701e-06
1.78988e-05
-7.27915e-06
1.75393e-05
-7.38905e-06
1.71702e-05
-7.50875e-06
1.67911e-05
-7.63497e-06
1.64014e-05
-7.76543e-06
1.60006e-05
-7.90036e-06
1.55881e-05
-8.04064e-06
1.51632e-05
-8.18669e-06
1.47255e-05
-8.33877e-06
1.4274e-05
-8.49725e-06
1.38081e-05
-8.66263e-06
1.33268e-05
-8.83545e-06
1.2829e-05
-9.01634e-06
1.23135e-05
-9.20599e-06
1.17788e-05
-9.4052e-06
1.12232e-05
-9.61486e-06
1.06444e-05
-9.836e-06
1.00401e-05
-1.00697e-05
9.40701e-06
-1.03174e-05
8.74153e-06
-1.05802e-05
8.03903e-06
-1.08598e-05
7.29388e-06
-1.11578e-05
6.49909e-06
-1.14759e-05
5.64598e-06
-1.18153e-05
4.7238e-06
-1.2179e-05
3.71863e-06
-1.25643e-05
2.6139e-06
-1.2982e-05
1.38669e-06
-1.3401e-05
-1.39966e-05
1.80139e-05
-6.82833e-06
1.76572e-05
-6.92244e-06
1.72914e-05
-7.02331e-06
1.69166e-05
-7.13388e-06
1.65322e-05
-7.25066e-06
1.61379e-05
-7.37112e-06
1.57331e-05
-7.49551e-06
1.53172e-05
-7.62472e-06
1.48896e-05
-7.75916e-06
1.44499e-05
-7.89899e-06
1.39971e-05
-8.0445e-06
1.35306e-05
-8.19608e-06
1.30493e-05
-8.35417e-06
1.25522e-05
-8.51926e-06
1.20381e-05
-8.69185e-06
1.15054e-05
-8.87254e-06
1.09525e-05
-9.06196e-06
1.03773e-05
-9.26081e-06
9.77739e-06
-9.46982e-06
9.14981e-06
-9.68977e-06
8.49102e-06
-9.92142e-06
7.79675e-06
-1.01656e-05
7.06179e-06
-1.04228e-05
6.2798e-06
-1.06939e-05
5.44295e-06
-1.09784e-05
4.54174e-06
-1.12778e-05
3.56393e-06
-1.15865e-05
2.49549e-06
-1.19136e-05
1.3153e-06
-1.22208e-05
-1.26813e-05
1.77427e-05
-6.47254e-06
1.73795e-05
-6.5593e-06
1.70081e-05
-6.65188e-06
1.66281e-05
-6.75388e-06
1.62392e-05
-6.86173e-06
1.58408e-05
-6.97278e-06
1.54325e-05
-7.08724e-06
1.50138e-05
-7.206e-06
1.45841e-05
-7.32943e-06
1.41428e-05
-7.45764e-06
1.3689e-05
-7.5908e-06
1.32222e-05
-7.72922e-06
1.27413e-05
-7.87324e-06
1.22452e-05
-8.0232e-06
1.17328e-05
-8.17945e-06
1.12026e-05
-8.34238e-06
1.0653e-05
-8.51237e-06
1.00821e-05
-8.68983e-06
9.48737e-06
-8.87513e-06
8.86622e-06
-9.06862e-06
8.21533e-06
-9.27053e-06
7.53075e-06
-9.481e-06
6.80777e-06
-9.69985e-06
6.04069e-06
-9.92684e-06
5.22263e-06
-1.01604e-05
4.34528e-06
-1.04004e-05
3.39819e-06
-1.06394e-05
2.36971e-06
-1.08851e-05
1.24155e-06
-1.10926e-05
-1.14398e-05
1.74355e-05
-6.11039e-06
1.70666e-05
-6.19042e-06
1.66902e-05
-6.27541e-06
1.63057e-05
-6.36937e-06
1.59127e-05
-6.4688e-06
1.55109e-05
-6.57097e-06
1.50998e-05
-6.67608e-06
1.46788e-05
-6.78499e-06
1.42473e-05
-6.89802e-06
1.38049e-05
-7.01521e-06
1.33508e-05
-7.13665e-06
1.28841e-05
-7.26258e-06
1.24041e-05
-7.39321e-06
1.19097e-05
-7.52876e-06
1.13996e-05
-7.66943e-06
1.08727e-05
-7.81541e-06
1.03272e-05
-7.96688e-06
9.76133e-06
-8.12397e-06
9.17293e-06
-8.28673e-06
8.55944e-06
-8.45513e-06
7.91787e-06
-8.62895e-06
7.24466e-06
-8.80778e-06
6.53559e-06
-8.99079e-06
5.78566e-06
-9.17691e-06
4.9889e-06
-9.36363e-06
4.13823e-06
-9.54974e-06
3.2249e-06
-9.72611e-06
2.23949e-06
-9.8997e-06
1.16695e-06
-1.00201e-05
-1.02728e-05
1.70941e-05
-5.74267e-06
1.67202e-05
-5.81656e-06
1.63394e-05
-5.8946e-06
1.59511e-05
-5.98105e-06
1.55549e-05
-6.07254e-06
1.51503e-05
-6.16639e-06
1.47369e-05
-6.26271e-06
1.43143e-05
-6.36235e-06
1.38818e-05
-6.46558e-06
1.3439e-05
-6.57237e-06
1.29851e-05
-6.68274e-06
1.25193e-05
-6.79684e-06
1.20409e-05
-6.9148e-06
1.15488e-05
-7.03669e-06
1.1042e-05
-7.1626e-06
1.05191e-05
-7.29253e-06
9.97872e-06
-7.42647e-06
9.41906e-06
-7.56431e-06
8.83817e-06