/*--------------------------------*- C++ -*----------------------------------*\
  =========                 |
  \\      /  F ield         | OpenFOAM: The Open Source CFD Toolbox
   \\    /   O peration     | Website:  https://openfoam.org
    \\  /    A nd           | Version:  11
     \\/     M anipulation  |
\*---------------------------------------------------------------------------*/
FoamFile
{
    format      ascii;
    class       volScalarField;
    location    "6.7";
    object      p;
}
// * * * * * * * * * * * * * * * * * * * * * * * * * * * * * * * * * * * * * //

dimensions      [0 2 -2 0 0 0 0];

internalField   nonuniform List<scalar> 
12600
(
1.19307
1.19294
1.19286
1.19282
1.19277
1.19271
1.19263
1.19254
1.19243
1.19229
1.19213
1.19193
1.19169
1.19141
1.19105
1.19062
1.1901
1.18945
1.18866
1.18769
1.1865
1.18505
1.18326
1.18105
1.17833
1.17496
1.17079
1.16559
1.15915
1.15106
1.193
1.19293
1.19286
1.19282
1.19277
1.19271
1.19263
1.19254
1.19243
1.1923
1.19214
1.19195
1.19171
1.19142
1.19107
1.19065
1.19013
1.1895
1.18872
1.18776
1.18658
1.18514
1.18338
1.1812
1.17851
1.17518
1.17105
1.16591
1.15951
1.15153
1.19297
1.19293
1.19288
1.19283
1.19278
1.19272
1.19265
1.19255
1.19245
1.19232
1.19216
1.19197
1.19174
1.19146
1.19112
1.1907
1.19019
1.18957
1.18881
1.18788
1.18673
1.18532
1.18359
1.18146
1.17883
1.17557
1.17152
1.16649
1.16018
1.15236
1.19295
1.19293
1.19288
1.19283
1.19279
1.19273
1.19266
1.19257
1.19246
1.19234
1.19219
1.192
1.19178
1.19151
1.19118
1.19078
1.19028
1.18968
1.18895
1.18805
1.18694
1.18558
1.18391
1.18185
1.17931
1.17615
1.17223
1.16735
1.1612
1.15358
1.19294
1.19293
1.19289
1.19284
1.1928
1.19274
1.19267
1.19259
1.19249
1.19237
1.19222
1.19205
1.19183
1.19157
1.19126
1.19087
1.19041
1.18983
1.18913
1.18827
1.18722
1.18592
1.18433
1.18236
1.17993
1.17691
1.17316
1.16847
1.16255
1.1552
1.19294
1.19293
1.1929
1.19286
1.19281
1.19276
1.19269
1.19261
1.19252
1.1924
1.19227
1.1921
1.1919
1.19165
1.19136
1.19099
1.19055
1.19001
1.18935
1.18854
1.18755
1.18633
1.18483
1.18298
1.18069
1.17784
1.17429
1.16986
1.16422
1.15721
1.19294
1.19293
1.19291
1.19287
1.19283
1.19278
1.19272
1.19264
1.19255
1.19245
1.19232
1.19216
1.19197
1.19175
1.19147
1.19113
1.19072
1.19022
1.18961
1.18886
1.18794
1.18681
1.18542
1.18371
1.18158
1.17894
1.17563
1.17149
1.1662
1.1596
1.19295
1.19294
1.19292
1.19288
1.19284
1.1928
1.19274
1.19267
1.19259
1.19249
1.19238
1.19223
1.19206
1.19185
1.1916
1.19129
1.19092
1.19046
1.18991
1.18922
1.18839
1.18736
1.18609
1.18453
1.18259
1.18018
1.17715
1.17336
1.16848
1.16237
1.19296
1.19295
1.19293
1.1929
1.19287
1.19282
1.19277
1.19271
1.19264
1.19255
1.19244
1.19231
1.19216
1.19197
1.19175
1.19147
1.19114
1.19073
1.19023
1.18962
1.18888
1.18796
1.18683
1.18544
1.18371
1.18156
1.17885
1.17544
1.17103
1.16548
1.19297
1.19296
1.19295
1.19292
1.19289
1.19285
1.1928
1.19275
1.19268
1.19261
1.19251
1.1924
1.19226
1.1921
1.1919
1.19166
1.19137
1.19102
1.19059
1.19006
1.18941
1.18862
1.18764
1.18643
1.18493
1.18306
1.1807
1.17772
1.17384
1.16892
1.19298
1.19298
1.19296
1.19294
1.19291
1.19288
1.19284
1.19279
1.19273
1.19267
1.19259
1.19249
1.19238
1.19224
1.19207
1.19187
1.19162
1.19133
1.19096
1.19052
1.18998
1.18932
1.1885
1.18749
1.18623
1.18466
1.18268
1.18016
1.17687
1.17266
1.193
1.19299
1.19298
1.19296
1.19294
1.19291
1.19288
1.19284
1.19279
1.19273
1.19267
1.19259
1.19249
1.19238
1.19225
1.19208
1.19189
1.19165
1.19136
1.19101
1.19058
1.19005
1.1894
1.1886
1.1876
1.18635
1.18477
1.18275
1.18008
1.17665
1.19302
1.19301
1.193
1.19299
1.19297
1.19294
1.19291
1.19288
1.19284
1.1928
1.19275
1.19269
1.19262
1.19253
1.19243
1.19231
1.19216
1.19199
1.19178
1.19152
1.1912
1.19082
1.19034
1.18975
1.18902
1.1881
1.18693
1.18544
1.18344
1.18083
1.19303
1.19303
1.19302
1.19301
1.19299
1.19298
1.19295
1.19293
1.1929
1.19287
1.19283
1.19279
1.19274
1.19269
1.19262
1.19254
1.19245
1.19233
1.1922
1.19204
1.19184
1.1916
1.1913
1.19093
1.19048
1.1899
1.18916
1.1882
1.18689
1.18515
1.19305
1.19305
1.19305
1.19304
1.19302
1.19301
1.19299
1.19298
1.19296
1.19294
1.19292
1.1929
1.19287
1.19284
1.19281
1.19277
1.19273
1.19269
1.19263
1.19256
1.19249
1.19239
1.19227
1.19213
1.19195
1.19171
1.1914
1.19098
1.19038
1.18953
1.19308
1.19307
1.19307
1.19306
1.19305
1.19304
1.19304
1.19303
1.19302
1.19301
1.19301
1.193
1.193
1.193
1.193
1.19301
1.19302
1.19304
1.19306
1.19309
1.19313
1.19319
1.19325
1.19333
1.19342
1.19352
1.19364
1.19376
1.19386
1.19389
1.1931
1.1931
1.19309
1.19309
1.19308
1.19308
1.19308
1.19308
1.19308
1.19308
1.19309
1.19311
1.19313
1.19316
1.19319
1.19324
1.19331
1.19339
1.19349
1.19362
1.19378
1.19397
1.19421
1.19451
1.19487
1.19531
1.19585
1.19649
1.19727
1.19817
1.19312
1.19312
1.19312
1.19311
1.19311
1.19311
1.19312
1.19312
1.19314
1.19315
1.19318
1.19321
1.19325
1.19331
1.19338
1.19347
1.19359
1.19373
1.19391
1.19413
1.19441
1.19474
1.19516
1.19566
1.19629
1.19705
1.19798
1.19913
1.20055
1.20227
1.19314
1.19314
1.19314
1.19314
1.19314
1.19315
1.19316
1.19317
1.19319
1.19322
1.19326
1.19331
1.19338
1.19346
1.19357
1.1937
1.19386
1.19407
1.19432
1.19463
1.19502
1.19549
1.19607
1.19678
1.19765
1.19872
1.20003
1.20165
1.20367
1.20614
1.19316
1.19316
1.19316
1.19317
1.19317
1.19318
1.19319
1.19322
1.19325
1.19329
1.19334
1.19341
1.19349
1.1936
1.19374
1.19391
1.19412
1.19439
1.19471
1.19511
1.1956
1.1962
1.19694
1.19784
1.19895
1.2003
1.20197
1.20402
1.20657
1.20971
1.19319
1.19319
1.19319
1.19319
1.1932
1.19321
1.19323
1.19326
1.1933
1.19335
1.19341
1.1935
1.19361
1.19374
1.19391
1.19411
1.19437
1.19469
1.19508
1.19556
1.19615
1.19687
1.19776
1.19884
1.20017
1.20179
1.20377
1.2062
1.20923
1.21294
1.19321
1.19321
1.19321
1.19321
1.19322
1.19324
1.19326
1.1933
1.19335
1.19341
1.19349
1.19358
1.19371
1.19387
1.19406
1.1943
1.1946
1.19497
1.19543
1.19598
1.19667
1.1975
1.19852
1.19977
1.2013
1.20315
1.20542
1.20819
1.21162
1.21579
1.19323
1.19323
1.19323
1.19323
1.19325
1.19327
1.1933
1.19334
1.19339
1.19346
1.19355
1.19366
1.19381
1.19398
1.19421
1.19448
1.19482
1.19523
1.19574
1.19637
1.19714
1.19808
1.19922
1.20062
1.20232
1.20439
1.20691
1.20997
1.21373
1.21827
1.19325
1.19325
1.19325
1.19325
1.19327
1.19329
1.19332
1.19337
1.19343
1.19351
1.19361
1.19373
1.19389
1.19409
1.19433
1.19464
1.19501
1.19547
1.19603
1.19672
1.19756
1.19859
1.19985
1.20138
1.20324
1.20549
1.20823
1.21153
1.21555
1.22038
1.19328
1.19328
1.19327
1.19327
1.19329
1.19331
1.19335
1.1934
1.19347
1.19355
1.19366
1.1938
1.19397
1.19418
1.19445
1.19477
1.19518
1.19567
1.19628
1.19702
1.19793
1.19904
1.2004
1.20204
1.20404
1.20645
1.20937
1.21287
1.2171
1.22213
1.1933
1.1933
1.19329
1.19329
1.1933
1.19333
1.19337
1.19342
1.1935
1.19359
1.1937
1.19385
1.19403
1.19426
1.19454
1.19489
1.19532
1.19585
1.19649
1.19728
1.19825
1.19943
1.20086
1.2026
1.20471
1.20726
1.21032
1.21399
1.21838
1.22355
1.19333
1.19332
1.1933
1.1933
1.19332
1.19335
1.19339
1.19344
1.19352
1.19362
1.19374
1.19389
1.19409
1.19433
1.19462
1.19499
1.19544
1.19599
1.19667
1.1975
1.19851
1.19974
1.20124
1.20306
1.20526
1.20791
1.21109
1.21489
1.21941
1.22469
1.19336
1.19334
1.19331
1.19331
1.19333
1.19336
1.1934
1.19346
1.19354
1.19364
1.19377
1.19393
1.19413
1.19438
1.19469
1.19506
1.19553
1.1961
1.1968
1.19766
1.1987
1.19998
1.20153
1.20341
1.20568
1.20841
1.21168
1.21557
1.22019
1.22558
1.1934
1.19334
1.19331
1.19331
1.19334
1.19337
1.19341
1.19347
1.19355
1.19366
1.19379
1.19395
1.19416
1.19441
1.19473
1.19511
1.19559
1.19618
1.19689
1.19777
1.19884
1.20014
1.20173
1.20365
1.20597
1.20876
1.21208
1.21603
1.22073
1.22622
1.19348
1.19335
1.19331
1.19332
1.19334
1.19337
1.19342
1.19348
1.19356
1.19366
1.1938
1.19396
1.19417
1.19443
1.19475
1.19514
1.19563
1.19622
1.19694
1.19783
1.19891
1.20023
1.20184
1.20378
1.20613
1.20894
1.2123
1.21628
1.22099
1.22649
1.14391
1.14109
1.13876
1.13675
1.13466
1.13237
1.12997
1.1275
1.12497
1.12238
1.1197
1.11694
1.11406
1.11105
1.10787
1.10448
1.10081
1.09681
1.09238
1.0874
1.08174
1.0752
1.06751
1.05833
1.04719
1.0333
1.01623
0.99157
0.970969
0.90721
1.14535
1.14292
1.14076
1.13879
1.13675
1.13459
1.13239
1.13017
1.12791
1.12561
1.12325
1.1208
1.11826
1.1156
1.11279
1.10979
1.10654
1.10301
1.09909
1.09471
1.08973
1.08398
1.07724
1.06921
1.05948
1.04741
1.0325
1.0118
0.991946
0.939499
1.14597
1.144
1.14222
1.14045
1.13861
1.13671
1.1348
1.13287
1.1309
1.12889
1.12682
1.12468
1.12247
1.12015
1.1177
1.1151
1.11229
1.10923
1.10586
1.10209
1.09782
1.0929
1.08713
1.08028
1.07199
1.06175
1.04904
1.03183
1.01386
0.971331
1.14728
1.14574
1.14432
1.14276
1.14111
1.13944
1.13778
1.13611
1.1344
1.13267
1.13089
1.12907
1.12718
1.12522
1.12315
1.12095
1.11859
1.11603
1.11322
1.11007
1.10652
1.10242
1.09764
1.09197
1.08509
1.07663
1.06605
1.052
1.03641
1.00257
1.14906
1.14783
1.1467
1.14534
1.14389
1.14247
1.14108
1.13967
1.13824
1.1368
1.13532
1.13382
1.13227
1.13066
1.12898
1.1272
1.1253
1.12325
1.121
1.11849
1.11566
1.11242
1.10862
1.10411
1.09863
1.0919
1.08339
1.07226
1.05921
1.03301
1.15129
1.15034
1.14948
1.14835
1.14713
1.14595
1.14482
1.14368
1.14252
1.14136
1.14019
1.13901
1.1378
1.13655
1.13526
1.13391
1.13248
1.13094
1.12926
1.1274
1.1253
1.12289
1.12006
1.11669
1.11257
1.10748
1.10094
1.0925
1.08199
1.06241
1.15395
1.15327
1.15268
1.15177
1.15077
1.14984
1.14896
1.14808
1.1472
1.14633
1.14547
1.14461
1.14374
1.14286
1.14197
1.14105
1.14009
1.13906
1.13796
1.13674
1.13536
1.13377
1.1319
1.12963
1.12681
1.12327
1.11859
1.11258
1.10451
1.09059
1.15705
1.15663
1.15629
1.1556
1.15482
1.15413
1.15351
1.1529
1.1523
1.15171
1.15116
1.15062
1.1501
1.14959
1.14909
1.1486
1.14811
1.1476
1.14706
1.14647
1.1458
1.14501
1.14404
1.14282
1.14122
1.13913
1.13617
1.13233
1.12655
1.11738
1.16057
1.16039
1.16029
1.15983
1.15928
1.15883
1.15845
1.15811
1.15778
1.15748
1.15723
1.15701
1.15683
1.15669
1.15659
1.15652
1.15649
1.15648
1.1565
1.15652
1.15653
1.1565
1.1564
1.15616
1.1557
1.15492
1.15352
1.15158
1.14787
1.14261
1.1645
1.16455
1.16468
1.16444
1.16411
1.16389
1.16376
1.16368
1.16362
1.16361
1.16365
1.16375
1.16391
1.16413
1.16441
1.16475
1.16517
1.16565
1.16619
1.1668
1.16745
1.16814
1.16884
1.16951
1.17007
1.17047
1.17046
1.17014
1.16829
1.16613
1.1688
1.16907
1.16941
1.16938
1.16927
1.16928
1.1694
1.16956
1.16977
1.17003
1.17037
1.17077
1.17126
1.17182
1.17247
1.17322
1.17406
1.175
1.17605
1.1772
1.17845
1.1798
1.18123
1.18271
1.18419
1.18562
1.1868
1.18784
1.18759
1.1878
1.17343
1.1739
1.17443
1.17461
1.17471
1.17495
1.1753
1.1757
1.17616
1.17669
1.1773
1.17801
1.1788
1.1797
1.1807
1.18182
1.18306
1.18443
1.18594
1.18759
1.18939
1.19133
1.19341
1.1956
1.19787
1.20019
1.20237
1.20452
1.2056
1.20755
1.17833
1.17897
1.17968
1.18005
1.18036
1.18081
1.18138
1.18201
1.18271
1.18349
1.18437
1.18535
1.18644
1.18764
1.18897
1.19043
1.19204
1.19381
1.19573
1.19784
1.20012
1.20258
1.20522
1.20802
1.21096
1.214
1.21701
1.22003
1.22219
1.22533
1.18341
1.18421
1.18507
1.18562
1.18613
1.18678
1.18756
1.18841
1.18933
1.19034
1.19146
1.1927
1.19405
1.19553
1.19716
1.19893
1.20087
1.20298
1.20528
1.20777
1.21047
1.21338
1.21649
1.2198
1.22328
1.2269
1.23054
1.23424
1.23723
1.24114
1.18859
1.18952
1.19051
1.19123
1.19193
1.19276
1.19372
1.19477
1.19589
1.19712
1.19846
1.19992
1.20151
1.20325
1.20513
1.20718
1.20941
1.21182
1.21443
1.21725
1.2203
1.22357
1.22706
1.23077
1.23467
1.23872
1.24282
1.24697
1.25055
1.25489
1.19375
1.1948
1.1959
1.19677
1.19764
1.19864
1.19977
1.20099
1.20229
1.2037
1.20524
1.2069
1.2087
1.21065
1.21276
1.21504
1.2175
1.22016
1.22304
1.22613
1.22945
1.233
1.23678
1.24078
1.24498
1.24932
1.25372
1.25811
1.26201
1.26643
1.19881
1.19995
1.20113
1.20214
1.20316
1.2043
1.20558
1.20694
1.2084
1.20998
1.21167
1.21351
1.21548
1.21761
1.2199
1.22237
1.22502
1.22788
1.23096
1.23425
1.23778
1.24154
1.24553
1.24973
1.25411
1.25862
1.26317
1.26764
1.27164
1.27579
1.20364
1.20485
1.20611
1.20723
1.20837
1.20965
1.21104
1.21253
1.21412
1.21582
1.21766
1.21962
1.22173
1.224
1.22644
1.22905
1.23186
1.23486
1.23808
1.24152
1.24519
1.24908
1.2532
1.25751
1.26199
1.26656
1.27114
1.27557
1.27955
1.28333
1.20816
1.20943
1.21073
1.21195
1.2132
1.21457
1.21606
1.21765
1.21934
1.22115
1.22308
1.22515
1.22737
1.22974
1.23228
1.235
1.2379
1.24101
1.24432
1.24785
1.2516
1.25556
1.25973
1.26407
1.26855
1.2731
1.27761
1.28191
1.28575
1.28903
1.21229
1.21359
1.21493
1.21622
1.21756
1.21901
1.22058
1.22224
1.224
1.22588
1.22789
1.23003
1.23232
1.23476
1.23736
1.24014
1.2431
1.24626
1.24962
1.25318
1.25695
1.26092
1.26507
1.26938
1.2738
1.27823
1.28258
1.28664
1.29017
1.2928
1.21597
1.2173
1.21865
1.22
1.2214
1.22291
1.22452
1.22623
1.22805
1.22997
1.23202
1.23421
1.23653
1.239
1.24164
1.24444
1.24742
1.25059
1.25394
1.25749
1.26123
1.26516
1.26924
1.27344
1.27771
1.28196
1.28604
1.28974
1.29283
1.29481
1.21916
1.22051
1.22187
1.22325
1.2247
1.22625
1.22789
1.22962
1.23146
1.23341
1.23548
1.23767
1.24
1.24248
1.24511
1.2479
1.25086
1.254
1.25731
1.26081
1.26447
1.2683
1.27225
1.27629
1.28035
1.28432
1.28806
1.29131
1.29386
1.29501
1.22187
1.22322
1.22459
1.22599
1.22746
1.22902
1.23067
1.23242
1.23426
1.2362
1.23826
1.24045
1.24276
1.24521
1.24781
1.25056
1.25346
1.25654
1.25977
1.26317
1.26672
1.2704
1.27418
1.278
1.28179
1.28542
1.28875
1.29144
1.29342
1.29324
1.22411
1.22546
1.22682
1.22823
1.22971
1.23127
1.23292
1.23465
1.23647
1.23839
1.24043
1.24257
1.24484
1.24724
1.24978
1.25246
1.25528
1.25826
1.26138
1.26465
1.26804
1.27154
1.2751
1.27866
1.28213
1.28536
1.28821
1.29027
1.29166
1.28992
1.22592
1.22727
1.22862
1.23002
1.23149
1.23304
1.23467
1.23637
1.23816
1.24005
1.24204
1.24414
1.24635
1.24867
1.25113
1.25372
1.25643
1.25929
1.26227
1.26537
1.26857
1.27184
1.27514
1.27839
1.28149
1.28427
1.28659
1.28791
1.28866
1.28547
1.22737
1.22871
1.23005
1.23143
1.23288
1.2344
1.23598
1.23765
1.23939
1.24122
1.24315
1.24518
1.24731
1.24955
1.2519
1.25437
1.25696
1.25967
1.26249
1.2654
1.26838
1.27141
1.27441
1.27731
1.27999
1.28226
1.28398
1.28446
1.28446
1.27937
1.22853
1.22986
1.23116
1.23251
1.23393
1.23543
1.23698
1.2386
1.2403
1.24208
1.24394
1.24588
1.24792
1.25006
1.2523
1.25464
1.25708
1.25962
1.26224
1.26493
1.26767
1.2704
1.27307
1.27557
1.27778
1.27947
1.28051
1.28
1.27912
1.27169
1.22953
1.23082
1.23203
1.2333
1.23467
1.2361
1.23758
1.23914
1.24077
1.24249
1.24429
1.24615
1.2481
1.25012
1.25224
1.25443
1.25671
1.25906
1.26148
1.26394
1.2664
1.26882
1.27113
1.2732
1.2749
1.27594
1.27623
1.27461
1.27278
1.26265
1.23064
1.23179
1.23282
1.23405
1.23543
1.23686
1.23832
1.23981
1.24136
1.24299
1.24469
1.24647
1.24833
1.25026
1.25226
1.25432
1.25641
1.25855
1.26073
1.26291
1.26506
1.26712
1.26899
1.27055
1.27165
1.27194
1.27138
1.26841
1.26573
1.25233
1.23184
1.23241
1.233
1.23406
1.23539
1.23678
1.23819
1.23963
1.24113
1.24268
1.24429
1.24596
1.24769
1.24947
1.25131
1.2532
1.25514
1.2571
1.25906
1.261
1.26286
1.26458
1.26606
1.26713
1.26764
1.26716
1.26582
1.26112
1.25819
1.24052
1.22788
1.21398
1.19785
1.18035
1.16181
1.1419
1.12057
1.09839
1.07633
1.05534
1.03709
1.02139
1.00926
1.00392
1.00546
1.00961
1.01446
1.01937
1.02279
1.02579
1.02876
1.0316
1.03329
1.0332
1.03255
1.03006
1.02193
1.01029
0.997681
0.982961
1.25072
1.2391
1.22499
1.20975
1.19323
1.17522
1.15522
1.13349
1.11047
1.08662
1.06364
1.04217
1.02259
1.00946
1.00652
1.01002
1.01549
1.02041
1.02381
1.02697
1.02997
1.03207
1.03295
1.03275
1.03287
1.02864
1.01561
0.996324
0.977663
0.959401
1.25338
1.24315
1.23107
1.21696
1.20098
1.18297
1.16292
1.14137
1.11854
1.09506
1.07165
1.04971
1.02935
1.01453
1.00948
1.01138
1.01623
1.02092
1.02416
1.02759
1.03037
1.03188
1.03351
1.03552
1.0355
1.02526
0.996648
0.96239
0.938405
0.927128
1.2607
1.25276
1.2419
1.22951
1.21524
1.19832
1.17879
1.15698
1.13315
1.10809
1.08296
1.05924
1.03764
1.02128
1.01408
1.01411
1.01757
1.02144
1.02438
1.0283
1.03079
1.0324
1.03702
1.04188
1.03777
1.01196
0.961246
0.911865
0.890447
0.902463
1.26299
1.25636
1.2478
1.23731
1.22472
1.20949
1.19136
1.17042
1.14692
1.12146
1.09519
1.06975
1.04647
1.02822
1.01899
1.01747
1.01962
1.02262
1.02505
1.0291
1.03126
1.03425
1.04332
1.04876
1.03313
0.982299
0.912723
0.859789
0.852457
0.896165
1.26459
1.25962
1.25262
1.24358
1.23229
1.21829
1.20122
1.18103
1.15792
1.13237
1.10541
1.07873
1.05405
1.03417
1.0231
1.0203
1.0217
1.02414
1.02633
1.03005
1.03205
1.03772
1.05006
1.05055
1.01724
0.942876
0.866397
0.827507
0.841488
0.910867
1.26492
1.26128
1.25577
1.24825
1.23843
1.22583
1.20999
1.19066
1.16795
1.1423
1.1147
1.08688
1.06085
1.03949
1.02678
1.02272
1.02344
1.02556
1.02765
1.03087
1.03353
1.04179
1.05286
1.04437
0.990866
0.904208
0.83557
0.818853
0.856498
0.94639
1.26454
1.2621
1.25793
1.25177
1.24331
1.2321
1.21758
1.19934
1.17729
1.15176
1.12368
1.0948
1.06742
1.04457
1.03027
1.02498
1.02498
1.02675
1.02878
1.03164
1.03533
1.04429
1.04978
1.02934
0.959866
0.872036
0.821243
0.829672
0.891926
0.99073
1.26363
1.26223
1.25926
1.25432
1.24712
1.23723
1.22402
1.20692
1.18569
1.1605
1.13217
1.10242
1.07375
1.04943
1.03358
1.02708
1.02638
1.02778
1.0297
1.03242
1.0365
1.04329
1.04067
1.00616
0.929029
0.849768
0.820681
0.853816
0.937193
1.03745
1.26239
1.26187
1.25996
1.25611
1.25008
1.24144
1.2295
1.21356
1.19323
1.16851
1.14009
1.10963
1.07978
1.05403
1.03669
1.02901
1.02764
1.02871
1.03046
1.03317
1.03653
1.03887
1.02687
0.980128
0.901366
0.83536
0.830593
0.888996
0.987514
1.07346
1.26091
1.26116
1.26015
1.2573
1.25233
1.24487
1.23416
1.21941
1.20004
1.17589
1.14751
1.11647
1.08552
1.05841
1.03963
1.03081
1.02879
1.02954
1.03112
1.0335
1.03539
1.03232
1.01103
0.956042
0.880225
0.833372
0.854907
0.934941
1.03001
1.08634
1.2593
1.2602
1.25997
1.25794
1.25401
1.24765
1.23812
1.22454
1.20618
1.18271
1.15449
1.12299
1.09103
1.0626
1.04242
1.03249
1.02983
1.03028
1.03165
1.0334
1.03326
1.02492
0.996222
0.938229
0.873999
0.852261
0.892681
0.978105
1.05194
1.07405
1.25762
1.25907
1.25952
1.25827
1.25521
1.24986
1.24146
1.22904
1.21172
1.189
1.16104
1.12919
1.0963
1.06659
1.04505
1.03405
1.03078
1.03092
1.03201
1.03292
1.03044
1.01742
0.98406
0.929518
0.881702
0.878106
0.930451
1.0048
1.0528
1.04418
1.25589
1.25781
1.25886
1.25829
1.25602
1.25161
1.24427
1.23296
1.2167
1.19478
1.16719
1.13508
1.10134
1.07039
1.04753
1.03549
1.03164
1.03148
1.03221
1.03213
1.02718
1.01022
0.974652
0.926262
0.892937
0.901809
0.95756
1.01559
1.04053
1.01033
1.25415
1.25647
1.25802
1.25807
1.25653
1.25297
1.24662
1.2364
1.22118
1.20012
1.17296
1.14069
1.10617
1.07402
1.04987
1.03681
1.0324
1.03194
1.03226
1.03106
1.0237
1.0036
0.967421
0.925547
0.903884
0.92224
0.974018
1.01562
1.02061
0.978305
1.25241
1.25506
1.25707
1.25765
1.25678
1.254
1.24858
1.23938
1.22522
1.20503
1.17837
1.14603
1.11079
1.07748
1.05206
1.03802
1.03308
1.03232
1.03217
1.02978
1.02018
0.997658
0.962061
0.926394
0.913325
0.93784
0.982
1.0089
0.997953
0.949581
1.2507
1.25362
1.25602
1.25709
1.25678
1.25477
1.25019
1.24198
1.22884
1.20956
1.18346
1.15112
1.11521
1.08077
1.05411
1.03912
1.03367
1.03261
1.03196
1.02837
1.01673
0.992508
0.958314
0.928102
0.921187
0.948518
0.984027
0.997416
0.975185
0.926931
1.24902
1.25216
1.25489
1.25641
1.25665
1.25529
1.25152
1.24424
1.2321
1.21373
1.18824
1.15596
1.11945
1.08391
1.05603
1.04011
1.03418
1.03283
1.03165
1.02689
1.01345
0.988198
0.955719
0.929927
0.927881
0.954434
0.981199
0.983442
0.954174
0.911595
1.24736
1.25069
1.2537
1.25563
1.25637
1.25562
1.25258
1.24619
1.23503
1.21758
1.19273
1.16057
1.12352
1.0869
1.05782
1.04101
1.03462
1.03298
1.03127
1.02538
1.01041
0.98459
0.953677
0.930939
0.932875
0.956678
0.975472
0.970052
0.938413
0.902748
1.24573
1.24922
1.25247
1.25476
1.25597
1.25578
1.25343
1.24788
1.23765
1.22112
1.19695
1.16496
1.12741
1.08975
1.05948
1.0418
1.03499
1.03307
1.03085
1.0239
1.00764
0.981529
0.951926
0.931228
0.935849
0.956077
0.968182
0.958559
0.927978
0.898797
1.24414
1.24775
1.25121
1.25381
1.25546
1.2558
1.25409
1.24933
1.24001
1.22439
1.20092
1.16915
1.13114
1.09245
1.06102
1.0425
1.0353
1.03312
1.03039
1.02248
1.00514
0.978808
0.950084
0.931163
0.936658
0.953407
0.960976
0.949337
0.92218
0.89887
1.24261
1.24629
1.24993
1.25282
1.25485
1.25568
1.25459
1.25057
1.24212
1.2274
1.20466
1.17315
1.13472
1.09502
1.06243
1.04312
1.03555
1.03313
1.02993
1.02114
1.00288
0.976337
0.947659
0.930547
0.935865
0.949757
0.955252
0.942472
0.920994
0.902213
1.24113
1.24483
1.24862
1.25177
1.25416
1.25543
1.25494
1.25162
1.24402
1.23019
1.20818
1.17697
1.13816
1.09746
1.06373
1.04364
1.03574
1.0331
1.02948
1.0199
1.00073
0.973906
0.944652
0.929215
0.933612
0.94581
0.951054
0.938293
0.923224
0.907747
1.23971
1.24341
1.24731
1.25069
1.25342
1.25511
1.25516
1.25251
1.24571
1.23275
1.2115
1.18062
1.14145
1.09977
1.06491
1.04408
1.03589
1.03307
1.02906
1.0188
0.99884
0.97134
0.941425
0.926616
0.930338
0.942682
0.94824
0.93761
0.926287
0.915462
1.23835
1.24203
1.24598
1.24957
1.25261
1.25471
1.25525
1.25326
1.24724
1.23513
1.21463
1.18411
1.14461
1.10195
1.06597
1.04442
1.03598
1.03299
1.02862
1.01762
0.997003
0.968388
0.937887
0.922627
0.926823
0.941176
0.947065
0.939912
0.929837
0.923246
1.23708
1.24069
1.24467
1.24843
1.25174
1.25423
1.25524
1.25385
1.24858
1.23732
1.2176
1.18746
1.14766
1.10404
1.06696
1.04476
1.03613
1.03304
1.0284
1.01677
0.995116
0.964943
0.93418
0.917729
0.923648
0.941048
0.948032
0.942754
0.933474
0.928784
1.23593
1.23942
1.24339
1.24726
1.2508
1.25367
1.25517
1.25437
1.24981
1.23934
1.22035
1.19061
1.15052
1.10592
1.06767
1.04475
1.03591
1.03275
1.0279
1.01596
0.993237
0.961652
0.930596
0.91374
0.92248
0.942569
0.950561
0.944965
0.935126
0.93187
1.23491
1.23821
1.24216
1.24615
1.24981
1.25289
1.25489
1.25472
1.2509
1.2413
1.22313
1.19383
1.15354
1.10812
1.06889
1.04536
1.03631
1.03296
1.02775
1.01533
0.991439
0.957777
0.926697
0.913101
0.925031
0.945919
0.951844
0.943092
0.934209
0.9334
1.23403
1.23703
1.24096
1.24517
1.24916
1.25248
1.25469
1.25498
1.25169
1.24273
1.22515
1.19603
1.15533
1.1089
1.06864
1.04473
1.03586
1.0327
1.0275
1.01407
0.988393
0.952567
0.921776
0.912773
0.929432
0.949517
0.951964
0.942714
0.935054
0.934335
1.23331
1.23568
1.23916
1.2433
1.24758
1.25136
1.25426
1.25524
1.25292
1.24516
1.22879
1.20062
1.15977
1.1122
1.07041
1.04526
1.03592
1.03264
1.02703
1.01121
0.982449
0.947729
0.920922
0.9167
0.935401
0.952153
0.950159
0.93829
0.932131
0.932214
0.673972
0.669958
0.651296
0.644619
0.663014
0.718377
0.783616
0.840324
0.886104
0.922019
0.949654
0.971119
0.987909
1.00111
1.01159
1.02012
1.02729
1.03356
1.03928
1.04471
1.05007
1.05547
1.06102
1.06666
1.07282
1.07889
1.0863
1.09296
1.10303
1.1073
0.641774
0.626749
0.607203
0.607137
0.631575
0.683052
0.754118
0.822266
0.876297
0.917253
0.947899
0.971418
0.989625
1.00364
1.01447
1.02303
1.03001
1.03592
1.04118
1.04606
1.05082
1.05557
1.0605
1.06558
1.07101
1.07628
1.08229
1.08754
1.09447
1.09906
0.604122
0.581448
0.566488
0.57059
0.596524
0.642251
0.713813
0.792165
0.857426
0.906952
0.942867
0.969757
0.990253
1.00581
1.01758
1.02656
1.03356
1.0392
1.04398
1.04827
1.05235
1.0564
1.06061
1.065
1.06962
1.07438
1.07963
1.08482
1.09076
1.09696
0.572777
0.549376
0.537623
0.54035
0.563925
0.605672
0.67507
0.761125
0.840089
0.89942
0.942011
0.972787
0.995476
1.01233
1.02479
1.03398
1.0408
1.04596
1.05006
1.05356
1.05679
1.06002
1.0634
1.06705
1.07108
1.07553
1.08038
1.08552
1.09103
1.09672
0.558929
0.535649
0.52335
0.523007
0.542211
0.578628
0.642397
0.730637
0.819376
0.890529
0.941712
0.977546
1.00289
1.02104
1.03409
1.04339
1.04995
1.05456
1.05786
1.0604
1.06258
1.06473
1.06706
1.06973
1.07284
1.07642
1.08047
1.08499
1.08992
1.09505
0.563275
0.537265
0.521201
0.517785
0.53141
0.561293
0.617519
0.701778
0.795239
0.876938
0.938421
0.981467
1.0109
1.03103
1.04486
1.05429
1.06057
1.0646
1.06706
1.06855
1.06953
1.07039
1.07141
1.0728
1.07469
1.07717
1.08025
1.08393
1.0882
1.09282
0.58608
0.553568
0.530798
0.521663
0.528833
0.552564
0.601802
0.679275
0.772016
0.860447
0.931913
0.983799
1.01921
1.04265
1.0579
1.0676
1.0735
1.07675
1.0782
1.07848
1.07811
1.07751
1.07701
1.07688
1.0773
1.07842
1.08031
1.08297
1.08641
1.0904
0.626224
0.586199
0.55461
0.536269
0.535147
0.552698
0.595137
0.665552
0.753497
0.843737
0.922344
0.983053
1.0261
1.05478
1.0729
1.08366
1.08939
1.09173
1.09185
1.09058
1.08854
1.0862
1.08394
1.08203
1.08069
1.0801
1.0804
1.08166
1.08397
1.08721
0.679783
0.633769
0.593688
0.565067
0.554297
0.563639
0.597838
0.658918
0.739642
0.827237
0.908503
0.97596
1.02712
1.06305
1.08647
1.10037
1.1073
1.10937
1.10823
1.10508
1.10083
1.09617
1.09161
1.08752
1.08408
1.08148
1.07975
1.07906
1.07969
1.08148
0.735577
0.689534
0.644436
0.607414
0.586921
0.586516
0.610025
0.658979
0.728506
0.808461
0.88768
0.958124
1.01576
1.05963
1.09064
1.11068
1.12181
1.1261
1.12536
1.12116
1.11484
1.10747
1.0999
1.09272
1.08666
1.08159
1.07714
1.07379
1.07192
1.07127
0.782535
0.742747
0.697212
0.655774
0.627328
0.616729
0.627663
0.661673
0.71599
0.783676
0.856072
0.925516
0.986613
1.03668
1.07516
1.10281
1.12091
1.1308
1.1339
1.13171
1.12559
1.117
1.10713
1.09694
1.08745
1.07904
1.07176
1.06575
1.06085
1.05797
0.816062
0.783787
0.742037
0.699922
0.665865
0.645637
0.643306
0.66088
0.697407
0.748896
0.809439
0.872827
0.933659
0.987997
1.03357
1.06946
1.09565
1.11277
1.12193
1.12528
1.1232
1.11719
1.10822
1.09752
1.08632
1.07546
1.0654
1.05696
1.04934
1.0439
0.832612
0.80872
0.772976
0.732799
0.695363
0.666813
0.651699
0.652827
0.670771
0.703712
0.748044
0.799449
0.853626
0.906736
0.955834
0.998908
1.03464
1.06253
1.08279
1.09481
1.10004
1.09955
1.09481
1.08691
1.07758
1.06747
1.05737
1.04772
1.03891
1.03139
0.833677
0.819231
0.789654
0.752623
0.713447
0.678077
0.651342
0.63657
0.635152
0.647197
0.671469
0.7055
0.746461
0.791317
0.837211
0.881975
0.923912
0.961204
0.993137
1.01901
1.0381
1.05008
1.05562
1.05574
1.05195
1.04576
1.03796
1.03039
1.02294
1.01608
0.824918
0.818901
0.794599
0.760791
0.720456
0.67898
0.640931
0.609941
0.588676
0.579585
0.582172
0.594237
0.615685
0.645394
0.680693
0.72
0.761611
0.803464
0.843944
0.882337
0.917364
0.947288
0.970745
0.98736
0.997581
1.00226
1.00279
1.00083
0.997679
0.994134
0.810953
0.812529
0.791999
0.760785
0.719112
0.671813
0.623109
0.577072
0.537147
0.506421
0.485859
0.475419
0.476289
0.488615
0.510572
0.539682
0.573335
0.611546
0.65378
0.698195
0.743863
0.788838
0.830334
0.867012
0.897885
0.92243
0.940206
0.951644
0.958146
0.961669
0.801257
0.807425
0.788056
0.758338
0.714827
0.662042
0.603492
0.543878
0.487199
0.436997
0.395708
0.364873
0.345523
0.338009
0.342098
0.357098
0.381842
0.414795
0.454455
0.500179
0.549543
0.599023
0.650426
0.703114
0.75319
0.800221
0.840684
0.872733
0.896453
0.913815
0.805838
0.811023
0.790304
0.760424
0.714224
0.655876
0.588344
0.516672
0.444928
0.377193
0.316508
0.265248
0.225245
0.197811
0.183829
0.183581
0.196791
0.222472
0.256794
0.300352
0.350997
0.406489
0.465381
0.526858
0.589958
0.649424
0.706486
0.761273
0.807324
0.844756
0.832487
0.828075
0.803648
0.772351
0.723555
0.660605
0.585962
0.50358
0.418536
0.334956
0.255959
0.184267
0.122497
0.0730195
0.0377875
0.0181835
0.0149672
0.0277308
0.0556321
0.0975343
0.151137
0.213453
0.281448
0.352509
0.42459
0.496406
0.568055
0.637785
0.701258
0.758421
0.876128
0.861004
0.830997
0.797104
0.746812
0.681047
0.600917
0.510778
0.415365
0.318786
0.22422
0.134427
0.0527024
-0.0175054
-0.072895
-0.11089
-0.13027
-0.131124
-0.11327
-0.0774521
-0.0246894
0.042301
0.11956
0.2022
0.285841
0.368089
0.448609
0.527576
0.603311
0.675416
0.922555
0.904356
0.870196
0.834004
0.784209
0.717865
0.635343
0.541155
0.439481
0.334417
0.229218
0.127071
0.0318206
-0.0522402
-0.121047
-0.171517
-0.202269
-0.212858
-0.203779
-0.175623
-0.12868
-0.0642385
0.0149425
0.103165
0.194619
0.284742
0.37144
0.455324
0.53599
0.614898
0.949967
0.941224
0.912785
0.877864
0.831833
0.769654
0.690926
0.598153
0.495708
0.387328
0.277341
0.169131
0.0665886
-0.0257446
-0.103647
-0.163894
-0.204415
-0.223946
-0.222518
-0.200924
-0.159916
-0.100512
-0.0241021
0.0649178
0.159637
0.253539
0.342979
0.428096
0.508935
0.589161
0.955416
0.955107
0.944936
0.920971
0.883367
0.830785
0.76191
0.677362
0.579962
0.474397
0.365492
0.257247
0.153661
0.0592053
-0.0218212
-0.0860203
-0.131048
-0.155534
-0.159159
-0.142354
-0.106172
-0.0514981
0.0205421
0.105691
0.19678
0.28704
0.372731
0.453892
0.530126
0.606066
0.956292
0.957495
0.963234
0.956305
0.932326
0.893615
0.839192
0.76828
0.682601
0.586116
0.483751
0.380335
0.280455
0.188701
0.109398
0.046044
0.00102292
-0.0242575
-0.0293935
-0.0144505
0.0198321
0.0721691
0.139809
0.217872
0.299615
0.379434
0.454992
0.526857
0.594515
0.661228
0.960369
0.963797
0.974027
0.979393
0.972528
0.952687
0.917382
0.864524
0.79505
0.712382
0.621329
0.527194
0.435241
0.350428
0.277127
0.21875
0.177584
0.155063
0.151357
0.16648
0.200333
0.251231
0.313053
0.37942
0.445957
0.51019
0.571483
0.630206
0.685225
0.73726
0.962616
0.967305
0.978158
0.988901
0.996875
0.999691
0.989329
0.960004
0.911018
0.8454
0.768241
0.685626
0.603728
0.528113
0.463303
0.41247
0.377658
0.361075
0.362049
0.380579
0.411779
0.453028
0.504016
0.555754
0.603816
0.649839
0.694736
0.737624
0.777496
0.811009
0.956667
0.960119
0.9677
0.981162
1.00093
1.02401
1.04047
1.03991
1.0172
0.973048
0.912328
0.842328
0.770999
0.705681
0.651132
0.608677
0.581052
0.572865
0.577909
0.589507
0.614308
0.646146
0.676976
0.707149
0.737181
0.767413
0.797427
0.824647
0.848152
0.863527
0.949183
0.942296
0.946462
0.962013
0.989437
1.02601
1.06274
1.08769
1.09174
1.07157
1.02994
0.974675
0.914383
0.859375
0.817691
0.786397
0.762895
0.752169
0.752885
0.757521
0.76371
0.772462
0.784246
0.800662
0.822102
0.846954
0.870389
0.887004
0.896487
0.898128
0.951596
0.933979
0.929428
0.940014
0.967849
1.01013
1.05703
1.09656
1.11903
1.11749
1.08846
1.04119
0.990644
0.946059
0.910313
0.882426
0.860602
0.844642
0.83292
0.828623
0.832984
0.842671
0.855592
0.872472
0.892313
0.912557
0.928028
0.933914
0.930955
0.923824
0.966195
0.944083
0.925978
0.924213
0.941186
0.976617
1.02334
1.06482
1.09886
1.11478
1.10433
1.0648
1.0125
0.964632
0.924512
0.89262
0.866977
0.850375
0.847922
0.853152
0.863254
0.879601
0.903739
0.932224
0.951905
0.956512
0.952885
0.947282
0.939238
0.931701
1.14228
1.13569
1.12609