/*--------------------------------*- C++ -*----------------------------------*\
  =========                 |
  \\      /  F ield         | OpenFOAM: The Open Source CFD Toolbox
   \\    /   O peration     | Website:  https://openfoam.org
    \\  /    A nd           | Version:  11
     \\/     M anipulation  |
\*---------------------------------------------------------------------------*/
FoamFile
{
    format      ascii;
    class       surfaceScalarField;
    location    "6.5";
    object      phi;
}
// * * * * * * * * * * * * * * * * * * * * * * * * * * * * * * * * * * * * * //

dimensions      [0 3 -1 0 0 0 0];

internalField   nonuniform List<scalar> 
24840
(
1.57973e-05
1.36601e-08
1.57786e-05
1.86959e-08
1.57611e-05
1.74721e-08
1.57437e-05
1.7408e-08
1.5726e-05
1.77472e-08
1.57081e-05
1.78433e-08
1.56903e-05
1.77929e-08
1.56726e-05
1.76989e-08
1.56551e-05
1.75702e-08
1.56377e-05
1.74004e-08
1.56205e-05
1.71881e-08
1.56036e-05
1.6928e-08
1.5587e-05
1.66107e-08
1.55707e-05
1.6218e-08
1.5555e-05
1.57263e-08
1.55399e-05
1.51069e-08
1.55256e-05
1.43273e-08
1.55122e-05
1.33492e-08
1.55e-05
1.2176e-08
1.54893e-05
1.07288e-08
1.54804e-05
8.89053e-09
1.54739e-05
6.54419e-09
1.54702e-05
3.66733e-09
1.54701e-05
1.24259e-10
1.54746e-05
-4.46797e-09
1.54849e-05
-1.03403e-08
1.55032e-05
-1.8289e-08
1.55327e-05
-2.95033e-08
1.55812e-05
-4.85109e-08
-1.23374e-07
1.57046e-05
1.5817e-05
7.64607e-09
1.58206e-05
1.50404e-08
1.58231e-05
1.50188e-08
1.58251e-05
1.54021e-08
1.58269e-05
1.5914e-08
1.58287e-05
1.60714e-08
1.58305e-05
1.59819e-08
1.58324e-05
1.58092e-08
1.58344e-05
1.55604e-08
1.58366e-05
1.52328e-08
1.58389e-05
1.48255e-08
1.58415e-05
1.43269e-08
1.58444e-05
1.37208e-08
1.58477e-05
1.29711e-08
1.58514e-05
1.20336e-08
1.58556e-05
1.08545e-08
1.58606e-05
9.36942e-09
1.58664e-05
7.52353e-09
1.58733e-05
5.29852e-09
1.58815e-05
2.55718e-09
1.58912e-05
-8.61528e-10
1.5903e-05
-5.23107e-09
1.59172e-05
-1.05583e-08
1.59346e-05
-1.72184e-08
1.59557e-05
-2.55949e-08
1.59817e-05
-3.63618e-08
1.60133e-05
-4.98612e-08
1.60531e-05
-6.93412e-08
1.60944e-05
-8.98247e-08
-1.25512e-07
1.60966e-05
1.58136e-05
5.00596e-09
1.5817e-05
1.16891e-08
1.5819e-05
1.29992e-08
1.5821e-05
1.33961e-08
1.58229e-05
1.3988e-08
1.58247e-05
1.42937e-08
1.58265e-05
1.41805e-08
1.58284e-05
1.39085e-08
1.58304e-05
1.35145e-08
1.58327e-05
1.30154e-08
1.58351e-05
1.24113e-08
1.58377e-05
1.16878e-08
1.58406e-05
1.0829e-08
1.58438e-05
9.7819e-09
1.58473e-05
8.4808e-09
1.58514e-05
6.83172e-09
1.5856e-05
4.74674e-09
1.58614e-05
2.12316e-09
1.58678e-05
-1.09351e-09
1.58754e-05
-5.03387e-09
1.58845e-05
-9.96592e-09
1.58954e-05
-1.61202e-08
1.59085e-05
-2.37102e-08
1.59245e-05
-3.31752e-08
1.59439e-05
-4.5043e-08
1.59677e-05
-6.01113e-08
1.5997e-05
-7.91595e-08
1.60312e-05
-1.03568e-07
1.60749e-05
-1.33527e-07
-1.62257e-07
1.61116e-05
1.58125e-05
3.46171e-09
1.58152e-05
8.95655e-09
1.58172e-05
1.10241e-08
1.5819e-05
1.16531e-08
1.58207e-05
1.221e-08
1.58225e-05
1.25496e-08
1.58242e-05
1.24343e-08
1.58261e-05
1.20661e-08
1.58281e-05
1.15249e-08
1.58302e-05
1.0854e-08
1.58326e-05
1.00571e-08
1.58352e-05
9.11335e-09
1.5838e-05
8.01297e-09
1.58411e-05
6.68177e-09
1.58445e-05
5.0132e-09
1.58485e-05
2.89589e-09
1.5853e-05
2.6699e-10
1.58582e-05
-3.12245e-09
1.58644e-05
-7.26808e-09
1.58717e-05
-1.23881e-08
1.58805e-05
-1.87378e-08
1.5891e-05
-2.66061e-08
1.59036e-05
-3.63426e-08
1.59189e-05
-4.84628e-08
1.59375e-05
-6.36425e-08
1.59602e-05
-8.27752e-08
1.59879e-05
-1.06893e-07
1.60212e-05
-1.36835e-07
1.60628e-05
-1.75129e-07
-2.10548e-07
1.61111e-05
1.58119e-05
2.50749e-09
1.5814e-05
6.92227e-09
1.58158e-05
9.21487e-09
1.58174e-05
1.00664e-08
1.5819e-05
1.05735e-08
1.58207e-05
1.08552e-08
1.58224e-05
1.07262e-08
1.58242e-05
1.02633e-08
1.58261e-05
9.57988e-09
1.58283e-05
8.74073e-09
1.58305e-05
7.75846e-09
1.58331e-05
6.61233e-09
1.58358e-05
5.28208e-09
1.58388e-05
3.67959e-09
1.58421e-05
1.65658e-09
1.5846e-05
-9.20175e-10
1.58503e-05
-4.10596e-09
1.58554e-05
-8.17792e-09
1.58613e-05
-1.32018e-08
1.58683e-05
-1.94086e-08
1.58767e-05
-2.70832e-08
1.58867e-05
-3.65749e-08
1.58986e-05
-4.83231e-08
1.59131e-05
-6.29313e-08
1.59307e-05
-8.12023e-08
1.5952e-05
-1.04133e-07
1.59781e-05
-1.32996e-07
1.60099e-05
-1.68648e-07
1.60493e-05
-2.14496e-07
-2.60705e-07
1.60995e-05
1.58116e-05
1.87428e-09
1.58131e-05
5.38344e-09
1.58148e-05
7.58131e-09
1.58163e-05
8.56112e-09
1.58178e-05
9.03683e-09
1.58194e-05
9.23912e-09
1.58211e-05
9.05591e-09
1.58229e-05
8.50089e-09
1.58248e-05
7.68368e-09
1.58268e-05
6.68412e-09
1.5829e-05
5.52613e-09
1.58315e-05
4.19185e-09
1.58341e-05
2.63161e-09
1.5837e-05
7.65935e-10
1.58403e-05
-1.57745e-09
1.58439e-05
-4.54817e-09
1.58481e-05
-8.26782e-09
1.58529e-05
-1.29741e-08
1.58585e-05
-1.88204e-08
1.58651e-05
-2.60395e-08
1.5873e-05
-3.49456e-08
1.58823e-05
-4.59385e-08
1.58935e-05
-5.95336e-08
1.5907e-05
-7.64221e-08
1.59233e-05
-9.75194e-08
1.59432e-05
-1.23949e-07
1.59674e-05
-1.57204e-07
1.59971e-05
-1.98392e-07
1.6034e-05
-2.51336e-07
-3.08982e-07
1.60822e-05
1.58114e-05
1.41827e-09
1.58126e-05
4.18618e-09
1.58141e-05
6.14599e-09
1.58155e-05
7.15313e-09
1.58169e-05
7.59989e-09
1.58184e-05
7.71205e-09
1.582e-05
7.44585e-09
1.58217e-05
6.79472e-09
1.58236e-05
5.84962e-09
1.58256e-05
4.69807e-09
1.58277e-05
3.37546e-09
1.583e-05
1.86594e-09
1.58326e-05
9.14456e-11
1.58354e-05
-2.0178e-09
1.58384e-05
-4.65985e-09
1.58419e-05
-8.00052e-09
1.58458e-05
-1.22066e-08
1.58504e-05
-1.74994e-08
1.58556e-05
-2.40874e-08
1.58618e-05
-3.22215e-08
1.58691e-05
-4.22412e-08
1.58778e-05
-5.45898e-08
1.58881e-05
-6.9847e-08
1.59004e-05
-8.8783e-08
1.59153e-05
-1.12415e-07
1.59334e-05
-1.42e-07
1.59554e-05
-1.79227e-07
1.59826e-05
-2.25567e-07
1.60162e-05
-2.85004e-07
-3.53496e-07
1.60608e-05
1.58113e-05
1.06819e-09
1.58123e-05
3.22731e-09
1.58135e-05
4.89451e-09
1.58148e-05
5.84354e-09
1.58162e-05
6.2428e-09
1.58176e-05
6.25996e-09
1.58192e-05
5.89442e-09
1.58209e-05
5.14137e-09
1.58226e-05
4.07452e-09
1.58245e-05
2.78125e-09
1.58266e-05
1.30321e-09
1.58288e-05
-3.67385e-10
1.58313e-05
-2.32817e-09
1.58339e-05
-4.66382e-09
1.58368e-05
-7.57298e-09
1.58401e-05
-1.12472e-08
1.58437e-05
-1.5883e-08
1.5848e-05
-2.17059e-08
1.58528e-05
-2.8954e-08
1.58585e-05
-3.79007e-08
1.58652e-05
-4.8907e-08
1.5873e-05
-6.24512e-08
1.58823e-05
-7.91659e-08
1.58935e-05
-9.98891e-08
1.59068e-05
-1.25727e-07
1.59228e-05
-1.58064e-07
1.59424e-05
-1.98762e-07
1.59665e-05
-2.49679e-07
1.59963e-05
-3.14841e-07
-3.93121e-07
1.60359e-05
1.58112e-05
7.86777e-10
1.5812e-05
2.43463e-09
1.58131e-05
3.79687e-09
1.58144e-05
4.6282e-09
1.58156e-05
4.95571e-09
1.5817e-05
4.8762e-09
1.58185e-05
4.40557e-09
1.58201e-05
3.54824e-09
1.58218e-05
2.36679e-09
1.58237e-05
9.45e-10
1.58256e-05
-6.71015e-10
1.58278e-05
-2.49512e-09
1.583e-05
-4.61594e-09
1.58325e-05
-7.15254e-09
1.58353e-05
-1.02982e-08
1.58383e-05
-1.42669e-08
1.58417e-05
-1.92768e-08
1.58455e-05
-2.55638e-08
1.585e-05
-3.33839e-08
1.58551e-05
-4.30307e-08
1.58611e-05
-5.48835e-08
1.58681e-05
-6.94478e-08
1.58763e-05
-8.73969e-08
1.5886e-05
-1.09624e-07
1.58976e-05
-1.37309e-07
1.59115e-05
-1.71945e-07
1.59283e-05
-2.15539e-07
1.59489e-05
-2.7031e-07
1.59743e-05
-3.40244e-07
-4.2696e-07
1.60081e-05
1.58112e-05
5.5175e-10
1.58119e-05
1.75959e-09
1.58129e-05
2.82266e-09
1.5814e-05
3.49951e-09
1.58152e-05
3.73269e-09
1.58165e-05
3.55439e-09
1.5818e-05
2.97818e-09
1.58195e-05
2.01712e-09
1.58211e-05
7.28464e-10
1.58229e-05
-8.08982e-10
1.58248e-05
-2.54853e-09
1.58268e-05
-4.50549e-09
1.58289e-05
-6.76748e-09
1.58312e-05
-9.47458e-09
1.58338e-05
-1.28236e-08
1.58365e-05
-1.70429e-08
1.58396e-05
-2.23682e-08
1.58431e-05
-2.90462e-08
1.58471e-05
-3.73452e-08
1.58516e-05
-4.75736e-08
1.58569e-05
-6.01245e-08
1.58629e-05
-7.55222e-08
1.587e-05
-9.44691e-08
1.58783e-05
-1.17898e-07
1.5888e-05
-1.47042e-07
1.58995e-05
-1.83479e-07
1.59133e-05
-2.29324e-07
1.59301e-05
-2.87097e-07
1.59506e-05
-3.60703e-07
-4.54238e-07
1.59779e-05
1.58112e-05
3.47943e-10
1.58118e-05
1.17001e-09
1.58126e-05
1.94528e-09
1.58137e-05
2.44671e-09
1.58149e-05
2.5676e-09
1.58161e-05
2.28792e-09
1.58175e-05
1.60871e-09
1.5819e-05
5.47955e-10
1.58205e-05
-8.38837e-10
1.58222e-05
-2.47749e-09
1.5824e-05
-4.32258e-09
1.58259e-05
-6.39089e-09
1.58279e-05
-8.77244e-09
1.583e-05
-1.16191e-08
1.58323e-05
-1.51353e-08
1.58348e-05
-1.95592e-08
1.58376e-05
-2.51391e-08
1.58407e-05
-3.21314e-08
1.58442e-05
-4.08117e-08
1.58481e-05
-5.14979e-08
1.58525e-05
-6.45915e-08
1.58577e-05
-8.06278e-08
1.58635e-05
-1.00325e-07
1.58702e-05
-1.24639e-07
1.5878e-05
-1.54835e-07
1.58871e-05
-1.92541e-07
1.58977e-05
-2.39937e-07
1.59104e-05
-2.99768e-07
1.59255e-05
-3.75805e-07
-4.74266e-07
1.59455e-05
1.58112e-05
1.64554e-10
1.58117e-05
6.43595e-10
1.58125e-05
1.14235e-09
1.58135e-05
1.45724e-09
1.58146e-05
1.45325e-09
1.58158e-05
1.07059e-09
1.58171e-05
2.93473e-10
1.58185e-05
-8.59633e-10
1.582e-05
-2.33364e-09
1.58216e-05
-4.05796e-09
1.58233e-05
-5.98958e-09
1.5825e-05
-8.14732e-09
1.58269e-05
-1.06242e-08
1.58288e-05
-1.35794e-08
1.58309e-05
-1.72246e-08
1.58332e-05
-2.18049e-08
1.58356e-05
-2.7577e-08
1.58383e-05
-3.48036e-08
1.58412e-05
-4.37646e-08
1.58445e-05
-5.47818e-08
1.58482e-05
-6.82593e-08
1.58523e-05
-8.47344e-08
1.58569e-05
-1.04929e-07
1.58621e-05
-1.29804e-07
1.58679e-05
-1.6063e-07
1.58744e-05
-1.99052e-07
1.58817e-05
-2.47261e-07
1.58901e-05
-3.08134e-07
1.58995e-05
-3.85258e-07
-4.86517e-07
1.59118e-05
1.58111e-05
-4.65326e-12
1.58116e-05
1.61743e-10
1.58124e-05
3.95206e-10
1.58133e-05
5.18238e-10
1.58144e-05
3.81542e-10
1.58155e-05
-1.03763e-10
1.58168e-05
-9.71496e-10
1.58182e-05
-2.20669e-09
1.58196e-05
-3.75508e-09
1.58211e-05
-5.54874e-09
1.58226e-05
-7.54741e-09
1.58243e-05
-9.77207e-09
1.5826e-05
-1.23183e-08
1.58277e-05
-1.53504e-08
1.58296e-05
-1.90851e-08
1.58315e-05
-2.37717e-08
1.58336e-05
-2.96719e-08
1.58359e-05
-3.70514e-08
1.58383e-05
-4.61907e-08
1.58409e-05
-5.74106e-08
1.58438e-05
-7.11118e-08
1.58469e-05
-8.7825e-08
1.58502e-05
-1.08263e-07
1.58538e-05
-1.33373e-07
1.58576e-05
-1.64406e-07
1.58615e-05
-2.02983e-07
1.58655e-05
-2.51251e-07
1.58695e-05
-3.12115e-07
1.58731e-05
-3.88916e-07
-4.90646e-07
1.58773e-05
1.58111e-05
-1.62478e-10
1.58116e-05
-2.90994e-10
1.58123e-05
-3.13176e-10
1.58132e-05
-3.83245e-10
1.58142e-05
-6.55324e-10
1.58154e-05
-1.2405e-09
1.58166e-05
-2.19028e-09
1.58179e-05
-3.49606e-09
1.58192e-05
-5.10451e-09
1.58206e-05
-6.94989e-09
1.58221e-05
-8.99495e-09
1.58236e-05
-1.12632e-08
1.58251e-05
-1.38522e-08
1.58267e-05
-1.69288e-08
1.58283e-05
-2.07126e-08
1.583e-05
-2.54548e-08
1.58317e-05
-3.14183e-08
1.58335e-05
-3.88689e-08
1.58354e-05
-4.80842e-08
1.58374e-05
-5.93792e-08
1.58394e-05
-7.31453e-08
1.58415e-05
-8.98981e-08
1.58436e-05
-1.10329e-07
1.58456e-05
-1.35354e-07
1.58473e-05
-1.66177e-07
1.58487e-05
-2.04358e-07
1.58494e-05
-2.51938e-07
1.5849e-05
-3.11742e-07
1.58469e-05
-3.86796e-07
-4.86567e-07
1.58428e-05
1.58111e-05
-3.11958e-10
1.58116e-05
-7.2647e-10
1.58122e-05
-9.98325e-10
1.58131e-05
-1.25965e-09
1.58141e-05
-1.66522e-09
1.58152e-05
-2.34507e-09
1.58164e-05
-3.36809e-09
1.58176e-05
-4.7321e-09
1.58189e-05
-6.38466e-09
1.58202e-05
-8.26247e-09
1.58216e-05
-1.03322e-08
1.58229e-05
-1.262e-08
1.58243e-05
-1.52245e-08
1.58257e-05
-1.8313e-08
1.58271e-05
-2.21055e-08
1.58285e-05
-2.68524e-08
1.58299e-05
-3.2815e-08
1.58313e-05
-4.02558e-08
1.58326e-05
-4.94461e-08
1.58339e-05
-6.06909e-08
1.58352e-05
-7.43664e-08
1.58362e-05
-9.0966e-08
1.5837e-05
-1.11148e-07
1.58375e-05
-1.3578e-07
1.58373e-05
-1.65996e-07
1.58362e-05
-2.03252e-07
1.58337e-05
-2.49433e-07
1.58291e-05
-3.07167e-07
1.58214e-05
-3.79098e-07
-4.74484e-07
1.58093e-05
1.58111e-05
-4.57394e-10
1.58115e-05
-1.15487e-09
1.58122e-05
-1.67303e-09
1.58131e-05
-2.12225e-09
1.58141e-05
-2.65715e-09
1.58151e-05
-3.42538e-09
1.58163e-05
-4.51168e-09
1.58175e-05
-5.91958e-09
1.58187e-05
-7.59823e-09
1.58199e-05
-9.488e-09
1.58211e-05
-1.15601e-08
1.58224e-05
-1.38431e-08
1.58236e-05
-1.64355e-08
1.58248e-05
-1.95034e-08
1.58259e-05
-2.32646e-08
1.5827e-05
-2.79663e-08
1.58281e-05
-3.38651e-08
1.58291e-05
-4.1217e-08
1.58299e-05
-5.02838e-08
1.58306e-05
-6.13567e-08
1.5831e-05
-7.47921e-08
1.58311e-05
-9.1054e-08
1.58307e-05
-1.10758e-07
1.58296e-05
-1.34709e-07
1.58276e-05
-1.63947e-07
1.58241e-05
-1.99793e-07
1.58186e-05
-2.43922e-07
1.58101e-05
-2.98661e-07
1.57972e-05
-3.66207e-07
-4.54931e-07
1.57776e-05
1.58111e-05
-6.03067e-10
1.58115e-05
-1.5862e-09
1.58122e-05
-2.35052e-09
1.58131e-05
-2.98352e-09
1.58141e-05
-3.6412e-09
1.58151e-05
-4.4893e-09
1.58162e-05
-5.62714e-09
1.58174e-05
-7.06297e-09
1.58185e-05
-8.74846e-09
1.58197e-05
-1.0629e-08
1.58208e-05
-1.26808e-08
1.58219e-05
-1.49345e-08
1.58229e-05
-1.74875e-08
1.58239e-05
-2.05028e-08
1.58249e-05
-2.41937e-08
1.58257e-05
-2.88016e-08
1.58264e-05
-3.45754e-08
1.5827e-05
-4.17618e-08
1.58273e-05
-5.06103e-08
1.58273e-05
-6.13951e-08
1.5827e-05
-7.44486e-08
1.58261e-05
-9.01999e-08
1.58246e-05
-1.09213e-07
1.58221e-05
-1.32219e-07
1.58183e-05
-1.60147e-07
1.58127e-05
-1.94153e-07
1.58044e-05
-2.3566e-07
1.57923e-05
-2.86607e-07
1.57748e-05
-3.48686e-07
-4.2877e-07
1.57487e-05
1.58111e-05
-7.53316e-10
1.58116e-05
-2.0321e-09
1.58123e-05
-3.04606e-09
1.58131e-05
-3.85704e-09
1.58141e-05
-4.62699e-09
1.58152e-05
-5.5438e-09
1.58163e-05
-6.72022e-09
1.58174e-05
-8.16714e-09
1.58185e-05
-9.83934e-09
1.58195e-05
-1.1689e-08
1.58205e-05
-1.36979e-08
1.58215e-05
-1.5898e-08
1.58224e-05
-1.83846e-08
1.58232e-05
-2.1316e-08
1.58239e-05
-2.48989e-08
1.58245e-05
-2.9366e-08
1.58249e-05
-3.49559e-08
1.5825e-05
-4.19036e-08
1.58248e-05
-5.04436e-08
1.58243e-05
-6.08308e-08
1.58232e-05
-7.33704e-08
1.58214e-05
-8.84524e-08
1.58188e-05
-1.06584e-07
1.5815e-05
-1.28411e-07
1.58096e-05
-1.5474e-07
1.5802e-05
-1.86542e-07
1.57913e-05
-2.24961e-07
1.57762e-05
-2.7148e-07
1.57547e-05
-3.27254e-07
-3.97164e-07
1.57231e-05
1.58111e-05
-9.13379e-10
1.58116e-05
-2.50689e-09
1.58123e-05
-3.77677e-09
1.58132e-05
-4.75635e-09
1.58142e-05
-5.62367e-09
1.58153e-05
-6.59615e-09
1.58164e-05
-7.79741e-09
1.58174e-05
-9.23748e-09
1.58185e-05
-1.08753e-08
1.58194e-05
-1.26721e-08
1.58204e-05
-1.46157e-08
1.58212e-05
-1.67386e-08
1.5822e-05
-1.91326e-08
1.58226e-05
-2.195e-08
1.58231e-05
-2.53886e-08
1.58234e-05
-2.96699e-08
1.58234e-05
-3.50202e-08
1.58232e-05
-4.16599e-08
1.58226e-05
-4.98072e-08
1.58214e-05
-5.96952e-08
1.58197e-05
-7.16e-08
1.58171e-05
-8.58694e-08
1.58134e-05
-1.02949e-07
1.58084e-05
-1.23397e-07
1.58016e-05
-1.47888e-07
1.57922e-05
-1.77198e-07
1.57794e-05
-2.1218e-07
1.57618e-05
-2.53824e-07
1.57373e-05
-3.02746e-07
-3.6152e-07
1.57016e-05
1.58111e-05
-1.09009e-09
1.58117e-05
-3.02866e-09
1.58125e-05
-4.56248e-09
1.58134e-05
-5.69538e-09
1.58144e-05
-6.64029e-09
1.58155e-05
-7.65406e-09
1.58165e-05
-8.86556e-09
1.58176e-05
-1.02795e-08
1.58186e-05
-1.18612e-08
1.58195e-05
-1.35834e-08
1.58203e-05
-1.54397e-08
1.5821e-05
-1.74622e-08
1.58216e-05
-1.97384e-08
1.58221e-05
-2.24131e-08
1.58224e-05
-2.5673e-08
1.58224e-05
-2.97263e-08
1.58222e-05
-3.47843e-08
1.58216e-05
-4.10517e-08
1.58205e-05
-4.87281e-08
1.58188e-05
-5.80241e-08
1.58164e-05
-6.91852e-08
1.58131e-05
-8.25157e-08
1.58085e-05
-9.83983e-08
1.58024e-05
-1.17301e-07
1.57943e-05
-1.39766e-07
1.57835e-05
-1.66376e-07
1.5769e-05
-1.97694e-07
1.57494e-05
-2.34221e-07
1.57227e-05
-2.76064e-07
-3.23382e-07
1.56846e-05
1.58112e-05
-1.29293e-09
1.58118e-05
-3.62181e-09
1.58126e-05
-5.42695e-09
1.58136e-05
-6.68787e-09
1.58147e-05
-7.68543e-09
1.58157e-05
-8.72582e-09
1.58168e-05
-9.93179e-09
1.58178e-05
-1.12985e-08
1.58188e-05
-1.28018e-08
1.58196e-05
-1.44281e-08
1.58203e-05
-1.6176e-08
1.5821e-05
-1.8076e-08
1.58214e-05
-2.02107e-08
1.58217e-05
-2.27157e-08
1.58218e-05
-2.57649e-08
1.58216e-05
-2.95508e-08
1.58211e-05
-3.4268e-08
1.58202e-05
-4.01037e-08
1.58187e-05
-4.72382e-08
1.58165e-05
-5.58586e-08
1.58135e-05
-6.61798e-08
1.58095e-05
-7.84621e-08
1.58041e-05
-9.30265e-08
1.5797e-05
-1.10253e-07
1.57878e-05
-1.30557e-07
1.57758e-05
-1.54334e-07
1.576e-05
-1.81884e-07
1.5739e-05
-2.1325e-07
1.57111e-05
-2.48107e-07
-2.84343e-07
1.5672e-05
1.58112e-05
-1.53595e-09
1.58119e-05
-4.32075e-09
1.58129e-05
-6.39837e-09
1.58139e-05
-7.74633e-09
1.5815e-05
-8.76733e-09
1.58161e-05
-9.82049e-09
1.58172e-05
-1.10033e-08
1.58182e-05
-1.22996e-08
1.58191e-05
-1.37022e-08
1.58199e-05
-1.5212e-08
1.58205e-05
-1.68309e-08
1.5821e-05
-1.85873e-08
1.58214e-05
-2.05582e-08
1.58215e-05
-2.28687e-08
1.58215e-05
-2.56775e-08
1.58211e-05
-2.91597e-08
1.58203e-05
-3.34919e-08
1.5819e-05
-3.88423e-08
1.58172e-05
-4.53707e-08
1.58145e-05
-5.32413e-08
1.5811e-05
-6.26393e-08
1.58063e-05
-7.37819e-08
1.58002e-05
-8.69306e-08
1.57924e-05
-1.02384e-07
1.57822e-05
-1.20439e-07
1.57692e-05
-1.41324e-07
1.57525e-05
-1.65111e-07
1.57307e-05
-1.91454e-07
1.57023e-05
-2.19713e-07
-2.45831e-07
1.56637e-05
1.58113e-05
-1.84153e-09
1.58121e-05
-5.1754e-09
1.58132e-05
-7.5087e-09
1.58144e-05
-8.88043e-09
1.58155e-05
-9.89436e-09
1.58166e-05
-1.09473e-08
1.58177e-05
-1.20857e-08
1.58187e-05
-1.32874e-08
1.58196e-05
-1.45686e-08
1.58203e-05
-1.59431e-08
1.58209e-05
-1.74137e-08
1.58213e-05
-1.90069e-08
1.58215e-05
-2.07935e-08
1.58215e-05
-2.28861e-08
1.58213e-05
-2.54272e-08
1.58207e-05
-2.85738e-08
1.58197e-05
-3.2482e-08
1.58182e-05
-3.72988e-08
1.5816e-05
-4.31636e-08
1.58129e-05
-5.02196e-08
1.58089e-05
-5.86234e-08
1.58037e-05
-6.85509e-08
1.5797e-05
-8.02082e-08
1.57884e-05
-9.38215e-08
1.57775e-05
-1.09584e-07
1.57638e-05
-1.27578e-07
1.57464e-05
-1.47698e-07
1.57242e-05
-1.69296e-07
1.56961e-05
-1.91586e-07
-2.0913e-07
1.56594e-05
1.58114e-05
-2.24793e-09
1.58125e-05
-6.25855e-09
1.58137e-05
-8.78915e-09
1.5815e-05
-1.00964e-08
1.58161e-05
-1.10787e-08
1.58173e-05
-1.21164e-08
1.58184e-05
-1.31816e-08
1.58194e-05
-1.42624e-08
1.58202e-05
-1.54025e-08
1.58209e-05
-1.66238e-08
1.58214e-05
-1.79281e-08
1.58217e-05
-1.93403e-08
1.58219e-05
-2.0925e-08
1.58218e-05
-2.27808e-08
1.58214e-05
-2.50313e-08
1.58206e-05
-2.78127e-08
1.58194e-05
-3.12606e-08
1.58176e-05
-3.55017e-08
1.58151e-05
-4.06541e-08
1.58117e-05
-4.68409e-08
1.58073e-05
-5.41926e-08
1.58016e-05
-6.28447e-08
1.57943e-05
-7.29555e-08
1.57852e-05
-8.46901e-08
1.57737e-05
-9.8154e-08
1.57595e-05
-1.13305e-07
1.57417e-05
-1.29922e-07
1.57195e-05
-1.47136e-07
1.56922e-05
-1.64244e-07
-1.75047e-07
1.56581e-05
1.58115e-05
-2.82715e-09
1.5813e-05
-7.67495e-09
1.58144e-05
-1.02553e-08
1.58157e-05
-1.13952e-08
1.5817e-05
-1.23402e-08
1.58182e-05
-1.33441e-08
1.58193e-05
-1.43013e-08
1.58203e-05
-1.52361e-08
1.58211e-05
-1.62171e-08
1.58218e-05
-1.72671e-08
1.58222e-05
-1.83867e-08
1.58225e-05
-1.9601e-08
1.58225e-05
-2.09669e-08
1.58223e-05
-2.25678e-08
1.58218e-05
-2.45073e-08
1.58209e-05
-2.68986e-08
1.58195e-05
-2.98564e-08
1.58175e-05
-3.34857e-08
1.58147e-05
-3.7883e-08
1.5811e-05
-4.31544e-08
1.58062e-05
-4.94074e-08
1.58001e-05
-5.67367e-08
1.57924e-05
-6.52608e-08
1.57828e-05
-7.51001e-08
1.5771e-05
-8.6288e-08
1.57563e-05
-9.86801e-08
1.57384e-05
-1.11999e-07
1.57165e-05
-1.252e-07
1.56902e-05
-1.37979e-07
-1.43955e-07
1.56591e-05
1.58119e-05
-3.72295e-09
1.58138e-05
-9.57964e-09
1.58154e-05
-1.18873e-08
1.58168e-05
-1.27685e-08
1.58181e-05
-1.36841e-08
1.58194e-05
-1.46182e-08
1.58205e-05
-1.54314e-08
1.58215e-05
-1.62029e-08
1.58223e-05
-1.70121e-08
1.58229e-05
-1.78747e-08
1.58233e-05
-1.87945e-08
1.58235e-05
-1.97988e-08
1.58235e-05
-2.09338e-08
1.58232e-05
-2.22658e-08
1.58225e-05
-2.38771e-08
1.58215e-05
-2.58568e-08
1.58199e-05
-2.82988e-08
1.58177e-05
-3.12857e-08
1.58147e-05
-3.48922e-08
1.58108e-05
-3.92105e-08
1.58057e-05
-4.43293e-08
1.57993e-05
-5.03018e-08
1.57912e-05
-5.72169e-08
1.57813e-05
-6.51638e-08
1.57691e-05
-7.41182e-08
1.57543e-05
-8.38561e-08
1.57364e-05
-9.40931e-08
1.57148e-05
-1.03595e-07
1.56897e-05
-1.12891e-07
-1.15089e-07
1.56608e-05
1.58124e-05
-5.20565e-09
1.5815e-05
-1.21748e-08
1.58168e-05
-1.36724e-08
1.58183e-05
-1.42836e-08
1.58198e-05
-1.51528e-08
1.58211e-05
-1.59422e-08
1.58223e-05
-1.65741e-08
1.58232e-05
-1.71689e-08
1.5824e-05
-1.77929e-08
1.58246e-05
-1.84519e-08
1.5825e-05
-1.91558e-08
1.58251e-05
-1.99376e-08
1.5825e-05
-2.08306e-08
1.58246e-05
-2.18834e-08
1.58239e-05
-2.31551e-08
1.58227e-05
-2.47084e-08
1.58211e-05
-2.66189e-08
1.58187e-05
-2.89385e-08
1.58156e-05
-3.17243e-08
1.58114e-05
-3.50636e-08
1.58061e-05
-3.90231e-08
1.57994e-05
-4.36016e-08
1.57911e-05
-4.88918e-08
1.57809e-05
-5.49758e-08
1.57685e-05
-6.17653e-08
1.57537e-05
-6.89865e-08
1.57359e-05
-7.63601e-08
1.57147e-05
-8.2316e-08
1.56909e-05
-8.91254e-08
-8.59658e-08
1.56618e-05
1.58135e-05
-7.77911e-09
1.58168e-05
-1.53853e-08
1.58186e-05
-1.54934e-08
1.58203e-05
-1.60482e-08
1.58219e-05
-1.67655e-08
1.58233e-05
-1.73134e-08
1.58245e-05
-1.77439e-08
1.58255e-05
-1.81535e-08
1.58263e-05
-1.85749e-08
1.58268e-05
-1.90151e-08
1.58272e-05
-1.94942e-08
1.58273e-05
-2.00443e-08
1.58271e-05
-2.06862e-08
1.58267e-05
-2.14495e-08
1.58259e-05
-2.2369e-08
1.58247e-05
-2.34764e-08
1.58229e-05
-2.48411e-08
1.58204e-05
-2.64762e-08
1.58171e-05
-2.84105e-08
1.58128e-05
-3.07446e-08
1.58073e-05
-3.35527e-08
1.58004e-05
-3.67265e-08
1.57919e-05
-4.03626e-08
1.57815e-05
-4.45935e-08
1.5769e-05
-4.92744e-08
1.57542e-05
-5.41529e-08
1.57368e-05
-5.8901e-08
1.57159e-05
-6.14486e-08
1.5693e-05
-6.62042e-08
-5.04265e-08
1.56574e-05
1.58169e-05
-1.37441e-08
1.58204e-05
-1.88798e-08
1.58226e-05
-1.77113e-08
1.58243e-05
-1.77496e-08
1.58258e-05
-1.81838e-08
1.58269e-05
-1.84783e-08
1.58279e-05
-1.86809e-08
1.58286e-05
-1.88811e-08
1.58291e-05
-1.90959e-08
1.58294e-05
-1.93232e-08
1.58295e-05
-1.95716e-08
1.58293e-05
-1.98563e-08
1.58288e-05
-2.01887e-08
1.58279e-05
-2.05835e-08
1.58266e-05
-2.10594e-08
1.58248e-05
-2.16308e-08
1.58223e-05
-2.2345e-08
1.5819e-05
-2.31985e-08
1.58148e-05
-2.42046e-08
1.58095e-05
-2.54331e-08
1.58029e-05
-2.69288e-08
1.57947e-05
-2.85852e-08
1.57849e-05
-3.0484e-08
1.5773e-05
-3.27305e-08
1.57589e-05
-3.5211e-08
1.57425e-05
-3.77262e-08
1.57237e-05
-4.01007e-08
1.57018e-05
-3.95371e-08
1.56742e-05
-3.8618e-08
1.01471e-08
1.56136e-05
1.57972e-05
1.57783e-05
1.57606e-05
1.57429e-05
1.57247e-05
1.57062e-05
1.56875e-05
1.56687e-05
1.56496e-05
1.56302e-05
1.56107e-05
1.55908e-05
1.55706e-05
1.555e-05
1.5529e-05
1.55073e-05
1.5485e-05
1.54618e-05
1.54376e-05
1.54122e-05
1.53852e-05
1.53567e-05
1.53262e-05
1.52934e-05
1.52582e-05
1.52205e-05
1.51804e-05
1.51409e-05
1.51022e-05
1.51124e-05
1.54157e-05
-8.99983e-06
9.28869e-06
1.5078e-05
-9.07792e-06
9.41564e-06
1.46846e-05
-9.12913e-06
9.52251e-06
1.42474e-05
-9.15614e-06
9.59332e-06
1.37873e-05
-9.17994e-06
9.64006e-06
1.33161e-05
-9.20604e-06
9.67731e-06
1.28389e-05
-9.23459e-06
9.71169e-06
1.23585e-05
-9.26528e-06
9.74572e-06
1.18759e-05
-9.29822e-06
9.78084e-06
1.13914e-05
-9.33339e-06
9.81786e-06
1.0905e-05
-9.37068e-06
9.85712e-06
1.04163e-05
-9.41011e-06
9.89874e-06
9.92535e-06
-9.4519e-06
9.94289e-06
9.43189e-06
-9.49644e-06
9.98989e-06
8.9359e-06
-9.54428e-06
1.00403e-05
8.43726e-06
-9.59611e-06
1.00948e-05
7.93579e-06
-9.65282e-06
1.01543e-05
7.43125e-06
-9.71557e-06
1.02201e-05
6.92328e-06
-9.78595e-06
1.02939e-05
6.41136e-06
-9.86619e-06
1.03781e-05
5.89486e-06
-9.95938e-06
1.04759e-05
5.37243e-06
-1.00702e-05
1.05926e-05
4.84343e-06
-1.02047e-05
1.07337e-05
4.30216e-06
-1.03762e-05
1.09174e-05
3.75369e-06
-1.05903e-05
1.11388e-05
3.16719e-06
-1.09143e-05
1.15008e-05
2.58236e-06
-1.1276e-05
1.18608e-05
1.865e-06
-1.21318e-05
1.28492e-05
1.13477e-06
-1.27316e-05
1.34618e-05
-1.60231e-05
1.71578e-05
1.56895e-05
-8.59277e-06
1.52345e-05
-8.62291e-06
1.47577e-05
-8.65236e-06
1.4277e-05
-8.67546e-06
1.37968e-05
-8.6997e-06
1.3317e-05
-8.7262e-06
1.28376e-05
-8.75519e-06
1.23579e-05
-8.78559e-06
1.1877e-05
-8.81737e-06
1.13944e-05
-8.85073e-06
1.09095e-05
-8.88585e-06
1.04224e-05
-8.92295e-06
9.93284e-06
-8.96237e-06
9.44091e-06
-9.0045e-06
8.94648e-06
-9.04986e-06
8.44943e-06
-9.09906e-06
7.94952e-06
-9.15292e-06
7.44649e-06
-9.21253e-06
6.93994e-06
-9.2794e-06
6.42931e-06
-9.35557e-06
5.91385e-06
-9.44392e-06
5.39233e-06
-9.54867e-06
4.86339e-06
-9.67576e-06
4.32295e-06
-9.83573e-06
3.77134e-06
-1.00387e-05
3.18732e-06
-1.03303e-05
2.59227e-06
-1.0681e-05
1.88046e-06
-1.142e-05
1.14311e-06
-1.19942e-05
-1.48799e-05
1.56552e-05
-8.13628e-06
1.51889e-05
-8.15666e-06
1.47182e-05
-8.1817e-06
1.42483e-05
-8.20552e-06
1.37774e-05
-8.22875e-06
1.33051e-05
-8.25399e-06
1.28308e-05
-8.28088e-06
1.23542e-05
-8.30891e-06
1.18751e-05
-8.33828e-06
1.13936e-05
-8.36931e-06
1.091e-05
-8.4022e-06
1.04242e-05
-8.43712e-06
9.93613e-06
-8.47433e-06
9.4458e-06
-8.51417e-06
8.95301e-06
-8.55708e-06
8.4576e-06
-8.60364e-06
7.9593e-06
-8.65462e-06
7.45783e-06
-8.71106e-06
6.95274e-06
-8.77431e-06
6.44345e-06
-8.84628e-06
5.92912e-06
-8.92959e-06
5.40852e-06
-9.02807e-06
4.87993e-06
-9.14718e-06
4.34004e-06
-9.29583e-06
3.78647e-06
-9.48515e-06
3.20395e-06
-9.74779e-06
2.60109e-06
-1.00781e-05
1.89336e-06
-1.07123e-05
1.14684e-06
-1.12477e-05
-1.37331e-05
1.56494e-05
-7.67458e-06
1.51853e-05
-7.69258e-06
1.47172e-05
-7.71359e-06
1.42468e-05
-7.73515e-06
1.37751e-05
-7.75706e-06
1.33015e-05
-7.78042e-06
1.2826e-05
-7.80539e-06
1.23488e-05
-7.83171e-06
1.187e-05
-7.8594e-06
1.13893e-05
-7.88868e-06
1.09068e-05
-7.9197e-06
1.04223e-05
-7.9526e-06
9.93563e-06
-7.98766e-06
9.44666e-06
-8.02519e-06
8.95522e-06
-8.06564e-06
8.46113e-06
-8.10955e-06
7.96412e-06
-8.15762e-06
7.46387e-06
-8.2108e-06
6.9599e-06
-8.27034e-06
6.45157e-06
-8.33795e-06
5.938e-06
-8.41602e-06
5.41789e-06
-8.50796e-06
4.88937e-06
-8.61865e-06
4.34932e-06
-8.75579e-06
3.79404e-06
-8.92986e-06
3.21163e-06
-9.16538e-06
2.60219e-06
-9.46867e-06
1.89757e-06
-1.00077e-05
1.14394e-06
-1.04941e-05
-1.25892e-05
1.56351e-05
-7.21027e-06
1.51692e-05
-7.22661e-06
1.47006e-05
-7.24504e-06
1.42305e-05
-7.26497e-06
1.37593e-05
-7.28588e-06
1.32868e-05
-7.30797e-06
1.28128e-05
-7.33137e-06
1.23371e-05
-7.35603e-06
1.18597e-05
-7.38197e-06
1.13804e-05
-7.40937e-06
1.08991e-05
-7.4384e-06
1.04157e-05
-7.46923e-06
9.9302e-06
-7.50212e-06
9.44238e-06
-7.53737e-06
8.95211e-06
-7.57537e-06
8.45916e-06
-7.6166e-06
7.96326e-06
-7.66172e-06
7.46403e-06
-7.71157e-06
6.96097e-06
-7.76727e-06
6.45339e-06
-7.83037e-06
5.94035e-06
-7.90298e-06
5.4205e-06
-7.98811e-06
4.89187e-06
-8.09002e-06
4.35135e-06
-8.21527e-06
3.79459e-06
-8.37311e-06
3.21151e-06
-8.58231e-06
2.59692e-06
-8.85408e-06
1.89456e-06
-9.30529e-06
1.13486e-06
-9.7344e-06
-1.14543e-05
1.56172e-05
-6.74527e-06
1.51511e-05
-6.76044e-06
1.46832e-05
-6.77723e-06
1.42141e-05
-6.79578e-06
1.37437e-05
-6.81549e-06
1.32719e-05
-6.83616e-06
1.27984e-05
-6.85794e-06
1.23233e-05
-6.8809e-06
1.18464e-05
-6.90513e-06
1.13678e-05
-6.93074e-06
1.08873e-05
-6.9579e-06
1.04048e-05
-6.98676e-06
9.92027e-06
-7.01755e-06
9.43343e-06
-7.05053e-06
8.94413e-06
-7.08607e-06
8.45212e-06
-7.12459e-06
7.95709e-06
-7.16669e-06
7.45864e-06
-7.21311e-06
6.95623e-06
-7.26486e-06
6.44915e-06
-7.32329e-06
5.93639e-06
-7.39023e-06
5.41654e-06
-7.46826e-06
4.88756e-06
-7.56103e-06
4.3463e-06
-7.67401e-06
3.78813e-06
-7.81493e-06
3.2039e-06
-7.99809e-06
2.58526e-06
-8.23543e-06
1.88524e-06
-8.60526e-06
1.12078e-06
-8.96995e-06
-1.03335e-05
1.55957e-05
-6.28019e-06
1.51296e-05
-6.29432e-06
1.46621e-05
-6.30979e-06
1.41934e-05
-6.32704e-06
1.37234e-05
-6.34547e-06
1.3252e-05
-6.36477e-06
1.27791e-05
-6.38504e-06
1.23046e-05
-6.40644e-06
1.18285e-05
-6.42903e-06
1.13507e-05
-6.45293e-06
1.0871e-05
-6.47824e-06
1.03894e-05
-6.50513e-06
9.90566e-06
-6.5338e-06
9.41963e-06
-6.5645e-06
8.93111e-06
-6.59754e-06
8.43983e-06
-6.63331e-06
7.94546e-06
-6.67232e-06
7.44757e-06
-6.71523e-06
6.9456e-06
-6.7629e-06
6.43879e-06
-6.81648e-06
5.92609e-06
-6.87753e-06
5.40604e-06
-6.94821e-06
4.87654e-06
-7.03153e-06
4.33439e-06
-7.13186e-06
3.77484e-06
-7.25538e-06
3.18928e-06
-7.41254e-06
2.56759e-06
-7.61374e-06
1.87003e-06
-7.9077e-06
1.10244e-06
-8.20235e-06
-9.23108e-06
1.55709e-05
-5.81514e-06
1.51049e-05
-5.82833e-06
1.46378e-05
-5.84266e-06
1.41694e-05
-5.85869e-06
1.36998e-05
-5.87587e-06
1.32289e-05
-5.89383e-06
1.27565e-05
-5.91266e-06
1.22826e-05
-5.93253e-06
1.18071e-05
-5.95351e-06
1.13298e-05
-5.97569e-06
1.08508e-05
-5.99918e-06
1.03698e-05
-6.02411e-06
9.88663e-06
-6.05068e-06
9.40121e-06
-6.07908e-06
8.91327e-06
-6.1096e-06
8.42252e-06
-6.14257e-06
7.92862e-06
-6.17842e-06
7.43109e-06
-6.21771e-06
6.92936e-06
-6.26116e-06
6.42261e-06
-6.30973e-06
5.90978e-06
-6.3647e-06
5.38935e-06
-6.42778e-06
4.85918e-06
-6.50136e-06
4.31605e-06
-6.58873e-06
3.75518e-06
-6.69451e-06
3.16831e-06
-6.82567e-06
2.54448e-06
-6.98991e-06
1.84963e-06
-7.21285e-06
1.08072e-06
-7.43345e-06
-8.15036e-06
1.55432e-05
-5.35016e-06
1.50773e-05
-5.36248e-06
1.46104e-05
-5.37576e-06
1.41423e-05
-5.39062e-06
1.3673e-05
-5.40656e-06
1.32024e-05
-5.42322e-06
1.27304e-05
-5.44065e-06
1.22569e-05
-5.45903e-06
1.17818e-05
-5.47843e-06
1.13051e-05
-5.49893e-06
1.08265e-05
-5.52061e-06
1.0346e-05
-5.54359e-06
9.86334e-06
-5.56804e-06
9.37838e-06
-5.59412e-06
8.89086e-06
-5.62208e-06
8.40047e-06
-5.65218e-06
7.90685e-06
-5.68479e-06
7.40951e-06
-5.72036e-06
6.90782e-06
-5.75948e-06
6.40098e-06
-5.80288e-06
5.88785e-06
-5.85157e-06
5.36692e-06
-5.90685e-06
4.83599e-06
-5.97043e-06
4.29185e-06
-6.0446e-06
3.72976e-06
-6.13241e-06
3.14175e-06
-6.23766e-06
2.51661e-06
-6.36477e-06
1.82486e-06
-6.5211e-06
1.05665e-06
-6.66524e-06
-7.09371e-06
1.55129e-05
-4.8852e-06
1.50471e-05
-4.89671e-06
1.45804e-05
-4.90901e-06
1.41125e-05
-4.92275e-06
1.36434e-05
-4.93748e-06
1.31731e-05
-4.95285e-06
1.27013e-05
-4.96892e-06
1.22281e-05
-4.98584e-06
1.17534e-05
-5.00369e-06
1.1277e-05
-5.02251e-06
1.07988e-05
-5.04238e-06
1.03186e-05
-5.06341e-06
9.83626e-06
-5.08572e-06
9.3516e-06
-5.10946e-06
8.86433e-06
-5.13481e-06
8.37415e-06
-5.16199e-06
7.88064e-06
-5.19129e-06
7.38332e-06
-5.22304e-06
6.88155e-06
-5.2577e-06
6.37446e-06
-5.2958e-06
5.86093e-06
-5.33804e-06
5.33939e-06
-5.38531e-06
4.80767e-06
-5.43871e-06
4.26257e-06
-5.4995e-06
3.69941e-06
-5.56925e-06
3.11054e-06