/*--------------------------------*- C++ -*----------------------------------*\
  =========                 |
  \\      /  F ield         | OpenFOAM: The Open Source CFD Toolbox
   \\    /   O peration     | Website:  https://openfoam.org
    \\  /    A nd           | Version:  11
     \\/     M anipulation  |
\*---------------------------------------------------------------------------*/
FoamFile
{
    format      ascii;
    class       volVectorField;
    location    "6.5";
    object      U;
}
// * * * * * * * * * * * * * * * * * * * * * * * * * * * * * * * * * * * * * //

dimensions      [0 1 -1 0 0 0 0];

internalField   nonuniform List<vector> 
12600
(
(0.399656 0.000102491 0)
(0.399401 0.000174949 0)
(0.399016 0.000181978 0)
(0.398586 0.000181559 0)
(0.398174 0.000182325 0)
(0.397789 0.000180831 0)
(0.397423 0.000176844 0)
(0.397081 0.000171353 0)
(0.396767 0.000164132 0)
(0.396489 0.000154377 0)
(0.396258 0.000141592 0)
(0.396086 0.00012569 0)
(0.395985 0.000108628 0)
(0.395975 8.30308e-05 0)
(0.396076 4.94386e-05 0)
(0.396315 5.06777e-06 0)
(0.396726 -4.9811e-05 0)
(0.397349 -0.000111651 0)
(0.398233 -0.000188413 0)
(0.399444 -0.000288782 0)
(0.401056 -0.000411094 0)
(0.403149 -0.000556555 0)
(0.405836 -0.000738523 0)
(0.40927 -0.000964998 0)
(0.41363 -0.0012463 0)
(0.419129 -0.00159212 0)
(0.426043 -0.0020237 0)
(0.434628 -0.00248497 0)
(0.445296 -0.00331613 0)
(0.460044 -0.00298567 0)
(0.400036 0.000148423 0)
(0.400178 0.000260615 0)
(0.400352 0.000235916 0)
(0.400449 0.000218121 0)
(0.400549 0.000207822 0)
(0.400671 0.000195663 0)
(0.400813 0.000178514 0)
(0.400976 0.000156474 0)
(0.401164 0.000130157 0)
(0.401385 9.91711e-05 0)
(0.401647 6.04527e-05 0)
(0.401961 1.14112e-05 0)
(0.402339 -5.01078e-05 0)
(0.402796 -0.000125843 0)
(0.403349 -0.000218456 0)
(0.40402 -0.000331625 0)
(0.404836 -0.00047025 0)
(0.40582 -0.000641883 0)
(0.407022 -0.00085444 0)
(0.408491 -0.00111595 0)
(0.410197 -0.0014401 0)
(0.41243 -0.00184419 0)
(0.415177 -0.00234375 0)
(0.418557 -0.00295927 0)
(0.422723 -0.00371832 0)
(0.427864 -0.00465482 0)
(0.434222 -0.00581289 0)
(0.442092 -0.00718231 0)
(0.451867 -0.00911335 0)
(0.463753 -0.00996201 0)
(0.400023 7.66411e-05 0)
(0.400107 0.000128518 0)
(0.40022 0.000110193 0)
(0.400322 9.3737e-05 0)
(0.400422 8.38107e-05 0)
(0.400536 6.78192e-05 0)
(0.400671 4.33689e-05 0)
(0.400827 1.24865e-05 0)
(0.401007 -2.69614e-05 0)
(0.401216 -7.79507e-05 0)
(0.401464 -0.000140102 0)
(0.401758 -0.000216767 0)
(0.402113 -0.000311508 0)
(0.402541 -0.000428625 0)
(0.403062 -0.000573121 0)
(0.403697 -0.000751281 0)
(0.404475 -0.000969936 0)
(0.405431 -0.00123881 0)
(0.406603 -0.00157042 0)
(0.408049 -0.00197183 0)
(0.409832 -0.00247596 0)
(0.412018 -0.00311476 0)
(0.414697 -0.00390018 0)
(0.417997 -0.0048654 0)
(0.422066 -0.00605816 0)
(0.4271 -0.00753531 0)
(0.433296 -0.00936947 0)
(0.441054 -0.0115831 0)
(0.450365 -0.0145295 0)
(0.462981 -0.0168003 0)
(0.400015 4.39069e-05 0)
(0.400075 9.58515e-05 0)
(0.400171 9.94926e-05 0)
(0.400267 8.50714e-05 0)
(0.400364 6.64567e-05 0)
(0.400473 4.18496e-05 0)
(0.400602 1.01826e-05 0)
(0.400752 -3.0942e-05 0)
(0.400926 -8.4079e-05 0)
(0.401129 -0.000149938 0)
(0.401369 -0.000232144 0)
(0.401654 -0.000334766 0)
(0.401997 -0.000462608 0)
(0.402412 -0.000621511 0)
(0.402915 -0.000818373 0)
(0.40353 -0.00106162 0)
(0.404281 -0.00136128 0)
(0.405203 -0.0017303 0)
(0.406335 -0.00218501 0)
(0.407727 -0.00274417 0)
(0.40944 -0.00344071 0)
(0.411542 -0.00430826 0)
(0.414121 -0.00537743 0)
(0.417295 -0.00669696 0)
(0.421206 -0.00833067 0)
(0.426047 -0.0103522 0)
(0.432004 -0.0128636 0)
(0.439496 -0.0159069 0)
(0.448453 -0.0198978 0)
(0.460837 -0.0235202 0)
(0.40001 2.48538e-05 0)
(0.400053 5.70685e-05 0)
(0.400132 5.26247e-05 0)
(0.40022 2.7086e-05 0)
(0.400312 -3.69117e-06 0)
(0.400418 -3.98318e-05 0)
(0.400542 -8.33499e-05 0)
(0.400686 -0.000138324 0)
(0.400852 -0.000205463 0)
(0.401047 -0.000288339 0)
(0.401277 -0.000392072 0)
(0.401551 -0.000521581 0)
(0.401879 -0.000682679 0)
(0.402276 -0.00088252 0)
(0.402757 -0.0011298 0)
(0.403344 -0.00143516 0)
(0.404061 -0.00181144 0)
(0.40494 -0.00227479 0)
(0.406018 -0.00284581 0)
(0.407342 -0.00354938 0)
(0.408968 -0.0044201 0)
(0.410963 -0.0054993 0)
(0.413411 -0.0068327 0)
(0.416421 -0.00848026 0)
(0.420129 -0.0105207 0)
(0.42472 -0.0130497 0)
(0.430363 -0.0161969 0)
(0.437489 -0.0200456 0)
(0.445973 -0.0250178 0)
(0.457931 -0.03006 0)
(0.400008 1.12909e-05 0)
(0.400041 2.48313e-05 0)
(0.400106 1.48325e-05 0)
(0.400187 -1.30813e-05 0)
(0.400275 -4.78483e-05 0)
(0.400376 -8.80252e-05 0)
(0.400493 -0.00013878 0)
(0.40063 -0.000202247 0)
(0.400788 -0.000280729 0)
(0.400973 -0.000378507 0)
(0.401191 -0.000500821 0)
(0.40145 -0.000653613 0)
(0.401761 -0.000844066 0)
(0.402135 -0.00108083 0)
(0.402589 -0.00137431 0)
(0.403142 -0.00173722 0)
(0.403817 -0.00218509 0)
(0.404643 -0.00273727 0)
(0.405655 -0.00341802 0)
(0.406895 -0.00425718 0)
(0.408417 -0.0052937 0)
(0.410282 -0.00657572 0)
(0.412569 -0.00816018 0)
(0.415379 -0.01012 0)
(0.418836 -0.01255 0)
(0.423115 -0.0155661 0)
(0.428372 -0.0193218 0)
(0.435037 -0.0239424 0)
(0.442934 -0.0298522 0)
(0.454296 -0.0362711 0)
(0.400006 1.2124e-06 0)
(0.400033 -1.14018e-06 0)
(0.400088 -1.88489e-05 0)
(0.400161 -5.22175e-05 0)
(0.400244 -9.47122e-05 0)
(0.400338 -0.000144516 0)
(0.400448 -0.000205091 0)
(0.400576 -0.000279668 0)
(0.400724 -0.000371598 0)
(0.400898 -0.000485352 0)
(0.401102 -0.000626878 0)
(0.401344 -0.000803315 0)
(0.401633 -0.00102302 0)
(0.401982 -0.00129591 0)
(0.402404 -0.00163399 0)
(0.402917 -0.00205186 0)
(0.403543 -0.00256742 0)
(0.404307 -0.00320273 0)
(0.405241 -0.00398528 0)
(0.406385 -0.00494926 0)
(0.407785 -0.00613816 0)
(0.4095 -0.00760646 0)
(0.411599 -0.00942104 0)
(0.414175 -0.0116666 0)
(0.41734 -0.0144518 0)
(0.421254 -0.0179112 0)
(0.426057 -0.0222228 0)
(0.432164 -0.027558 0)
(0.439365 -0.0343389 0)
(0.449953 -0.0420778 0)
(0.400005 -6.59619e-06 0)
(0.400027 -2.26659e-05 0)
(0.400074 -4.94622e-05 0)
(0.40014 -8.89469e-05 0)
(0.400216 -0.000138004 0)
(0.400304 -0.000195269 0)
(0.400405 -0.00026356 0)
(0.400524 -0.00034679 0)
(0.400662 -0.00044911 0)
(0.400822 -0.000575701 0)
(0.401011 -0.000733262 0)
(0.401234 -0.000929814 0)
(0.4015 -0.00117476 0)
(0.401819 -0.00147924 0)
(0.402205 -0.00185666 0)
(0.402673 -0.00232333 0)
(0.403242 -0.0028992 0)
(0.403936 -0.00360889 0)
(0.404784 -0.00448293 0)
(0.405818 -0.00555931 0)
(0.407082 -0.00688589 0)
(0.408627 -0.00852283 0)
(0.410514 -0.0105452 0)
(0.412825 -0.0130479 0)
(0.415658 -0.016153 0)
(0.419157 -0.0200133 0)
(0.423439 -0.0248296 0)
(0.4289 -0.0308175 0)
(0.435297 -0.038396 0)
(0.444928 -0.0473798 0)
(0.400004 -1.31461e-05 0)
(0.400023 -4.07918e-05 0)
(0.400064 -7.62889e-05 0)
(0.400122 -0.000122203 0)
(0.400191 -0.000177504 0)
(0.400272 -0.000241753 0)
(0.400365 -0.000317618 0)
(0.400474 -0.000409395 0)
(0.400599 -0.000521966 0)
(0.400746 -0.000661145 0)
(0.400916 -0.000834186 0)
(0.401118 -0.00104985 0)
(0.401357 -0.00131846 0)
(0.401644 -0.00165222 0)
(0.40199 -0.00206579 0)
(0.402408 -0.00257699 0)
(0.402916 -0.00320757 0)
(0.403533 -0.0039843 0)
(0.404284 -0.00494026 0)
(0.405199 -0.00611659 0)
(0.406313 -0.00756493 0)
(0.407671 -0.00935032 0)
(0.409325 -0.0115547 0)
(0.411344 -0.014282 0)
(0.41381 -0.0176657 0)
(0.416848 -0.0218749 0)
(0.420551 -0.0271305 0)
(0.425282 -0.0336898 0)
(0.430776 -0.0419702 0)
(0.439261 -0.0520927 0)
(0.400004 -1.85125e-05 0)
(0.400019 -5.64479e-05 0)
(0.400055 -0.000100143 0)
(0.400106 -0.000152382 0)
(0.400169 -0.000213531 0)
(0.400242 -0.000284096 0)
(0.400326 -0.000366838 0)
(0.400424 -0.000466258 0)
(0.400536 -0.000587736 0)
(0.400667 -0.000737646 0)
(0.400819 -0.000923817 0)
(0.400997 -0.0011557 0)
(0.401208 -0.00144443 0)
(0.40146 -0.00180316 0)
(0.401762 -0.00224762 0)
(0.402127 -0.00279689 0)
(0.402567 -0.00347426 0)
(0.403101 -0.00430826 0)
(0.403749 -0.00533413 0)
(0.404534 -0.00659561 0)
(0.405487 -0.0081475 0)
(0.406644 -0.0100589 0)
(0.408046 -0.0124172 0)
(0.409751 -0.0153335 0)
(0.411821 -0.0189508 0)
(0.414359 -0.0234514 0)
(0.417433 -0.029074 0)
(0.421358 -0.0361137 0)
(0.425858 -0.0449859 0)
(0.43301 -0.056109 0)
(0.400003 -2.31216e-05 0)
(0.400017 -6.98845e-05 0)
(0.400047 -0.00012098 0)
(0.400092 -0.000179226 0)
(0.400148 -0.000245809 0)
(0.400213 -0.00032198 0)
(0.400287 -0.000410735 0)
(0.400373 -0.000516777 0)
(0.400472 -0.000645908 0)
(0.400586 -0.00080502 0)
(0.400718 -0.00100246 0)
(0.400872 -0.00124824 0)
(0.401053 -0.00155419 0)
(0.401267 -0.00193421 0)
(0.401524 -0.00240493 0)
(0.401831 -0.00298645 0)
(0.4022 -0.00370323 0)
(0.402645 -0.00458525 0)
(0.403183 -0.00566936 0)
(0.403831 -0.0070013 0)
(0.404614 -0.00863824 0)
(0.405557 -0.0106523 0)
(0.406694 -0.0131348 0)
(0.408065 -0.0162021 0)
(0.409717 -0.0200043 0)
(0.411723 -0.0247337 0)
(0.414128 -0.0306426 0)
(0.417183 -0.0380578 0)
(0.420613 -0.0473914 0)
(0.426255 -0.0593385 0)
(0.400003 -2.70541e-05 0)
(0.400014 -8.14042e-05 0)
(0.400041 -0.000139111 0)
(0.400079 -0.000202857 0)
(0.400128 -0.000274293 0)
(0.400185 -0.000355275 0)
(0.40025 -0.000449114 0)
(0.400324 -0.000560708 0)
(0.400408 -0.000696168 0)
(0.400505 -0.000862802 0)
(0.400615 -0.00106939 0)
(0.400743 -0.00132642 0)
(0.400893 -0.00164621 0)
(0.401068 -0.00204327 0)
(0.401276 -0.00253491 0)
(0.401523 -0.00314198 0)
(0.401817 -0.00388987 0)
(0.40217 -0.00480955 0)
(0.402592 -0.00593907 0)
(0.403098 -0.00732548 0)
(0.403703 -0.00902756 0)
(0.404425 -0.0111193 0)
(0.405285 -0.0136945 0)
(0.40631 -0.0168727 0)
(0.407526 -0.0208082 0)
(0.408979 -0.0256996 0)
(0.410684 -0.0318079 0)
(0.412822 -0.0394833 0)
(0.415122 -0.0491318 0)
(0.419103 -0.0616887 0)
(0.400002 -3.04065e-05 0)
(0.400012 -9.12433e-05 0)
(0.400034 -0.000154716 0)
(0.400068 -0.0002233 0)
(0.400109 -0.000298922 0)
(0.400158 -0.000383893 0)
(0.400212 -0.000481829 0)
(0.400274 -0.000597814 0)
(0.400344 -0.000738197 0)
(0.400423 -0.000910598 0)
(0.400511 -0.00112413 0)
(0.400613 -0.00138962 0)
(0.400729 -0.00171977 0)
(0.400864 -0.00212953 0)
(0.401021 -0.00263667 0)
(0.401206 -0.0032626 0)
(0.401424 -0.00403325 0)
(0.401681 -0.00498023 0)
(0.401985 -0.00614224 0)
(0.402343 -0.00756705 0)
(0.402765 -0.00931414 0)
(0.40326 -0.0114583 0)
(0.403838 -0.0140941 0)
(0.404508 -0.0173421 0)
(0.405278 -0.0213579 0)
(0.406165 -0.0263419 0)
(0.407154 -0.032558 0)
(0.408344 -0.0403697 0)
(0.409478 -0.0501715 0)
(0.411681 -0.0630893 0)
(0.400002 -3.32419e-05 0)
(0.40001 -9.95741e-05 0)
(0.400029 -0.000167957 0)
(0.400057 -0.000240643 0)
(0.400092 -0.000319702 0)
(0.400132 -0.000407784 0)
(0.400176 -0.000508782 0)
(0.400226 -0.000627941 0)
(0.40028 -0.00077177 0)
(0.40034 -0.000948098 0)
(0.400407 -0.00116628 0)
(0.400481 -0.00143737 0)
(0.400563 -0.00177432 0)
(0.400657 -0.00219233 0)
(0.400763 -0.00270943 0)
(0.400884 -0.00334728 0)
(0.401023 -0.00413209 0)
(0.401183 -0.0050957 0)
(0.401366 -0.00627696 0)
(0.401575 -0.0077237 0)
(0.401812 -0.00949528 0)
(0.402078 -0.0116661 0)
(0.40237 -0.01433 0)
(0.402683 -0.0176064 0)
(0.403006 -0.0216486 0)
(0.403324 -0.0266548 0)
(0.403593 -0.0328848 0)
(0.403828 -0.040704 0)
(0.403785 -0.0504876 0)
(0.404145 -0.0634892 0)
(0.400002 -3.56153e-05 0)
(0.400008 -0.00010654 0)
(0.400024 -0.000178995 0)
(0.400047 -0.000254995 0)
(0.400075 -0.000336675 0)
(0.400107 -0.000426945 0)
(0.400141 -0.000529927 0)
(0.400178 -0.000650993 0)
(0.400217 -0.000796743 0)
(0.400259 -0.000975127 0)
(0.400303 -0.00119563 0)
(0.400349 -0.00146943 0)
(0.400397 -0.00180955 0)
(0.400449 -0.00223127 0)
(0.400503 -0.00275269 0)
(0.40056 -0.00339548 0)
(0.40062 -0.0041858 0)
(0.400681 -0.00515534 0)
(0.400744 -0.00634263 0)
(0.400803 -0.00779492 0)
(0.400855 -0.00957064 0)
(0.400892 -0.0117427 0)
(0.400899 -0.0144027 0)
(0.400859 -0.0176664 0)
(0.400739 -0.0216823 0)
(0.400497 -0.026641 0)
(0.400059 -0.0327917 0)
(0.399352 -0.0404889 0)
(0.398152 -0.0500791 0)
(0.396666 -0.0628704 0)
(0.400001 -3.75769e-05 0)
(0.400007 -0.000112276 0)
(0.400019 -0.000187996 0)
(0.400038 -0.000266493 0)
(0.40006 -0.000349926 0)
(0.400083 -0.000441419 0)
(0.400107 -0.000545284 0)
(0.400132 -0.000666968 0)
(0.400156 -0.000813091 0)
(0.400179 -0.000991632 0)
(0.4002 -0.0012121 0)
(0.400218 -0.00148567 0)
(0.400233 -0.00182531 0)
(0.400242 -0.00224621 0)
(0.400244 -0.00276631 0)
(0.400237 -0.00340708 0)
(0.400218 -0.00419431 0)
(0.400182 -0.00515916 0)
(0.400124 -0.00633939 0)
(0.400035 -0.00778108 0)
(0.399905 -0.00954094 0)
(0.399715 -0.0116893 0)
(0.399444 -0.0143142 0)
(0.399058 -0.0175258 0)
(0.398509 -0.0214644 0)
(0.397724 -0.0263088 0)
(0.396606 -0.0322905 0)
(0.394997 -0.0397405 0)
(0.39269 -0.0489661 0)
(0.389424 -0.0612512 0)
(0.400001 -3.91781e-05 0)
(0.400005 -0.000116924 0)
(0.400015 -0.000195142 0)
(0.40003 -0.000275302 0)
(0.400045 -0.000359581 0)
(0.400061 -0.000451304 0)
(0.400076 -0.000554934 0)
(0.400088 -0.000675932 0)
(0.400097 -0.000820863 0)
(0.400102 -0.000997654 0)
(0.4001 -0.00121574 0)
(0.400091 -0.00148617 0)
(0.400071 -0.00182171 0)
(0.400039 -0.00223728 0)
(0.39999 -0.0027505 0)
(0.39992 -0.00338236 0)
(0.399823 -0.00415803 0)
(0.399691 -0.00510778 0)
(0.399515 -0.00626817 0)
(0.39928 -0.00768357 0)
(0.398971 -0.00940828 0)
(0.398563 -0.0115092 0)
(0.398022 -0.0140692 0)
(0.397303 -0.0171914 0)
(0.396343 -0.021005 0)
(0.395045 -0.0256732 0)
(0.393287 -0.031403 0)
(0.390838 -0.0384901 0)
(0.387507 -0.0471923 0)
(0.382601 -0.0586914 0)
(0.400001 -4.04776e-05 0)
(0.400004 -0.000120646 0)
(0.400012 -0.000200643 0)
(0.400022 -0.00028162 0)
(0.400033 -0.000365804 0)
(0.400041 -0.000456744 0)
(0.400046 -0.000559017 0)
(0.400046 -0.000678025 0)
(0.400041 -0.000820208 0)
(0.400027 -0.000993361 0)
(0.400004 -0.00120675 0)
(0.399968 -0.00147116 0)
(0.399915 -0.00179903 0)
(0.399842 -0.00220487 0)
(0.399743 -0.00270576 0)
(0.399611 -0.00332201 0)
(0.399438 -0.00407788 0)
(0.399212 -0.00500246 0)
(0.398921 -0.00613068 0)
(0.398547 -0.00750476 0)
(0.398065 -0.00917595 0)
(0.397446 -0.0112069 0)
(0.396648 -0.0136744 0)
(0.395615 -0.0166727 0)
(0.394269 -0.020318 0)
(0.392494 -0.0247544 0)
(0.390149 -0.0301594 0)
(0.386943 -0.0367827 0)
(0.382698 -0.044824 0)
(0.376362 -0.0552918 0)
(0.400001 -4.15474e-05 0)
(0.400004 -0.000123635 0)
(0.40001 -0.000204747 0)
(0.400017 -0.00028568 0)
(0.400022 -0.000368795 0)
(0.400023 -0.00045793 0)
(0.400019 -0.000557734 0)
(0.400008 -0.000673464 0)
(0.399988 -0.000811361 0)
(0.399957 -0.000979022 0)
(0.399913 -0.00118545 0)
(0.39985 -0.00144105 0)
(0.399766 -0.00175779 0)
(0.399653 -0.00214962 0)
(0.399506 -0.00263291 0)
(0.399314 -0.00322706 0)
(0.399067 -0.00395522 0)
(0.398752 -0.00484498 0)
(0.398351 -0.00592933 0)
(0.397842 -0.00724788 0)
(0.397197 -0.00884835 0)
(0.396378 -0.0107885 0)
(0.395338 -0.0131382 0)
(0.394011 -0.0159818 0)
(0.39231 -0.0194208 0)
(0.390102 -0.0235778 0)
(0.387233 -0.0285971 0)
(0.38337 -0.034675 0)
(0.378346 -0.0419467 0)
(0.370845 -0.0511904 0)
(0.400001 -4.24804e-05 0)
(0.400003 -0.000126139 0)
(0.400008 -0.000207753 0)
(0.400013 -0.000287748 0)
(0.400014 -0.00036879 0)
(0.400008 -0.000455102 0)
(0.399995 -0.000551341 0)
(0.399973 -0.000662521 0)
(0.39994 -0.000794632 0)
(0.399893 -0.000955015 0)
(0.399828 -0.0011523 0)
(0.39974 -0.0013964 0)
(0.399625 -0.0016987 0)
(0.399475 -0.00207243 0)
(0.399281 -0.00253307 0)
(0.399032 -0.00309897 0)
(0.398716 -0.00379188 0)
(0.398315 -0.00463768 0)
(0.39781 -0.00566713 0)
(0.397174 -0.00691688 0)
(0.396374 -0.00843075 0)
(0.395369 -0.0102611 0)
(0.394105 -0.0124704 0)
(0.392508 -0.0151323 0)
(0.390485 -0.018333 0)
(0.387893 -0.0221721 0)
(0.384569 -0.0267591 0)
(0.38016 -0.0322325 0)
(0.374509 -0.038661 0)
(0.366151 -0.0465544 0)
(0.400001 -4.34022e-05 0)
(0.400003 -0.000128477 0)
(0.400008 -0.00021002 0)
(0.400011 -0.000288124 0)
(0.400008 -0.000366061 0)
(0.399996 -0.000448549 0)
(0.399975 -0.000540163 0)
(0.399943 -0.000645562 0)
(0.399897 -0.000770418 0)
(0.399834 -0.000921777 0)
(0.39975 -0.00110784 0)
(0.399639 -0.0013379 0)
(0.399495 -0.00162261 0)
(0.399309 -0.00197437 0)
(0.399071 -0.00240766 0)
(0.398769 -0.00293954 0)
(0.398387 -0.00359024 0)
(0.397906 -0.00438364 0)
(0.397303 -0.00534803 0)
(0.396549 -0.00651688 0)
(0.395606 -0.00792977 0)
(0.39443 -0.00963344 0)
(0.39296 -0.0116826 0)
(0.39112 -0.0141401 0)
(0.388811 -0.0170765 0)
(0.385887 -0.0205685 0)
(0.382181 -0.0246914 0)
(0.377342 -0.0295253 0)
(0.371222 -0.0350756 0)
(0.36233 -0.0415679 0)
(0.400001 -4.44906e-05 0)
(0.400004 -0.000131087 0)
(0.400009 -0.00021199 0)
(0.400012 -0.000287104 0)
(0.400005 -0.000360849 0)
(0.399988 -0.000438601 0)
(0.39996 -0.000524589 0)
(0.399918 -0.000623002 0)
(0.399861 -0.000739252 0)
(0.399783 -0.000880002 0)
(0.399681 -0.00105285 0)
(0.399548 -0.00126637 0)
(0.399376 -0.00153043 0)
(0.399157 -0.00185647 0)
(0.398879 -0.00225783 0)
(0.398527 -0.00275017 0)
(0.398085 -0.00335198 0)
(0.39753 -0.00408503 0)
(0.396837 -0.00497492 0)
(0.395973 -0.00605172 0)
(0.3949 -0.00735069 0)
(0.393567 -0.00891282 0)
(0.391913 -0.010785 0)
(0.389857 -0.0130197 0)
(0.387299 -0.0156722 0)
(0.384094 -0.0187979 0)
(0.380081 -0.0224399 0)
(0.374925 -0.026624 0)
(0.368492 -0.0312995 0)
(0.35938 -0.036418 0)
(0.400001 -4.60125e-05 0)
(0.400006 -0.000134564 0)
(0.400013 -0.000214164 0)
(0.400016 -0.00028505 0)
(0.400007 -0.000353527 0)
(0.399985 -0.000425584 0)
(0.39995 -0.000504865 0)
(0.3999 -0.000595113 0)
(0.399832 -0.000701531 0)
(0.399741 -0.000830329 0)
(0.399622 -0.000988395 0)
(0.399469 -0.00118347 0)
(0.399273 -0.00142453 0)
(0.399024 -0.00172194 0)
(0.398708 -0.00208768 0)
(0.398311 -0.00253588 0)
(0.397813 -0.00308317 0)
(0.39719 -0.00374903 0)
(0.396415 -0.00455625 0)
(0.395453 -0.00553138 0)
(0.394262 -0.00670522 0)
(0.39279 -0.00811305 0)
(0.390973 -0.00979428 0)
(0.388729 -0.0117913 0)
(0.385958 -0.0141458 0)
(0.382523 -0.0168938 0)
(0.37827 -0.020051 0)
(0.372901 -0.0235966 0)
(0.366299 -0.027436 0)
(0.357248 -0.0312802 0)
(0.400002 -4.84035e-05 0)
(0.400009 -0.00013973 0)
(0.400021 -0.000217023 0)
(0.400025 -0.000282304 0)
(0.400015 -0.000344677 0)
(0.399988 -0.000410228 0)
(0.399947 -0.000481684 0)
(0.39989 -0.000562374 0)
(0.399812 -0.000657242 0)
(0.399709 -0.000772031 0)
(0.399575 -0.000912922 0)
(0.399403 -0.00108676 0)
(0.399185 -0.00130156 0)
(0.398909 -0.00156656 0)
(0.39856 -0.00189238 0)
(0.398122 -0.00229145 0)
(0.397574 -0.00277839 0)
(0.396891 -0.0033703 0)
(0.396044 -0.0040871 0)
(0.394994 -0.00495182 0)
(0.393699 -0.00599083 0)
(0.392105 -0.00723386 0)
(0.390146 -0.00871326 0)
(0.387742 -0.0104623 0)
(0.384794 -0.0125108 0)
(0.381175 -0.0148785 0)
(0.376744 -0.0175599 0)
(0.371252 -0.0204978 0)
(0.364601 -0.02357 0)
(0.355834 -0.0263018 0)
(0.400003 -5.24327e-05 0)
(0.400016 -0.000147856 0)
(0.400034 -0.000220894 0)
(0.400041 -0.000278539 0)
(0.400029 -0.000334118 0)
(0.399998 -0.000393143 0)
(0.399953 -0.000456957 0)
(0.399889 -0.000528441 0)
(0.399803 -0.000612192 0)
(0.399689 -0.000713292 0)
(0.399542 -0.000837018 0)
(0.399355 -0.00098919 0)
(0.399117 -0.0011768 0)
(0.398817 -0.00140778 0)
(0.398439 -0.0016913 0)
(0.397965 -0.0020381 0)
(0.397374 -0.0024607 0)
(0.396638 -0.00297366 0)
(0.395727 -0.00359389 0)
(0.394602 -0.00434084 0)
(0.393217 -0.00523656 0)
(0.391518 -0.0063055 0)
(0.389439 -0.00757354 0)
(0.3869 -0.00906593 0)
(0.383808 -0.0108027 0)
(0.380046 -0.0127911 0)
(0.37549 -0.0150114 0)
(0.369944 -0.0173828 0)
(0.363334 -0.0197754 0)
(0.355005 -0.0215976 0)
(0.400005 -5.94019e-05 0)
(0.400027 -0.000161126 0)
(0.400055 -0.00022736 0)
(0.400066 -0.000274123 0)
(0.400051 -0.000319489 0)
(0.400018 -0.000368068 0)
(0.399968 -0.000420334 0)
(0.399898 -0.000479003 0)
(0.399805 -0.000548175 0)
(0.399682 -0.000632267 0)
(0.399524 -0.000735544 0)
(0.399324 -0.00086268 0)
(0.399069 -0.00101984 0)
(0.398749 -0.00121348 0)
(0.398346 -0.00145104 0)
(0.397842 -0.00174143 0)
(0.397214 -0.00209507 0)
(0.396434 -0.00252404 0)
(0.395469 -0.00304229 0)
(0.394281 -0.00366571 0)
(0.392821 -0.00441212 0)
(0.391035 -0.00530096 0)
(0.388857 -0.00635229 0)
(0.38621 -0.00758452 0)
(0.383004 -0.00901014 0)
(0.379137 -0.0106277 0)
(0.3745 -0.0124105 0)
(0.368952 -0.0142658 0)
(0.362444 -0.0160809 0)
(0.354626 -0.0172243 0)
(0.400009 -7.11349e-05 0)
(0.400046 -0.00017993 0)
(0.40009 -0.000240279 0)
(0.400106 -0.00028219 0)
(0.40009 -0.000323308 0)
(0.400053 -0.000365349 0)
(0.4 -0.000409027 0)
(0.399927 -0.000457563 0)
(0.399827 -0.000514219 0)
(0.399697 -0.000582657 0)
(0.39953 -0.000666438 0)
(0.399318 -0.000768689 0)
(0.39905 -0.000894649 0)
(0.398713 -0.00104954 0)
(0.39829 -0.0012393 0)
(0.397762 -0.00147094 0)
(0.397105 -0.00175254 0)
(0.39629 -0.00209353 0)
(0.395283 -0.0025048 0)
(0.394044 -0.00299879 0)
(0.392526 -0.00358934 0)
(0.390672 -0.00429131 0)
(0.38842 -0.00511959 0)
(0.385693 -0.006087 0)
(0.382409 -0.0072007 0)
(0.378475 -0.00845407 0)
(0.373804 -0.00982147 0)
(0.368301 -0.0112043 0)
(0.361941 -0.0125327 0)
(0.354649 -0.0132162 0)
(0.400017 -9.63478e-05 0)
(0.400077 -0.000188466 0)
(0.400138 -0.00021907 0)
(0.400156 -0.000244804 0)
(0.40014 -0.000275068 0)
(0.400103 -0.000305553 0)
(0.400048 -0.000336775 0)
(0.399971 -0.000372017 0)
(0.399867 -0.000414223 0)
(0.399732 -0.000465298 0)
(0.399558 -0.000527599 0)
(0.399338 -0.000604601 0)
(0.39906 -0.000699 0)
(0.39871 -0.000814363 0)
(0.398272 -0.000955073 0)
(0.397725 -0.00112622 0)
(0.397045 -0.0013338 0)
(0.396203 -0.00158479 0)
(0.395165 -0.00188713 0)
(0.393889 -0.00224969 0)
(0.392329 -0.00268239 0)
(0.39043 -0.00319577 0)
(0.388129 -0.00380029 0)
(0.385357 -0.00450454 0)
(0.382037 -0.00531254 0)
(0.378089 -0.00621622 0)
(0.373449 -0.00719854 0)
(0.368036 -0.00815785 0)
(0.361884 -0.00907659 0)
(0.354878 -0.00936706 0)
(0.400026 -0.000160937 0)
(0.400178 -0.000311128 0)
(0.400251 -0.000302902 0)
(0.400242 -0.000309624 0)
(0.400211 -0.000326697 0)
(0.400165 -0.000344474 0)
(0.4001 -0.000363216 0)
(0.400009 -0.000385189 0)
(0.399887 -0.000409626 0)
(0.399729 -0.000442178 0)
(0.399528 -0.000482162 0)
(0.399274 -0.000527257 0)
(0.398956 -0.000586457 0)
(0.398559 -0.000659075 0)
(0.398066 -0.000747993 0)
(0.397457 -0.000856308 0)
(0.396707 -0.000987529 0)
(0.395788 -0.00114596 0)
(0.394665 -0.0013368 0)
(0.393298 -0.00156604 0)
(0.391642 -0.00184028 0)
(0.389641 -0.00216644 0)
(0.387235 -0.00255116 0)
(0.384352 -0.00299957 0)
(0.380918 -0.00351335 0)
(0.376852 -0.00408512 0)
(0.372098 -0.00469887 0)
(0.366474 -0.00527353 0)
(0.360297 -0.00585252 0)
(0.352245 -0.00551916 0)
(0.399646 -0.000110065 0)
(0.399354 -0.00018594 0)
(0.398901 -0.000202256 0)
(0.398373 -0.000210842 0)
(0.397827 -0.000220542 0)
(0.397268 -0.00022932 0)
(0.396688 -0.00023755 0)
(0.396079 -0.000246298 0)
(0.395439 -0.000256758 0)
(0.39476 -0.000268543 0)
(0.394035 -0.000282312 0)
(0.393252 -0.000300284 0)
(0.392399 -0.000321972 0)
(0.391458 -0.000348021 0)
(0.390411 -0.000379612 0)
(0.389232 -0.000418118 0)
(0.387894 -0.000465202 0)
(0.386362 -0.000522713 0)
(0.384596 -0.000592588 0)
(0.382546 -0.00067695 0)
(0.380157 -0.000778204 0)
(0.377363 -0.000898994 0)
(0.374087 -0.00104192 0)
(0.370246 -0.00120896 0)
(0.365754 -0.00140064 0)
(0.360527 -0.0016131 0)
(0.354507 -0.00183855 0)
(0.347683 -0.00202998 0)
(0.340225 -0.00230865 0)
(0.329678 -0.00164798 0)
(0.466458 -0.00690273 9.1325e-21)
(0.472809 -0.0107122 -2.0996e-17)
(0.478369 -0.0149559 2.11249e-17)
(0.482782 -0.019617 1.06363e-17)
(0.486556 -0.0246473 8.04455e-18)
(0.489983 -0.0300396 1.62475e-17)
(0.493154 -0.0358336 8.18671e-18)
(0.496133 -0.0420883 2.20728e-17)
(0.498993 -0.0488517 1.11586e-17)
(0.501782 -0.0561556 5.62523e-18)
(0.50451 -0.0640275 -5.69523e-18)
(0.507164 -0.0725013 1.14895e-17)
(0.509728 -0.0816216 5.84289e-18)
(0.512187 -0.0914456 5.89573e-18)
(0.514536 -0.102045 1.19208e-17)
(0.516775 -0.113508 6.0519e-18)
(0.518907 -0.125943 1.83074e-17)
(0.520939 -0.139482 0)
(0.522878 -0.154287 0)
(0.524732 -0.17056 6.29913e-18)
(0.526512 -0.188553 -3.43947e-20)
(0.528236 -0.208584 6.47165e-18)
(0.529917 -0.231056 0)
(0.531585 -0.256498 1.31107e-17)
(0.533282 -0.285532 6.59641e-18)
(0.534801 -0.319366 -6.70132e-18)
(0.537509 -0.357416 6.65487e-18)
(0.535416 -0.410068 6.70228e-18)
(0.548693 -0.444857 1.9884e-17)
(0.517469 -0.570165 -6.4466e-18)
(0.47306 -0.0146816 -1.05379e-17)
(0.476893 -0.0184279 1.1944e-17)
(0.479979 -0.0229414 -1.20521e-17)
(0.482443 -0.0278526 0)
(0.484734 -0.0330809 -1.09431e-17)
(0.487051 -0.0386709 -1.10408e-17)
(0.489387 -0.0446869 -2.78962e-18)
(0.491717 -0.0511671 -1.97512e-17)
(0.494026 -0.0581277 -1.13994e-17)
(0.496289 -0.0655844 -1.15548e-17)
(0.498468 -0.0735657 5.83197e-18)
(0.500526 -0.0821139 -5.91083e-18)
(0.502441 -0.0912829 -1.19359e-17)
(0.504204 -0.101137 -1.20829e-17)
(0.505807 -0.11175 -1.22352e-17)
(0.507245 -0.123214 -1.23925e-17)
(0.508509 -0.135635 -2.5166e-17)
(0.509588 -0.149144 6.36751e-18)
(0.510467 -0.163902 -6.47131e-18)
(0.511128 -0.180107 -1.96795e-17)
(0.511551 -0.198005 2.50609e-20)
(0.511708 -0.217903 -5.1406e-20)
(0.511555 -0.240191 -3.64934e-20)
(0.51106 -0.265361 -2.07783e-17)
(0.510115 -0.294028 -1.40233e-17)
(0.508593 -0.327194 -6.99976e-18)
(0.506937 -0.364884 1.00437e-19)
(0.501121 -0.414092 -1.2388e-19)
(0.506858 -0.452424 -2.13733e-17)
(0.470864 -0.56697 0)
(0.470903 -0.0219167 0)
(0.473427 -0.0256711 0)
(0.475633 -0.0302456 0)
(0.477742 -0.0352521 -1.38103e-18)
(0.479884 -0.0405824 1.25655e-17)
(0.482049 -0.046262 -2.82268e-18)
(0.484166 -0.0523298 2.8581e-18)
(0.486184 -0.0588081 1.15455e-17)
(0.488079 -0.0657193 -2.92149e-18)
(0.489834 -0.0730993 1.47828e-17)
(0.491434 -0.0809941 5.98798e-18)
(0.492867 -0.0894551 -6.07367e-18)
(0.494126 -0.0985372 6.14502e-18)
(0.495202 -0.108302 -6.23801e-18)
(0.496081 -0.118823 -1.2667e-17)
(0.496743 -0.130186 1.285e-17)
(0.497163 -0.142497 1.29789e-17)
(0.497311 -0.155886 0)
(0.497152 -0.170509 0)
(0.496645 -0.186558 1.35691e-17)
(0.495733 -0.20427 0)
(0.494351 -0.223937 2.10737e-17)
(0.492397 -0.245932 7.14231e-18)
(0.489777 -0.27071 1.44108e-17)
(0.486264 -0.298873 2.19355e-17)
(0.48173 -0.331234 7.5142e-18)
(0.475978 -0.368249 0)
(0.466558 -0.414453 3.04912e-17)
(0.464026 -0.455426 0)
(0.425087 -0.55852 1.53567e-17)
(0.468416 -0.029448 0)
(0.470425 -0.0333801 0)
(0.472187 -0.0380321 0)
(0.473987 -0.0430589 -1.1298e-17)
(0.475781 -0.0483813 0)
(0.477476 -0.0540339 0)
(0.479036 -0.0600628 0)
(0.480458 -0.0664989 1.18564e-17)
(0.481743 -0.0733718 0)
(0.482882 -0.0807166 0)
(0.483861 -0.0885733 0)
(0.484663 -0.0969849 -1.25115e-17)
(0.485267 -0.106001 -1.26931e-17)
(0.48565 -0.11568 -6.42362e-18)
(0.485782 -0.126096 -4.79916e-20)
(0.485632 -0.137334 -1.32154e-17)
(0.485162 -0.149498 1.03279e-20)
(0.484328 -0.162713 2.05785e-17)
(0.483076 -0.177128 6.95364e-18)
(0.481341 -0.192927 -7.08829e-18)
(0.479036 -0.210332 -7.19736e-18)
(0.476058 -0.229615 -7.2725e-18)
(0.472255 -0.251122 -7.45879e-18)
(0.467476 -0.275264 2.29293e-17)
(0.461395 -0.302603 0)
(0.453878 -0.333788 -2.37479e-17)
(0.444218 -0.36951 -8.08553e-18)
(0.431249 -0.412655 2.7805e-19)
(0.420804 -0.454156 -2.51423e-17)
(0.380095 -0.545796 5.67477e-19)
(0.465027 -0.0366022 0)
(0.46652 -0.0405712 1.1271e-17)
(0.467751 -0.0451893 -1.42414e-18)
(0.469092 -0.050178 2.45194e-17)
(0.470432 -0.0554831 0)
(0.471637 -0.0611307 0)
(0.472687 -0.0671531 1.20018e-17)
(0.473598 -0.0735723 -1.21307e-17)
(0.474364 -0.080411 0)
(0.474962 -0.0877003 0)
(0.475367 -0.095478 0)
(0.475553 -0.103788 1.28415e-17)
(0.475497 -0.112683 1.30394e-17)
(0.475167 -0.122222 -6.63363e-18)
(0.474529 -0.132477 2.02128e-17)
(0.473545 -0.143531 0)
(0.472165 -0.155482 1.40031e-17)
(0.47033 -0.168447 -2.13343e-17)
(0.467969 -0.182567 -7.24685e-18)
(0.464992 -0.19801 0)
(0.461285 -0.214981 0)
(0.45671 -0.23373 0)
(0.451074 -0.254566 0)
(0.444173 -0.277855 -7.96311e-18)
(0.435607 -0.304103 -8.22569e-18)
(0.425216 -0.333816 8.32928e-18)
(0.411918 -0.367811 8.64242e-18)
(0.395557 -0.407726 -1.75222e-17)
(0.377775 -0.448448 1.80102e-17)
(0.336296 -0.528892 -1.81718e-17)
(0.460833 -0.0433665 -1.13687e-17)
(0.461855 -0.0473794 -1.07717e-17)
(0.462596 -0.0520007 -2.18431e-18)
(0.463505 -0.0569838 -8.83986e-18)
(0.464419 -0.0622779 -1.09982e-21)
(0.465165 -0.0678993 -4.54602e-18)
(0.465725 -0.0738736 3.79355e-20)
(0.466122 -0.0802227 -1.2491e-17)
(0.466347 -0.0869722 -9.51467e-18)
(0.466372 -0.0941553 1.28758e-17)
(0.466168 -0.101811 0)
(0.465711 -0.109982 1.66104e-17)
(0.464971 -0.118718 -1.68932e-17)
(0.463912 -0.128075 -1.3756e-17)
(0.462492 -0.13812 2.09867e-17)
(0.460661 -0.14893 -2.1383e-17)
(0.458358 -0.160596 -7.2135e-18)
(0.455509 -0.173225 -7.4876e-18)
(0.452025 -0.186947 -7.54424e-18)
(0.447796 -0.201914 2.31903e-17)
(0.442686 -0.21831 0)
(0.436524 -0.236355 8.0619e-18)
(0.429085 -0.256322 -1.65311e-17)
(0.420118 -0.278524 1.70652e-17)
(0.409171 -0.3034 8.72183e-18)
(0.396047 -0.331335 1.80401e-17)
(0.379406 -0.363165 0)
(0.359857 -0.399611 1.92439e-17)
(0.335535 -0.438393 0)
(0.294103 -0.507966 -2.05733e-17)
(0.455853 -0.0496738 1.15895e-17)
(0.456417 -0.0537089 5.88565e-18)
(0.45668 -0.0583065 -5.96855e-18)
(0.457149 -0.0632455 4.5418e-18)
(0.457621 -0.0684824 8.55247e-22)
(0.457895 -0.0740326 7.80858e-22)
(0.457954 -0.0799206 -1.10276e-17)
(0.457827 -0.0861686 3.17365e-18)
(0.457507 -0.0928017 1.9515e-17)
(0.45696 -0.0998509 -1.65247e-17)
(0.456154 -0.107352 3.36502e-18)
(0.455058 -0.115344 -1.70945e-17)
(0.453637 -0.123873 1.39143e-17)
(0.45185 -0.132992 1.41722e-17)
(0.449645 -0.142762 -7.18436e-18)
(0.446963 -0.153253 1.47321e-17)
(0.443732 -0.164549 0)
(0.439868 -0.176747 7.65815e-18)
(0.435267 -0.18996 7.88064e-18)
(0.4298 -0.204324 -1.60753e-17)
(0.423311 -0.219998 0)
(0.415605 -0.237172 -8.48156e-18)
(0.406428 -0.256073 7.59776e-21)
(0.395493 -0.276963 -1.78558e-17)
(0.382315 -0.300205 1.85211e-17)
(0.366652 -0.326079 -2.86209e-17)
(0.347019 -0.355363 0)
(0.324555 -0.38813 -2.03895e-17)
(0.294619 -0.424042 8.07729e-20)
(0.253864 -0.483237 2.22755e-17)
(0.450105 -0.0554212 5.9373e-18)
(0.450223 -0.0594549 -5.2556e-18)
(0.450021 -0.0640036 5.33319e-18)
(0.450052 -0.0688722 -1.23906e-17)
(0.450085 -0.0740249 -6.29852e-18)
(0.449892 -0.0794764 -1.59632e-18)
(0.449456 -0.0852484 6.50096e-18)
(0.448813 -0.0913612 1.48421e-17)